Title
82263
    1SAPS     N    1   2.651   3.714  11.177  0.8091 -0.3141 -0.1017
    1SAPS   HN1    2   2.586   3.760  11.109  1.8522  0.2384 -0.7372
    1SAPS   HN2    3   2.742   3.712  11.127  0.8267  1.6891 -0.2221
    1SAPS   HN3    4   2.615   3.619  11.196 -0.3923  0.2050  0.3085
    1SAPS   C12    5   2.663   3.797  11.297 -0.5582 -0.1053  0.7940
    1SAPS  H12A    6   2.589   3.765  11.369 -0.5751  0.3703  0.9975
    1SAPS   C13    7   2.807   3.810  11.363 -0.2795  0.5069 -0.2529
    1SAPS  O13A    8   2.889   3.721  11.336  0.5903 -0.2199 -0.2843
    1SAPS  O13B    9   2.811   3.872  11.472 -0.3722  0.3672  0.4538
    1SAPS   C11   10   2.628   3.939  11.253 -0.4150  0.0327  0.5265
    1SAPS  H11A   11   2.702   3.984  11.184 -0.3720  0.5839  0.9196
    1SAPS  H11B   12   2.627   3.993  11.351 -0.6866 -0.0579  0.5746
    1SAPS     P   13   2.449   3.979  11.059  0.6201 -0.0710 -0.0055
    1SAPS   O13   14   2.487   3.857  10.989 -0.0204 -0.2197  0.2039
    1SAPS   O14   15   2.302   4.012  11.060  0.1014 -0.3788 -0.1318
    1SAPS   O12   16   2.489   3.957  11.212 -0.2490 -0.2667  0.5560
    1SAPS   O11   17   2.539   4.106  11.033  0.0770 -0.0489  0.0066
    1SAPS    C1   18   2.495   4.197  10.933 -0.2335  0.0633 -0.6579
    1SAPS    HA   19   2.390   4.227  10.956  0.7059  1.8713  1.4104
    1SAPS    HB   20   2.550   4.291  10.953 -1.4437  0.2218  2.2523
    1SAPS    C2   21   2.521   4.160  10.785 -0.1319 -0.0987 -0.8840
    1SAPS    HS   22   2.503   4.242  10.713  0.7803  0.5961 -0.3281
    1SAPS   O21   23   2.436   4.049  10.748  0.3357  0.1490 -0.4136
    1SAPS   C21   24   2.316   4.080  10.709  0.0194  0.1633  0.4849
    1SAPS   O22   25   2.273   4.195  10.690  0.3018 -0.3465 -0.3712
    1SAPS   C22   26   2.223   3.950  10.708  0.1788 -0.5532 -0.4784
    1SAPS   H2R   27   2.285   3.877  10.763  1.0938  0.6760  0.1560
    1SAPS   H2S   28   2.138   3.970  10.777  0.6563 -1.9995  0.5517
    1SAPS    C3   29   2.664   4.130  10.767 -0.3915 -0.2486 -0.1155
    1SAPS    HX   30   2.695   4.047  10.834  0.2522 -1.1308 -1.4832
    1SAPS    HY   31   2.725   4.219  10.793 -0.0606 -0.6176  0.3697
    1SAPS   O31   32   2.700   4.089  10.638  0.3040  0.0947  0.2106
    1SAPS   C31   33   2.697   4.184  10.536 -0.1498 -0.1819  0.7953
    1SAPS   O32   34   2.672   4.301  10.547 -0.0743  0.0135  0.2659
    1SAPS   C32   35   2.743   4.117  10.408  0.2706 -0.3669 -0.0179
    1SAPS   H2X   36   2.666   4.041  10.385  0.5297 -0.0206 -2.1917
    1SAPS   H2Y   37   2.842   4.069  10.424  0.0777 -0.1212  2.0122
    1SAPS   C23   38   2.176   3.897  10.570  0.3198 -0.3300 -0.2835
    1SAPS   H3R   39   2.134   3.971  10.499  2.0334 -0.4371 -1.4434
    1SAPS   H3S   40   2.091   3.832  10.600  0.9205 -0.0172  2.2462
    1SAPS   C24   41   2.290   3.816  10.505  0.4758  0.3296  0.6173
    1SAPS   H4R   42   2.310   3.725  10.565  1.8976  1.4662  1.8981
    1SAPS   H4S   43   2.382   3.878  10.506  1.0711 -0.5554  0.4235
    1SAPS   C25   44   2.239   3.782  10.370  0.0493 -0.2483  0.3662
    1SAPS   H5R   45   2.147   3.723  10.367  0.8298 -1.4412 -0.2966
    1SAPS   C26   46   2.290   3.837  10.255  0.1517 -0.0640  0.2775
    1SAPS   H6R   47   2.237   3.807  10.164 -0.3760  0.6700  0.3342
    1SAPS   C27   48   2.397   3.938  10.255  0.0747 -0.1326  0.0744
    1SAPS   H7R   49   2.467   3.918  10.172  3.4449  1.5179  2.3958
    1SAPS   H7S   50   2.467   3.919  10.339 -0.1190 -0.3023  0.1984
    1SAPS   C28   51   2.344   4.080  10.235 -0.0786 -0.7663 -0.3231
    1SAPS   H8R   52   2.303   4.119  10.330 -2.1176 -1.0234 -1.0648
    1SAPS   C29   53   2.332   4.154  10.121 -0.3731  1.0850  0.1541
    1SAPS   H9R   54   2.281   4.251  10.129 -0.5703  1.0397 -0.5088
    1SAPS  C210   55   2.370   4.105   9.977 -0.7769 -0.4454 -0.4011
    1SAPS  H10R   56   2.279   4.076   9.922 -1.3376 -0.1408  0.3570
    1SAPS  H10S   57   2.435   4.015   9.979 -1.9680 -1.2954  0.8340
    1SAPS  C211   58   2.409   4.227   9.896 -0.3501  0.4989  0.4020
    1SAPS  H11R   59   2.377   4.327   9.930  2.3457  1.1217  1.2125
    1SAPS  C212   60   2.498   4.224   9.798 -0.3332  0.2655  0.7239
    1SAPS  H12R   61   2.516   4.310   9.732 -0.4507 -0.2602 -0.0003
    1SAPS  C213   62   2.555   4.095   9.745  0.1021  0.0935  0.4218
    1SAPS  H13R   63   2.476   4.048   9.684  0.1889  0.3807  0.0863
    1SAPS  H13S   64   2.578   4.030   9.832  1.0346  0.3322  0.3590
    1SAPS  C214   65   2.668   4.108   9.655 -0.6888 -0.4556 -0.4303
    1SAPS  H14R   66   2.758   4.072   9.707 -1.8770 -2.8100  0.0919
    1SAPS  C215   67   2.664   4.157   9.528 -0.9997  0.1102 -0.8799
    1SAPS  H15R   68   2.754   4.168   9.465 -2.1623  0.8248 -2.4496
    1SAPS  C216   69   2.547   4.206   9.458 -0.3761 -0.2847 -0.2062
    1SAPS  H16R   70   2.555   4.317   9.464  2.5528 -0.5462  1.2727
    1SAPS  H16S   71   2.451   4.170   9.501 -0.5844 -0.7738 -1.0592
    1SAPS  C217   72   2.547   4.154   9.312 -0.2633  0.0714  0.0264
    1SAPS  H17R   73   2.452   4.188   9.267  0.4257 -1.5447 -2.7569
    1SAPS  H17S   74   2.551   4.043   9.303 -1.6697 -0.1428  1.6257
    1SAPS  C218   75   2.660   4.203   9.218  0.1222 -0.2084 -0.6533
    1SAPS  H18R   76   2.764   4.173   9.239  0.3489  0.6780 -0.5102
    1SAPS  H18S   77   2.670   4.313   9.227  1.6404 -0.2005 -2.2115
    1SAPS  C219   78   2.634   4.160   9.070  0.6478 -0.1256 -0.3191
    1SAPS  H19R   79   2.713   4.210   9.011 -0.0124  1.3370  0.0054
    1SAPS  H19S   80   2.538   4.200   9.033  0.0448 -2.1890 -1.0952
    1SAPS  C220   81   2.622   4.012   9.039 -0.1573  0.7059  0.5279
    1SAPS  H20R   82   2.687   3.934   9.085 -2.1323 -1.7045 -0.6547
    1SAPS  H20S   83   2.638   4.008   8.929  1.5556  1.0318  0.7478
    1SAPS  H20T   84   2.524   3.970   9.070  0.2123  0.1902  1.0079
    1SAPS   C33   85   2.762   4.221  10.295  0.1617 -0.2060  0.2370
    1SAPS   H3X   86   2.821   4.309  10.328 -1.2194  0.2100  1.6692
    1SAPS   H3Y   87   2.665   4.267  10.265 -1.2970 -1.9944  2.0756
    1SAPS   C34   88   2.835   4.173  10.168 -0.8177 -0.0929 -0.6963
    1SAPS   H4X   89   2.935   4.155  10.214 -0.6235  2.3622 -0.0804
    1SAPS   H4Y   90   2.844   4.252  10.090 -0.8730 -1.0618 -1.6846
    1SAPS   C35   91   2.769   4.057  10.102  0.5513  0.3809 -0.3190
    1SAPS   H5X   92   2.661   4.074  10.081  0.6533  0.1867 -1.0145
    1SAPS   H5Y   93   2.766   3.973  10.174 -0.4143  0.6450 -0.0314
    1SAPS   C36   94   2.831   4.010   9.972  0.1878  0.5129 -0.4215
    1SAPS   H6X   95   2.942   4.015   9.978  0.2623 -1.0212 -0.3077
    1SAPS   H6Y   96   2.784   4.078   9.898 -2.2931 -1.7395 -1.0226
    1SAPS   C37   97   2.797   3.867   9.935  0.6988 -0.8815  0.0481
    1SAPS   H7X   98   2.687   3.856   9.923  0.4220 -0.3530  1.9805
    1SAPS   H7Y   99   2.831   3.794  10.012  2.5321 -1.6443 -1.4411
    1SAPS   C38  100   2.869   3.827   9.806 -0.0708 -0.4998  0.0372
    1SAPS   H8X  101   2.974   3.810   9.838  0.3412 -1.0192 -1.5481
    1SAPS   H8Y  102   2.874   3.911   9.733 -3.9203  0.0072  0.2684
    1SAPS   C39  103   2.812   3.702   9.745  0.2812 -0.0924  0.2115
    1SAPS   H9X  104   2.734   3.742   9.677  2.9812  0.7626 -2.5041
    1SAPS   H9Y  105   2.755   3.648   9.824  3.6769 -1.3167  1.9559
    1SAPS  C310  106   2.900   3.596   9.680  0.4424 -0.7473  0.1584
    1SAPS  H10X  107   2.834   3.520   9.633  0.8279 -1.2207  0.3688
    1SAPS  H10Y  108   2.959   3.549   9.762 -0.7717 -1.4916  0.6188
    1SAPS  C311  109   3.002   3.650   9.587  0.0342 -0.4655 -0.2097
    1SAPS  H11X  110   3.070   3.567   9.556 -1.6243 -1.5180 -1.1469
    1SAPS  H11Y  111   3.057   3.738   9.625 -1.0717  0.9403 -1.8088
    1SAPS  C312  112   2.924   3.687   9.458 -0.2259  0.6477 -0.2610
    1SAPS  H12X  113   2.846   3.763   9.479 -2.2480 -0.6404 -2.8878
    1SAPS  H12Y  114   2.864   3.604   9.415  0.0077  0.6459 -0.5866
    1SAPS  C313  115   3.010   3.738   9.345 -0.4245  0.5205 -0.2125
    1SAPS  H13X  116   3.085   3.661   9.319 -1.0035 -0.2873  0.4575
    1SAPS  H13Y  117   3.066   3.830   9.374  0.0475 -0.0306  0.6272
    1SAPS  C314  118   2.936   3.757   9.209  0.1260 -0.3985 -0.0799
    1SAPS  H14X  119   2.870   3.846   9.200  1.9443  0.9487 -0.5683
    1SAPS  H14Y  120   2.878   3.670   9.174 -0.4915  0.0549 -0.1902
    1SAPS  C315  121   3.036   3.798   9.090  0.7233 -0.5190  0.1598
    1SAPS  H15X  122   3.079   3.702   9.056  2.4857 -0.2027  1.4345
    1SAPS  H15Y  123   3.112   3.868   9.130  0.5997 -0.9394  1.1454
    1SAPS  C316  124   2.956   3.871   8.975 -0.5785 -0.0130 -0.0729
    1SAPS  H16X  125   2.951   3.979   9.003  0.1678  0.8192 -2.9712
    1SAPS  H16Y  126   2.851   3.838   8.966 -1.4295  2.7461 -0.8571
    1SAPS  C317  127   3.015   3.853   8.826  0.1542 -0.5979 -0.6531
    1SAPS  H17X  128   2.956   3.919   8.759 -3.0524 -1.8198  0.8168
    1SAPS  H17Y  129   2.986   3.748   8.804  2.1446 -1.1845 -0.4978
    1SAPS  C318  130   3.166   3.871   8.808  0.3371 -0.8561  0.1639
    1SAPS  H18X  131   3.200   3.970   8.843  1.9131 -0.5778 -2.0708
    1SAPS  H18Y  132   3.187   3.873   8.699  1.2259 -0.1535  0.3446
    1SAPS  H18Z  133   3.230   3.790   8.852  1.5932  0.4595  0.7977
    2SAPS     N  134   0.338   4.157  10.962  0.2097  0.6288 -0.3740
    2SAPS   HN1  135   0.265   4.117  10.899 -0.5424 -0.8219  1.3741
    2SAPS   HN2  136   0.365   4.082  11.029 -0.4953  1.7948  1.2600
    2SAPS   HN3  137   0.286   4.236  11.006 -0.9961  0.8419 -2.1216
    2SAPS   C12  138   0.457   4.221  10.904  0.2125 -0.7536 -0.6585
    2SAPS  H12A  139   0.514   4.258  10.988  0.1810  0.5299 -1.1962
    2SAPS   C13  140   0.558   4.131  10.833 -0.8034 -0.3450 -0.2695
    2SAPS  O13A  141   0.540   4.009  10.822 -0.2757  0.1135 -0.2738
    2SAPS  O13B  142   0.673   4.177  10.804 -0.9573  0.0843 -0.4128
    2SAPS   C11  143   0.426   4.342  10.808  0.4435  0.1179  0.8086
    2SAPS  H11A  144   0.387   4.305  10.710  4.0320  1.0156 -1.0469
    2SAPS  H11B  145   0.524   4.395  10.800 -0.0912  0.9273 -0.5919
    2SAPS     P  146   0.230   4.512  10.792  0.4216 -0.0631 -0.2956
    2SAPS   O13  147   0.135   4.413  10.738  0.4344 -0.1556 -0.5577
    2SAPS   O14  148   0.167   4.596  10.898  0.2664  0.0888  0.8969
    2SAPS   O12  149   0.336   4.434  10.869  0.0809 -0.0194  0.7013
    2SAPS   O11  150   0.317   4.581  10.680 -0.9148 -0.2366  0.1129
    2SAPS    C1  151   0.416   4.677  10.707 -0.8684 -0.7287  0.1714
    2SAPS    HA  152   0.377   4.775  10.740 -0.6499 -0.1629 -1.2357
    2SAPS    HB  153   0.492   4.643  10.781 -0.5487  1.0465  0.6865
    2SAPS    C2  154   0.496   4.703  10.579 -0.2248 -0.4703  0.4190
    2SAPS    HS  155   0.552   4.799  10.587  0.4730 -0.7246 -1.1897
    2SAPS   O21  156   0.420   4.704  10.455  0.4307  0.1838 -0.1410
    2SAPS   C21  157   0.312   4.774  10.453 -0.4963 -1.3737  0.0259
    2SAPS   O22  158   0.275   4.855  10.537 -0.0758  0.1057  0.4669
    2SAPS   C22  159   0.240   4.732  10.323  0.1067  0.4594  0.2217
    2SAPS   H2R  160   0.296   4.664  10.255 -0.6799 -2.8251  2.7006
    2SAPS   H2S  161   0.150   4.673  10.353 -0.1974  0.2411 -1.0769
    2SAPS    C3  162   0.614   4.598  10.560  0.1039  0.4614  0.2332
    2SAPS    HX  163   0.567   4.498  10.574  0.3389  0.2937 -0.1804
    2SAPS    HY  164   0.686   4.611  10.644  0.1492  2.0327 -0.0355
    2SAPS   O31  165   0.699   4.600  10.444 -0.1810 -0.7870  0.2812
    2SAPS   C31  166   0.820   4.674  10.445  0.3001  0.3789  0.9554
    2SAPS   O32  167   0.864   4.741  10.534 -0.3040  0.6914  0.4602
    2SAPS   C32  168   0.881   4.671  10.307  0.0336  0.1946  0.7394
    2SAPS   H2X  169   0.974   4.732  10.309 -0.6045  1.2705 -1.2522
    2SAPS   H2Y  170   0.815   4.707  10.225  0.1565 -3.2038 -0.9143
    2SAPS   C23  171   0.198   4.866  10.248  0.3897  0.4252 -0.0408
    2SAPS   H3R  172   0.127   4.921  10.314 -1.4040 -1.5106 -0.3115
    2SAPS   H3S  173   0.132   4.844  10.161  1.7893 -0.4518 -0.8938
    2SAPS   C24  174   0.310   4.939  10.183 -0.2015  0.1741  0.0067
    2SAPS   H4R  175   0.270   5.003  10.102 -0.7860  0.3656  0.4487
    2SAPS   H4S  176   0.373   4.855  10.148  0.7188  0.5722  0.7036
    2SAPS   C25  177   0.374   5.033  10.281  0.6113  0.2900 -0.5335
    2SAPS   H5R  178   0.298   5.093  10.335 -0.4957  0.1321 -1.8677
    2SAPS   C26  179   0.502   5.038  10.315 -0.3208 -0.3260  0.1887
    2SAPS   H6R  180   0.534   5.109  10.393  0.2416  1.9623 -2.0474
    2SAPS   C27  181   0.615   4.958  10.258 -0.7415 -0.2511  0.5314
    2SAPS   H7R  182   0.577   4.896  10.174  2.0409  1.5001 -2.1170
    2SAPS   H7S  183   0.652   4.889  10.337 -1.0788 -1.3132 -0.2265
    2SAPS   C28  184   0.746   5.021  10.213 -0.0718 -0.6187  0.7994
    2SAPS   H8R  185   0.814   5.042  10.297  1.0144  0.6713 -0.3789
    2SAPS   C29  186   0.786   5.046  10.091 -0.0517  0.5138 -0.8305
    2SAPS   H9R  187   0.881   5.100  10.082 -0.0685  1.0304  1.7764
    2SAPS  C210  188   0.715   5.014   9.965 -0.7838 -0.0102  0.3701
    2SAPS  H10R  189   0.731   5.094   9.889 -1.8906  1.2492  1.4511
    2SAPS  H10S  190   0.605   5.026   9.968 -0.6105  1.4355  1.4809
    2SAPS  C211  191   0.758   4.883   9.910  0.6793 -0.5459  0.2533
    2SAPS  H11R  192   0.751   4.799   9.981  1.1096  0.5946  1.6420
    2SAPS  C212  193   0.798   4.866   9.780 -0.4369 -0.2547 -0.4033
    2SAPS  H12R  194   0.838   4.767   9.751  0.0246  0.0069 -0.6628
    2SAPS  C213  195   0.807   4.970   9.671 -0.1872 -0.3203  0.0912
    2SAPS  H13R  196   0.860   4.922   9.586  0.3272 -1.6169  1.1484
    2SAPS  H13S  197   0.866   5.060   9.698 -0.6708  0.5041 -1.5345
    2SAPS  C214  198   0.669   5.015   9.629 -0.0508  0.0396  0.3099
    2SAPS  H14R  199   0.589   5.012   9.705 -1.7607  0.0627 -1.4316
    2SAPS  C215  200   0.641   5.066   9.509  0.2912 -0.0498 -0.1836
    2SAPS  H15R  201   0.533   5.070   9.487  0.4789  0.7282 -1.0038
    2SAPS  C216  202   0.734   5.087   9.393  0.1533  0.4118 -1.4348
    2SAPS  H16R  203   0.836   5.068   9.432 -0.6637 -2.2009 -0.4420
    2SAPS  H16S  204   0.717   5.193   9.363  1.0017  1.1610  0.6017
    2SAPS  C217  205   0.701   4.996   9.271 -0.0500  1.3195 -0.3887
    2SAPS  H17R  206   0.605   5.026   9.223 -1.2388 -0.3188  0.8678
    2SAPS  H17S  207   0.685   4.893   9.309 -0.7806  1.9003  0.9354
    2SAPS  C218  208   0.820   4.991   9.167 -0.7672 -0.0620  0.2759
    2SAPS  H18R  209   0.793   4.929   9.079  1.6847  1.0431 -1.3067
    2SAPS  H18S  210   0.906   4.943   9.218 -1.2594 -1.1276  0.1126
    2SAPS  C219  211   0.848   5.134   9.108 -0.0066 -0.8392  0.0527
    2SAPS  H19R  212   0.944   5.133   9.051 -1.0493 -0.9390 -1.7660
    2SAPS  H19S  213   0.862   5.206   9.191  0.5666 -0.0986 -0.6741
    2SAPS  C220  214   0.722   5.176   9.031  0.1273  0.0353  0.0972
    2SAPS  H20R  215   0.681   5.095   8.967 -2.0981  0.9441  0.3499
    2SAPS  H20S  216   0.748   5.266   8.972  1.9985 -1.4621 -1.4421
    2SAPS  H20T  217   0.643   5.203   9.104 -1.1190 -0.5755 -1.0121
    2SAPS   C33  218   0.898   4.529  10.259 -0.3694 -0.4365 -0.1179
    2SAPS   H3X  219   0.811   4.466  10.288 -2.5945  2.1332 -1.0053
    2SAPS   H3Y  220   0.986   4.477  10.301 -1.0983 -1.4648  0.1563
    2SAPS   C34  221   0.922   4.514  10.107  0.1315  0.2915 -0.1282
    2SAPS   H4X  222   0.838   4.551  10.045  1.7334  0.0206 -2.4977
    2SAPS   H4Y  223   0.920   4.404  10.093 -0.0372 -0.0052  2.0463
    2SAPS   C35  224   1.057   4.557  10.058 -0.6660  0.5851 -1.5210
    2SAPS   H5X  225   1.137   4.521  10.125 -1.5412  2.4243  0.6103
    2SAPS   H5Y  226   1.055   4.668  10.052 -0.1292  0.6004 -1.3846
    2SAPS   C36  227   1.101   4.494   9.923 -0.2873  0.3990  0.2929
    2SAPS   H6X  228   1.095   4.384   9.927  1.6167  0.3049  1.4333
    2SAPS   H6Y  229   1.207   4.518   9.899 -0.2560 -0.0795 -0.0401
    2SAPS   C37  230   1.017   4.542   9.803 -0.5262 -0.2059 -0.3881
    2SAPS   H7X  231   1.031   4.651   9.785  0.3692 -0.2652 -0.0898
    2SAPS   H7Y  232   0.911   4.511   9.817 -1.3416  2.8897  0.8085
    2SAPS   C38  233   1.069   4.473   9.675 -0.1590 -0.1903 -0.2524
    2SAPS   H8X  234   1.082   4.364   9.692  0.8800 -0.3821 -2.2135
    2SAPS   H8Y  235   1.166   4.515   9.643 -0.2497  0.4485  0.3088
    2SAPS   C39  236   0.960   4.486   9.562  0.2413 -0.5633 -0.6242
    2SAPS   H9X  237   0.923   4.590   9.569  1.9507  0.0395 -0.2679
    2SAPS   H9Y  238   0.881   4.413   9.590 -0.5401  0.3625 -0.4187
    2SAPS  C310  239   1.013   4.466   9.419 -0.2820  0.7089  0.8331
    2SAPS  H10X  240   0.920   4.451   9.359  0.3569  0.9220 -0.2078
    2SAPS  H10Y  241   1.078   4.376   9.414 -1.0003  0.1821  0.7085
    2SAPS  C311  242   1.088   4.590   9.361  0.4515  0.1088 -0.0890
    2SAPS  H11X  243   1.183   4.612   9.415 -0.0956 -0.4740  1.1209
    2SAPS  H11Y  244   1.023   4.678   9.376 -0.0494 -0.0233 -1.3876
    2SAPS  C312  245   1.128   4.595   9.205  0.1920  0.8076 -0.1288
    2SAPS  H12X  246   1.033   4.606   9.150  0.5748  0.8781 -0.7780
    2SAPS  H12Y  247   1.166   4.494   9.180  2.1617  1.5231 -0.1247
    2SAPS  C313  248   1.220   4.713   9.180 -0.3137  0.5962  0.5425
    2SAPS  H13X  249   1.320   4.686   9.218 -1.1548 -2.2236  0.8423
    2SAPS  H13Y  250   1.180   4.786   9.254 -0.7277  0.7981  0.1241
    2SAPS  C314  251   1.218   4.768   9.034  0.1344  0.5403  0.3710
    2SAPS  H14X  252   1.117   4.808   9.011  0.1948 -0.6872 -2.2051
    2SAPS  H14Y  253   1.247   4.677   8.976  0.3561 -0.2111  1.6468
    2SAPS  C315  254   1.317   4.885   9.008  0.8104  0.1702  0.7836
    2SAPS  H15X  255   1.418   4.851   9.040  0.6026 -0.4256  0.8071
    2SAPS  H15Y  256   1.299   4.977   9.067  0.9334  2.2308 -2.2783
    2SAPS  C316  257   1.312   4.923   8.863  0.2478 -0.0767 -0.5699
    2SAPS  H16X  258   1.212   4.970   8.853 -0.2858 -0.6974  1.4181
    2SAPS  H16Y  259   1.304   4.840   8.789 -0.0780  0.6138 -1.3147
    2SAPS  C317  260   1.424   5.024   8.821 -0.7264  0.3249  0.0651
    2SAPS  H17X  261   1.419   5.034   8.711 -2.6470 -0.1268  0.0924
    2SAPS  H17Y  262   1.523   4.986   8.853 -1.5379 -0.7227  1.4323
    2SAPS  C318  263   1.402   5.155   8.893 -0.6746  0.1696 -0.0770
    2SAPS  H18X  264   1.296   5.190   8.894 -0.9619 -0.6926  0.3456
    2SAPS  H18Y  265   1.464   5.231   8.841 -0.7002 -0.6315 -1.3151
    2SAPS  H18Z  266   1.434   5.150   8.999 -1.1387  3.5013  0.2822
    3SAPS     N  267   1.055   0.221  10.841  0.4458 -0.2310  0.0637
    3SAPS   HN1  268   0.985   0.258  10.909 -0.3583 -2.2968  0.4036
    3SAPS   HN2  269   1.112   0.302  10.813 -1.1969  1.5223  1.6195
    3SAPS   HN3  270   1.001   0.197  10.755  0.7689 -0.1271 -0.1669
    3SAPS   C12  271   1.139   0.101  10.894 -0.1155  0.0264  0.6831
    3SAPS  H12A  272   1.205   0.075  10.812 -0.8605  0.7864 -0.1723
    3SAPS   C13  273   1.233   0.141  11.013 -0.8831 -0.6933 -0.5983
    3SAPS  O13A  274   1.259   0.262  11.041  0.0635 -0.2915  0.5382
    3SAPS  O13B  275   1.306   0.047  11.053 -0.5003 -0.9305  0.2897
    3SAPS   C11  276   1.040   0.003  10.961  0.6268 -0.0465  0.0309
    3SAPS  H11A  277   0.989   0.059  11.043  0.8632  0.9745 -0.5057
    3SAPS  H11B  278   1.099  -0.081  11.004 -2.0184 -0.7989  2.2992
    3SAPS     P  279   0.858  -0.165  10.866  0.0811  0.4417  0.1456
    3SAPS   O13  280   0.890  -0.237  10.989  0.6367  0.8127 -0.2884
    3SAPS   O14  281   0.714  -0.148  10.838 -0.2620 -0.3205  0.5270
    3SAPS   O12  282   0.934  -0.026  10.867 -0.0870 -0.2404  0.7384
    3SAPS   O11  283   0.923  -0.242  10.743 -0.2746 -0.2543  0.0850
    3SAPS    C1  284   0.999  -0.188  10.639  0.8431  0.7443  0.3194
    3SAPS    HA  285   1.033  -0.083  10.647  0.4656  0.8275  0.8471
    3SAPS    HB  286   1.081  -0.262  10.625  0.2889  0.1125  0.3681
    3SAPS    C2  287   0.916  -0.211  10.507 -0.4406 -0.0406  0.2659
    3SAPS    HS  288   0.983  -0.189  10.421 -1.5437 -0.3538 -0.6864
    3SAPS   O21  289   0.793  -0.140  10.510 -0.6172 -0.4241  0.6088
    3SAPS   C21  290   0.752  -0.110  10.381  0.5835  0.3581  0.6529
    3SAPS   O22  291   0.822  -0.128  10.281  0.2024 -0.1653  0.5777
    3SAPS   C22  292   0.609  -0.061  10.380  0.1261  0.0133 -0.0118
    3SAPS   H2R  293   0.537  -0.146  10.379 -1.1445  1.0772 -0.4517
    3SAPS   H2S  294   0.598  -0.017  10.482 -0.4284 -1.0975  0.4230
    3SAPS    C3  295   0.876  -0.363  10.486  0.0118 -0.5214  0.0707
    3SAPS    HX  296   0.810  -0.384  10.573 -1.1709  2.1183 -0.1274
    3SAPS    HY  297   0.965  -0.427  10.504 -0.9543 -1.1178  2.9749
    3SAPS   O31  298   0.819  -0.393  10.352 -0.0145  0.3665  0.4485
    3SAPS   C31  299   0.902  -0.412  10.250 -0.5154  0.1235  0.6126
    3SAPS   O32  300   1.022  -0.427  10.258 -0.2537 -0.0076  0.2707
    3SAPS   C32  301   0.821  -0.419  10.118  0.0094  0.7044  0.3832
    3SAPS   H2X  302   0.797  -0.312  10.100  2.2143  0.9268 -1.5180
    3SAPS   H2Y  303   0.722  -0.465  10.141 -1.2375  2.9985 -0.1967
    3SAPS   C23  304   0.578   0.050  10.286  0.7504 -0.7356  1.7690
    3SAPS   H3R  305   0.471   0.077  10.295  0.8383 -0.2351  1.2961
    3SAPS   H3S  306   0.591   0.002  10.187  1.6978  1.2685  0.8877
    3SAPS   C24  307   0.654   0.183  10.304  0.3008  0.3959 -1.0121
    3SAPS   H4R  308   0.759   0.157  10.276  0.8315  1.2259  0.1536
    3SAPS   H4S  309   0.651   0.227  10.406 -0.2914  1.1105 -1.3304
    3SAPS   C25  310   0.602   0.284  10.205  0.3096  0.5235 -0.5034
    3SAPS   H5R  311   0.518   0.342  10.246  0.4704 -0.1977  0.8479
    3SAPS   C26  312   0.628   0.299  10.070 -0.2115  0.2072 -0.3765
    3SAPS   H6R  313   0.573   0.377  10.015 -0.7511 -1.5043 -2.3090
    3SAPS   C27  314   0.728   0.226   9.983  0.7176  0.4945  0.0365
    3SAPS   H7R  315   0.689   0.212   9.880  2.3840  0.3155 -0.5947
    3SAPS   H7S  316   0.735   0.122  10.023  3.6155 -0.1731 -2.0069
    3SAPS   C28  317   0.863   0.284   9.985 -0.2650  0.2979 -0.3376
    3SAPS   H8R  318   0.919   0.272  10.080  1.6413  0.4032 -1.4273
    3SAPS   C29  319   0.931   0.343   9.888 -0.2748  0.3501 -0.0916
    3SAPS   H9R  320   1.036   0.376   9.891 -0.4938  1.2579 -1.7696
    3SAPS  C210  321   0.880   0.368   9.745  0.4515 -0.0088  0.0659
    3SAPS  H10R  322   0.916   0.468   9.713  2.9095  0.3053  3.5270
    3SAPS  H10S  323   0.770   0.384   9.735  0.3868 -0.6813 -0.3169
    3SAPS  C211  324   0.929   0.270   9.640  0.5229  0.4364 -0.6401
    3SAPS  H11R  325   1.010   0.201   9.670 -0.4768 -1.4757 -2.2723
    3SAPS  C212  326   0.897   0.257   9.514 -0.7416 -0.0529  0.3566
    3SAPS  H12R  327   0.958   0.198   9.443 -0.9609  1.1716 -0.8639
    3SAPS  C213  328   0.798   0.348   9.452  0.6103 -0.1617  0.2326
    3SAPS  H13R  329   0.818   0.455   9.470 -2.0281  0.3279  0.3545
    3SAPS  H13S  330   0.697   0.344   9.497 -0.3578  0.3470 -1.8267
    3SAPS  C214  331   0.786   0.345   9.301 -0.5761  0.8676 -0.1530
    3SAPS  H14R  332   0.683   0.320   9.271 -0.0127 -1.0049 -0.5987
    3SAPS  C215  333   0.877   0.383   9.208  0.2998  0.1639  1.0413
    3SAPS  H15R  334   0.850   0.374   9.102  1.1557  1.5408  0.6936
    3SAPS  C216  335   1.012   0.427   9.228 -0.6163 -0.4438 -0.5844
    3SAPS  H16R  336   1.036   0.457   9.332 -0.0545  1.4280 -1.2386
    3SAPS  H16S  337   1.020   0.520   9.168  0.0727 -0.4111 -0.4383
    3SAPS  C217  338   1.111   0.328   9.185 -0.3217  0.7032  0.3033
    3SAPS  H17R  339   1.087   0.290   9.083  2.3121  0.6634 -0.3416
    3SAPS  H17S  340   1.130   0.249   9.260  1.1788  1.4214  0.6854
    3SAPS  C218  341   1.252   0.396   9.162  0.7907  0.1124 -0.0050
    3SAPS  H18R  342   1.290   0.415   9.265  1.4745  0.5187 -0.3293
    3SAPS  H18S  343   1.247   0.489   9.101  1.9222  0.3921  0.3155
    3SAPS  C219  344   1.345   0.294   9.097  0.7970  0.4371  0.3345
    3SAPS  H19R  345   1.292   0.229   9.023  0.8182  0.2320  0.4972
    3SAPS  H19S  346   1.372   0.219   9.175  0.5898 -0.2755 -0.2683
    3SAPS  C220  347   1.465   0.358   9.031  0.0019  0.2096  0.0762
    3SAPS  H20R  348   1.508   0.296   8.949 -0.7541  1.2183 -1.0921
    3SAPS  H20S  349   1.540   0.393   9.106  0.2213 -0.8097  0.3552
    3SAPS  H20T  350   1.435   0.448   8.974 -1.3808 -1.2444 -1.5106
    3SAPS   C33  351   0.900  -0.496  10.007  0.1785 -0.3563 -0.1426
    3SAPS   H3X  352   0.878  -0.603  10.026  2.2598 -0.5301  1.4045
    3SAPS   H3Y  353   1.011  -0.487  10.009 -0.0438  2.9600 -1.0098
    3SAPS   C34  354   0.861  -0.454   9.870  0.5069 -0.1835 -0.1436
    3SAPS   H4X  355   0.750  -0.452   9.878  0.4668 -1.1208 -0.3916
    3SAPS   H4Y  356   0.880  -0.534   9.795 -0.8937 -1.0155  0.3446
    3SAPS   C35  357   0.916  -0.324   9.825 -0.2221  0.0377  0.6937
    3SAPS   H5X  358   1.026  -0.323   9.809 -0.2549 -0.0146  0.4655
    3SAPS   H5Y  359   0.882  -0.246   9.896 -3.0725  1.0944 -1.6802
    3SAPS   C36  360   0.861  -0.287   9.683 -0.2683 -0.1901 -0.3667
    3SAPS   H6X  361   0.857  -0.177   9.670  1.5288 -0.1993 -1.1862
    3SAPS   H6Y  362   0.762  -0.338   9.676  0.4245 -1.5609 -0.4759
    3SAPS   C37  363   0.955  -0.351   9.571  0.1476 -0.3429 -0.4152
    3SAPS   H7X  364   0.930  -0.460   9.573  0.1979 -0.3516 -0.2254
    3SAPS   H7Y  365   1.061  -0.332   9.597  0.0248  3.4305 -2.3935
    3SAPS   C38  366   0.929  -0.292   9.433  0.2027 -0.4713 -0.4343
    3SAPS   H8X  367   0.972  -0.190   9.433  2.8428 -1.5373  0.9267
    3SAPS   H8Y  368   0.821  -0.291   9.407  0.1897 -0.5419 -0.3833
    3SAPS   C39  369   1.001  -0.375   9.319  1.0874  0.9185  0.2792
    3SAPS   H9X  370   0.963  -0.478   9.336  2.0942  0.9015  2.6444
    3SAPS   H9Y  371   1.108  -0.357   9.341  0.9492  1.4280  0.5383
    3SAPS  C310  372   0.970  -0.343   9.176 -0.0161  0.2347  0.4219
    3SAPS  H10X  373   1.013  -0.242   9.156  0.0932  0.4122  1.5170
    3SAPS  H10Y  374   0.862  -0.332   9.156 -0.2151 -2.8264 -0.3858
    3SAPS  C311  375   1.024  -0.454   9.082  0.0643 -0.5190 -0.1132
    3SAPS  H11X  376   0.971  -0.547   9.112 -0.0363 -0.5291 -0.3191
    3SAPS  H11Y  377   1.133  -0.464   9.103  0.3021  1.8601 -0.0274
    3SAPS  C312  378   1.001  -0.414   8.934  0.4035 -0.3515 -0.2827
    3SAPS  H12X  379   1.043  -0.311   8.927 -1.8613  0.4867 -2.2984
    3SAPS  H12Y  380   0.892  -0.408   8.913  0.2392  0.0519  0.7035
    3SAPS  C313  381   1.072  -0.512   8.839  0.1642  0.1716 -0.2841
    3SAPS  H13X  382   1.178  -0.509   8.871  0.3624  0.4456 -0.9598
    3SAPS  H13Y  383   1.061  -0.487   8.731 -0.6275 -1.2699 -0.5667
    3SAPS  C314  384   1.025  -0.662   8.844  0.2202 -0.4088  0.5155
    3SAPS  H14X  385   0.915  -0.664   8.832  0.1673 -0.2131  0.9434
    3SAPS  H14Y  386   1.045  -0.705   8.945 -1.1154  0.0137  0.9691
    3SAPS  C315  387   1.096  -0.751   8.738 -0.8592  0.4612  0.3436
    3SAPS  H15X  388   1.206  -0.745   8.746 -1.0687  2.4035  2.2983
    3SAPS  H15Y  389   1.074  -0.703   8.640 -0.0279  1.2701  0.5434
    3SAPS  C316  390   1.046  -0.896   8.740  0.0972 -0.1917  0.1064
    3SAPS  H16X  391   0.941  -0.885   8.706  1.6204  1.1809 -4.4698
    3SAPS  H16Y  392   1.046  -0.930   8.846 -3.9748  0.0023  0.2342
    3SAPS  C317  393   1.098  -0.987   8.628 -0.1153  0.0126 -0.0304
    3SAPS  H17X  394   1.209  -0.978   8.629 -0.2174  1.4556 -1.1581
    3SAPS  H17Y  395   1.074  -0.958   8.524  1.4373  0.5135 -0.2669
    3SAPS  C318  396   1.042  -1.128   8.631  0.1114  0.2301  0.8524
    3SAPS  H18X  397   1.102  -1.192   8.563 -0.7919  0.3158 -0.0239
    3SAPS  H18Y  398   0.940  -1.134   8.587  0.0463 -0.6936  1.1132
    3SAPS  H18Z  399   1.046  -1.171   8.734 -2.5667  0.9320  1.2779
    4SAPS     N  400   3.197   0.329  10.926 -0.7864  0.3295 -0.0940
    4SAPS   HN1  401   3.094   0.318  10.910 -0.8229 -1.7245  1.2753
    4SAPS   HN2  402   3.245   0.339  10.835  0.1560  0.5843  0.4309
    4SAPS   HN3  403   3.222   0.235  10.963 -5.7041 -0.6877  1.0436
    4SAPS   C12  404   3.227   0.444  11.022  0.1491 -0.0098  0.2146
    4SAPS  H12A  405   3.166   0.527  10.991 -0.0647  0.2244  1.2640
    4SAPS   C13  406   3.194   0.403  11.173  0.3192  0.5266 -0.2237
    4SAPS  O13A  407   3.131   0.301  11.210 -0.4205  0.6500  0.0238
    4SAPS  O13B  408   3.212   0.503  11.251  0.4347 -0.1614 -0.1590
    4SAPS   C11  409   3.378   0.485  11.020 -0.1212 -0.3176  0.2227
    4SAPS  H11A  410   3.425   0.394  11.062  0.9437  1.2636  2.5550
    4SAPS  H11B  411   3.387   0.571  11.091  0.1542 -0.3989  0.2852
    4SAPS     P  412   3.540   0.617  10.869 -0.0246 -0.0888  0.0320
    4SAPS   O13  413   3.517   0.738  10.958  0.5847  0.3186  0.4032
    4SAPS   O14  414   3.668   0.549  10.887  0.2276 -0.4661 -0.5086
    4SAPS   O12  415   3.420   0.519  10.891  0.2317  0.0514  0.1639
    4SAPS   O11  416   3.532   0.666  10.719  0.1301  0.4959 -0.1109
    4SAPS    C1  417   3.483   0.574  10.620  0.7898  0.3305  1.2241
    4SAPS    HA  418   3.533   0.592  10.522 -1.2956 -3.8547 -0.7394
    4SAPS    HB  419   3.498   0.468  10.649 -0.8625  0.5314  2.8932
    4SAPS    C2  420   3.328   0.588  10.589  0.5037  0.4408  0.6000
    4SAPS    HS  421   3.277   0.577  10.686  0.5794  1.6863  0.7919
    4SAPS   O21  422   3.297   0.489  10.491  0.4033 -0.1425  0.1738
    4SAPS   C21  423   3.263   0.374  10.553  0.1395  0.1449  0.5082
    4SAPS   O22  424   3.276   0.349  10.677  0.1163 -0.0310 -1.0714
    4SAPS   C22  425   3.196   0.285  10.448  0.1360  0.1295  0.7726
    4SAPS   H2R  426   3.182   0.188  10.500 -1.9919  1.3086  2.4855
    4SAPS   H2S  427   3.092   0.324  10.437  1.0435  2.5196  0.2990
    4SAPS    C3  428   3.292   0.735  10.542 -0.3916 -0.2931  0.1544
    4SAPS    HX  429   3.321   0.801  10.627  1.1312 -1.3544  0.4674
    4SAPS    HY  430   3.184   0.739  10.518 -0.3174 -2.7233 -0.7220
    4SAPS   O31  431   3.379   0.763  10.428 -0.0739 -0.1968 -0.1746
    4SAPS   C31  432   3.331   0.768  10.310  1.1642 -0.0587 -0.4460
    4SAPS   O32  433   3.215   0.782  10.272 -0.2936 -0.5064  0.1911
    4SAPS   C32  434   3.439   0.748  10.205  0.1045 -0.1511 -0.1010
    4SAPS   H2X  435   3.416   0.649  10.159  2.1406 -0.4968 -0.4133
    4SAPS   H2Y  436   3.533   0.726  10.259  1.8033  1.4523 -2.3583
    4SAPS   C23  437   3.276   0.271  10.315  0.2925  0.2171 -0.7430
    4SAPS   H3R  438   3.313   0.367  10.275  1.8888  0.3068  0.9166
    4SAPS   H3S  439   3.210   0.237  10.232 -3.1915  1.6239  1.3259
    4SAPS   C24  440   3.392   0.169  10.315 -0.4840  0.5301  0.9887
    4SAPS   H4R  441   3.418   0.157  10.207 -0.6592 -0.8221  1.0896
    4SAPS   H4S  442   3.342   0.079  10.356  0.6192 -0.3923  0.3260
    4SAPS   C25  443   3.512   0.201  10.399 -0.5467  0.0062  0.3793
    4SAPS   H5R  444   3.527   0.137  10.487 -0.7279  0.3797  0.6833
    4SAPS   C26  445   3.603   0.293  10.374  0.3422  0.0967 -0.1765
    4SAPS   H6R  446   3.693   0.291  10.438 -0.9413  2.0408  1.7953
    4SAPS   C27  447   3.591   0.390  10.260 -0.0342 -0.8682 -0.5277
    4SAPS   H7R  448   3.549   0.489  10.288  1.4948 -0.5897  0.8661
    4SAPS   H7S  449   3.520   0.351  10.184 -2.2554 -0.3540  1.2415
    4SAPS   C28  450   3.722   0.411  10.198  0.0554 -0.3342  0.0125
    4SAPS   H8R  451   3.812   0.398  10.260 -0.0544  0.3280  0.3167
    4SAPS   C29  452   3.744   0.428  10.064  0.2214  0.0121  0.2028
    4SAPS   H9R  453   3.846   0.445  10.025  0.1201  0.1808  0.0099
    4SAPS  C210  454   3.648   0.430   9.950  0.2287 -0.0841  0.8762
    4SAPS  H10R  455   3.621   0.537   9.935 -2.6193 -0.7846  0.8198
    4SAPS  H10S  456   3.545   0.399   9.976 -0.7788  1.8996 -0.5968
    4SAPS  C211  457   3.696   0.344   9.839 -0.1841  0.0566 -0.4799
    4SAPS  H11R  458   3.744   0.253   9.877 -2.4067 -0.3859  1.3506
    4SAPS  C212  459   3.688   0.365   9.705 -0.3030  0.0616  0.0518
    4SAPS  H12R  460   3.747   0.298   9.640  0.5510  0.6857  0.1893
    4SAPS  C213  461   3.634   0.485   9.629  0.5856  0.4271 -0.4107
    4SAPS  H13R  462   3.581   0.552   9.700  0.5232  0.1576 -0.2034
    4SAPS  H13S  463   3.552   0.444   9.565  0.3350  0.3583 -0.0448
    4SAPS  C214  464   3.746   0.550   9.554 -0.3544 -0.1330  0.2714
    4SAPS  H14R  465   3.842   0.568   9.604 -0.0189 -1.6606  0.2040
    4SAPS  C215  466   3.735   0.578   9.421  0.1334 -0.3192 -0.4553
    4SAPS  H15R  467   3.812   0.638   9.370  0.7354 -0.3019  0.4663
    4SAPS  C216  468   3.613   0.561   9.332 -0.3708 -0.5620 -0.6183
    4SAPS  H16R  469   3.593   0.649   9.267  0.1005 -1.4320 -1.9647
    4SAPS  H16S  470   3.522   0.540   9.392 -0.2529  1.4591  0.3055
    4SAPS  C217  471   3.618   0.435   9.232 -0.3990  0.0593 -0.0287
    4SAPS  H17R  472   3.517   0.407   9.194  0.1191 -0.0584 -1.3367
    4SAPS  H17S  473   3.656   0.352   9.296 -0.4146  1.1257  1.3946
    4SAPS  C218  474   3.728   0.455   9.124  0.0329 -0.0887  0.3055
    4SAPS  H18R  475   3.828   0.443   9.171  1.0745  1.2610 -1.4687
    4SAPS  H18S  476   3.706   0.554   9.078  0.0843  0.5590  1.6377
    4SAPS  C219  477   3.720   0.357   9.009 -0.3458 -0.1806 -0.1390
    4SAPS  H19R  478   3.616   0.348   8.973 -0.6409  2.1249  0.1027
    4SAPS  H19S  479   3.744   0.255   9.047  2.0424  0.4250  0.0700
    4SAPS  C220  480   3.816   0.404   8.899 -0.1557  0.8539 -0.0543
    4SAPS  H20R  481   3.786   0.506   8.865  2.6981  2.5051  2.1811
    4SAPS  H20S  482   3.813   0.328   8.818  1.6897  0.6347  0.0668
    4SAPS  H20T  483   3.920   0.407   8.938 -0.9258 -0.6734  2.2236
    4SAPS   C33  484   3.455   0.867  10.117 -0.2652 -0.1209 -0.6403
    4SAPS   H3X  485   3.469   0.961  10.174  0.9095 -0.2391 -0.7159
    4SAPS   H3Y  486   3.360   0.876  10.061 -0.5299  0.3503 -0.1211
    4SAPS   C34  487   3.574   0.836  10.020 -0.7816  0.3336  1.0209
    4SAPS   H4X  488   3.566   0.731   9.984  0.2106  0.1208  1.4029
    4SAPS   H4Y  489   3.658   0.847  10.091  2.1081 -0.9751 -2.0766
    4SAPS   C35  490   3.577   0.928   9.897  0.6878 -0.0296  0.1202
    4SAPS   H5X  491   3.594   1.034   9.927  0.7795  0.4320 -1.4845
    4SAPS   H5Y  492   3.480   0.917   9.844  0.8983 -2.3811  0.1692
    4SAPS   C36  493   3.692   0.900   9.796  0.0077 -0.0396 -0.3009
    4SAPS   H6X  494   3.679   0.797   9.758 -0.1209 -1.6471  3.8465
    4SAPS   H6Y  495   3.782   0.901   9.862 -0.1280  0.6898 -0.1174
    4SAPS   C37  496   3.703   1.001   9.681  0.3086 -0.8865 -0.0246
    4SAPS   H7X  497   3.771   0.968   9.600 -0.3994 -2.9276  0.1968
    4SAPS   H7Y  498   3.752   1.091   9.725 -3.8656  0.6704  1.6687
    4SAPS   C38  499   3.574   1.047   9.629 -0.7366  0.0058 -0.1527
    4SAPS   H8X  500   3.535   1.118   9.705 -1.0532 -1.0876  0.7257
    4SAPS   H8Y  501   3.495   0.969   9.626 -1.0481  0.3481 -0.9755
    4SAPS   C39  502   3.589   1.109   9.489 -0.8003 -0.3595 -0.8923
    4SAPS   H9X  503   3.627   1.035   9.416  0.4878 -1.3792  0.7819
    4SAPS   H9Y  504   3.667   1.189   9.490 -0.9613 -0.1931  0.7967
    4SAPS  C310  505   3.462   1.179   9.427 -0.6780  0.1681 -0.4246
    4SAPS  H10X  506   3.424   1.257   9.496  0.8667 -0.0493  0.7133
    4SAPS  H10Y  507   3.389   1.099   9.404  0.8638 -1.2736 -0.4116
    4SAPS  C311  508   3.500   1.235   9.298  0.1687 -0.4937  0.3034
    4SAPS  H11X  509   3.580   1.171   9.255 -2.1173 -3.0579 -0.2931
    4SAPS  H11Y  510   3.543   1.336   9.315  0.0796 -0.2860 -0.6838
    4SAPS  C312  511   3.367   1.268   9.215 -0.2637  0.4937  0.2042
    4SAPS  H12X  512   3.339   1.372   9.242 -2.3228  0.1166 -0.4014
    4SAPS  H12Y  513   3.288   1.204   9.259  1.8694 -1.2765  1.5340
    4SAPS  C313  514   3.386   1.260   9.068 -0.1623 -0.7249  0.6227
    4SAPS  H13X  515   3.436   1.164   9.044  0.4930  0.2617 -2.2352
    4SAPS  H13Y  516   3.464   1.336   9.043 -0.7064 -1.1467 -2.5997
    4SAPS  C314  517   3.258   1.279   8.990  0.2190 -0.4295  0.5504
    4SAPS  H14X  518   3.215   1.380   9.005  2.1707  0.6833 -1.0558
    4SAPS  H14Y  519   3.183   1.202   9.020  0.4552 -1.2112 -0.8079
    4SAPS  C315  520   3.269   1.265   8.836 -0.8573  0.8197  0.6055
    4SAPS  H15X  521   3.300   1.162   8.807 -0.8963  0.7591  0.7806
    4SAPS  H15Y  522   3.341   1.337   8.792 -0.0859 -0.7076 -0.6750
    4SAPS  C316  523   3.143   1.272   8.748 -0.0177 -0.2339 -0.2638
    4SAPS  H16X  524   3.116   1.380   8.757  0.8969 -0.2282  3.5942
    4SAPS  H16Y  525   3.063   1.217   8.802 -1.8325  0.7083 -1.9278
    4SAPS  C317  526   3.150   1.215   8.604 -0.3135 -0.4437 -0.0136
    4SAPS  H17X  527   3.213   1.284   8.545 -0.6244  1.1237  1.4315
    4SAPS  H17Y  528   3.051   1.225   8.554 -0.1762  0.0685 -0.1876
    4SAPS  C318  529   3.204   1.076   8.602 -0.2023 -0.2117  0.2182
    4SAPS  H18X  530   3.315   1.079   8.597 -0.2785 -0.9018 -4.9956
    4SAPS  H18Y  531   3.170   1.031   8.506 -0.3473  1.0628 -0.3444
    4SAPS  H18Z  532   3.163   1.010   8.680 -1.7848  1.7534  1.1055
    5SAPS     N  533   0.536   0.203  11.001 -0.2525 -0.2813 -0.0399
    5SAPS   HN1  534   0.563   0.128  10.934 -0.3476 -1.1746  0.9122
    5SAPS   HN2  535   0.531   0.293  10.949  2.4507  0.1313  0.3316
    5SAPS   HN3  536   0.592   0.195  11.088  0.1028  3.1663  0.0954
    5SAPS   C12  537   0.395   0.170  11.049 -0.3816 -0.5533  0.6765
    5SAPS  H12A  538   0.373   0.064  11.055  2.1678 -1.2537 -1.3353
    5SAPS   C13  539   0.385   0.232  11.187  0.0171  0.0134  0.5131
    5SAPS  O13A  540   0.478   0.294  11.248  0.1770  0.1585  0.8901
    5SAPS  O13B  541   0.280   0.206  11.255  0.1228 -0.3371  0.1587
    5SAPS   C11  542   0.296   0.230  10.951  0.0763  0.1129 -0.8326
    5SAPS  H11A  543   0.314   0.340  10.951  3.7392 -0.4139 -0.0189
    5SAPS  H11B  544   0.196   0.209  10.995 -0.8801  1.8453 -2.0870
    5SAPS     P  545   0.224   0.031  10.790 -0.5016 -0.4681  0.1498
    5SAPS   O13  546   0.302  -0.050  10.694 -0.2297  0.2893  0.3184
    5SAPS   O14  547   0.168  -0.036  10.911 -0.5272  0.4847  0.2581
    5SAPS   O12  548   0.310   0.159  10.829 -0.1380  0.6531 -0.1409
    5SAPS   O11  549   0.094   0.089  10.713 -0.1604  0.6450  0.1312
    5SAPS    C1  550   0.089   0.228  10.672  0.2218 -0.1234 -0.2047
    5SAPS    HA  551   0.006   0.270  10.732  1.5072  2.4744 -0.1764
    5SAPS    HB  552   0.182   0.284  10.695  0.3287 -0.4667  0.2014
    5SAPS    C2  553   0.065   0.245  10.517 -0.2360  0.1647  0.2159
    5SAPS    HS  554   0.032   0.350  10.500  0.5794  0.0241 -2.5524
    5SAPS   O21  555  -0.034   0.153  10.464  0.4992  0.0704  0.2271
    5SAPS   C21  556  -0.150   0.183  10.508 -0.4614 -0.7800  0.6254
    5SAPS   O22  557  -0.181   0.276  10.580  0.1539  0.0023 -0.1637
    5SAPS   C22  558  -0.243   0.094  10.431  0.8530  0.5671 -0.7156
    5SAPS   H2R  559  -0.264   0.148  10.337 -0.3756 -2.5488 -2.3301
    5SAPS   H2S  560  -0.189   0.006  10.390  0.1657 -1.2808  2.2045
    5SAPS    C3  561   0.197   0.220  10.441  0.1049 -0.4384 -0.4245
    5SAPS    HX  562   0.225   0.122  10.484 -0.7735 -0.3997  0.2643
    5SAPS    HY  563   0.266   0.297  10.482  0.1750 -0.4904 -0.4475
    5SAPS   O31  564   0.186   0.228  10.297  0.2040 -0.1177  0.0334
    5SAPS   C31  565   0.171   0.123  10.226  0.3442 -0.0463  0.2189
    5SAPS   O32  566   0.163   0.009  10.263 -0.1111  0.2657  0.2280
    5SAPS   C32  567   0.163   0.165  10.079  0.2131 -0.8234 -0.3804
    5SAPS   H2X  568   0.109   0.262  10.075 -1.7331 -1.8882 -0.4964
    5SAPS   H2Y  569   0.092   0.095  10.031 -1.0891  0.6353 -0.6141
    5SAPS   C23  570  -0.373   0.056  10.504  0.2506 -0.3406  0.5043
    5SAPS   H3R  571  -0.397   0.143  10.569 -0.8370 -1.2217  1.3147
    5SAPS   H3S  572  -0.355  -0.035  10.565  0.1770 -1.7392 -1.5248
    5SAPS   C24  573  -0.487   0.037  10.408  0.0839  0.1291  0.3245
    5SAPS   H4R  574  -0.494   0.133  10.352 -1.2790  0.1112  0.4340
    5SAPS   H4S  575  -0.585   0.029  10.460 -0.7762  2.2235 -0.8649
    5SAPS   C25  576  -0.481  -0.075  10.303  0.5099  0.2024 -0.4630
    5SAPS   H5R  577  -0.490  -0.178  10.341 -0.6959  0.2711 -0.5452
    5SAPS   C26  578  -0.463  -0.060  10.172 -0.1690 -0.0243  0.1954
    5SAPS   H6R  579  -0.449  -0.149  10.110  2.3411  0.2611  0.2891
    5SAPS   C27  580  -0.439   0.081  10.101 -0.3989 -0.0618  0.4293
    5SAPS   H7R  581  -0.330   0.100  10.088 -0.3999  1.3562  2.3252
    5SAPS   H7S  582  -0.491   0.162  10.156 -0.4823 -0.6640  1.2487
    5SAPS   C28  583  -0.505   0.067   9.960  0.1539  0.5932 -0.0191
    5SAPS   H8R  584  -0.594   0.003   9.952 -1.0671  2.3873 -1.0244
    5SAPS   C29  585  -0.457   0.096   9.838 -1.1319 -0.3483 -0.7080
    5SAPS   H9R  586  -0.530   0.081   9.758 -1.5139  1.7022 -0.7734
    5SAPS  C210  587  -0.322   0.158   9.799  0.6301  0.3177  0.4326
    5SAPS  H10R  588  -0.241   0.127   9.869  1.6414 -2.7287 -1.9827
    5SAPS  H10S  589  -0.320   0.270   9.801 -2.3664  0.3903  0.8156
    5SAPS  C211  590  -0.275   0.105   9.665 -0.0473  0.3244 -0.6877
    5SAPS  H11R  591  -0.285  -0.002   9.643  3.5741 -0.2332  0.1826
    5SAPS  C212  592  -0.222   0.175   9.561  0.4782  0.2319 -0.3565
    5SAPS  H12R  593  -0.192   0.121   9.470 -1.8252 -0.2271 -0.8678
    5SAPS  C213  594  -0.208   0.327   9.567  0.7646  0.5273  0.4032
    5SAPS  H13R  595  -0.224   0.377   9.665 -3.4347  0.2772 -0.0683
    5SAPS  H13S  596  -0.294   0.365   9.508  0.1582 -0.7996  0.4089
    5SAPS  C214  597  -0.079   0.369   9.511  0.2537  0.0032  0.2060
    5SAPS  H14R  598   0.011   0.309   9.532  1.0280  0.4463 -1.7412
    5SAPS  C215  599  -0.059   0.474   9.432  0.3753  0.2709  0.7887
    5SAPS  H15R  600   0.043   0.503   9.403 -0.0676 -0.7132 -1.8346
    5SAPS  C216  601  -0.166   0.566   9.385 -0.5788 -0.7472  0.2737
    5SAPS  H16R  602  -0.195   0.640   9.463 -0.7637  0.4194 -0.8818
    5SAPS  H16S  603  -0.259   0.507   9.364 -0.7636 -1.2172  2.3066
    5SAPS  C217  604  -0.138   0.660   9.259 -0.3460 -0.0425 -0.7098
    5SAPS  H17R  605  -0.057   0.735   9.269 -1.0532  0.7638 -1.0404
    5SAPS  H17S  606  -0.231   0.718   9.241 -0.4699 -0.2204 -0.6488
    5SAPS  C218  607  -0.137   0.582   9.120  0.1553  0.5436 -0.5553
    5SAPS  H18R  608  -0.068   0.495   9.118 -1.4514 -0.8997  2.9958
    5SAPS  H18S  609  -0.234   0.530   9.109  0.4249 -0.0543 -0.1077
    5SAPS  C219  610  -0.115   0.657   8.989 -0.2709 -0.0884  0.7335
    5SAPS  H19R  611  -0.192   0.736   9.004  0.1707  0.3962  0.4895
    5SAPS  H19S  612  -0.130   0.588   8.904  0.4962 -0.9710  1.3012
    5SAPS  C220  613   0.023   0.722   8.985 -0.4505  0.5647  0.1923
    5SAPS  H20R  614   0.039   0.749   8.879 -0.1505  2.5106  0.7092
    5SAPS  H20S  615   0.093   0.640   9.010 -1.7596 -1.2222 -1.9118
    5SAPS  H20T  616   0.029   0.809   9.054 -1.1707  0.5079  0.3319
    5SAPS   C33  617   0.287   0.164   9.991 -0.3383 -0.7826 -0.6898
    5SAPS   H3X  618   0.344   0.070   9.983  0.2199 -0.5710  0.7159
    5SAPS   H3Y  619   0.358   0.242  10.027 -0.8230 -0.1965 -0.9803
    5SAPS   C34  620   0.242   0.204   9.851 -0.6589  0.1333  0.4530
    5SAPS   H4X  621   0.208   0.310   9.852 -0.9114  0.0996 -1.9523
    5SAPS   H4Y  622   0.170   0.131   9.809  0.6317 -0.3026 -1.0363
    5SAPS   C35  623   0.368   0.196   9.758 -1.0324 -0.0846  0.4388
    5SAPS   H5X  624   0.411   0.094   9.760  1.6087  0.9807 -0.2339
    5SAPS   H5Y  625   0.439   0.271   9.798 -0.3831  0.0939 -1.0381
    5SAPS   C36  626   0.313   0.245   9.622  0.2383  0.6338 -0.1532
    5SAPS   H6X  627   0.239   0.326   9.633 -4.0152 -2.7382 -2.6316
    5SAPS   H6Y  628   0.256   0.155   9.589  2.3631 -0.5457 -0.7272
    5SAPS   C37  629   0.425   0.279   9.528  0.3205  0.0735  0.1977
    5SAPS   H7X  630   0.477   0.181   9.518 -0.3490 -0.6318  2.9731
    5SAPS   H7Y  631   0.495   0.354   9.571 -0.2561 -0.1775  1.6088
    5SAPS   C38  632   0.381   0.330   9.391  0.4974 -0.7738  0.5642
    5SAPS   H8X  633   0.470   0.339   9.324  0.7115  0.3730  0.9982
    5SAPS   H8Y  634   0.343   0.433   9.407  0.0321 -0.3602 -2.7374
    5SAPS   C39  635   0.273   0.250   9.317 -0.7252 -0.2942  0.0619
    5SAPS   H9X  636   0.185   0.210   9.372 -0.7114 -0.0633  0.2540
    5SAPS   H9Y  637   0.332   0.162   9.284 -0.6212  0.4596 -1.8505
    5SAPS  C310  638   0.226   0.323   9.183 -0.1145  0.3910  0.5238
    5SAPS  H10X  639   0.304   0.385   9.134  1.3536 -1.5590  0.3327
    5SAPS  H10Y  640   0.150   0.398   9.214 -2.4312 -1.9085  0.6149
    5SAPS  C311  641   0.153   0.235   9.085  0.2296  0.1066 -0.2322
    5SAPS  H11X  642   0.118   0.293   8.997  0.7657  0.7503 -0.0332
    5SAPS  H11Y  643   0.066   0.188   9.134 -1.5635  1.9934 -1.4972
    5SAPS  C312  644   0.238   0.123   9.020 -0.1060 -0.3519  0.0215
    5SAPS  H12X  645   0.167   0.074   8.950 -1.2585  0.6095  0.5001
    5SAPS  H12Y  646   0.265   0.053   9.101 -1.5050 -0.3887  0.4805
    5SAPS  C313  647   0.374   0.168   8.967  0.4493  0.5111 -0.5475
    5SAPS  H13X  648   0.417   0.074   8.928 -0.1944  0.2612 -0.6566
    5SAPS  H13Y  649   0.433   0.212   9.050  0.4351  2.0699 -1.3387
    5SAPS  C314  650   0.363   0.270   8.856  0.0332  0.4175 -0.6136
    5SAPS  H14X  651   0.317   0.359   8.903 -0.2995  1.6865 -3.3086
    5SAPS  H14Y  652   0.297   0.231   8.777 -0.4487  0.1541 -0.0853
    5SAPS  C315  653   0.493   0.329   8.805 -0.1121 -0.0386  0.6505
    5SAPS  H15X  654   0.559   0.252   8.760 -1.0588 -0.1536 -0.5704
    5SAPS  H15Y  655   0.554   0.363   8.891  0.5525 -2.6750  1.2481
    5SAPS  C316  656   0.472   0.448   8.701  0.6079  0.7699 -0.7379
    5SAPS  H16X  657   0.429   0.533   8.758  3.4404  1.7377  0.0060
    5SAPS  H16Y  658   0.398   0.411   8.627 -1.7591  1.9024  0.9716
    5SAPS  C317  659   0.601   0.500   8.637  0.0988 -0.2075  0.3928
    5SAPS  H17X  660   0.651   0.411   8.592  2.6213  0.8778  0.9725
    5SAPS  H17Y  661   0.666   0.558   8.706  0.8343  0.7039 -1.0461
    5SAPS  C318  662   0.557   0.600   8.521  0.1902 -0.8153  1.2097
    5SAPS  H18X  663   0.478   0.556   8.457  0.2981  0.2527  0.3194
    5SAPS  H18Y  664   0.652   0.611   8.465 -0.6789  3.1014  0.3772
    5SAPS  H18Z  665   0.512   0.692   8.563 -0.7260  0.1066 -1.6865
    6SAPS     N  666   5.906   6.009  10.806 -0.4367  0.8391 -0.9581
    6SAPS   HN1  667   6.003   6.043  10.817  0.0088 -0.7657  0.2013
    6SAPS   HN2  668   5.886   5.989  10.706  0.3171  0.2810 -1.0038
    6SAPS   HN3  669   5.845   6.082  10.848 -1.2900  1.6373 -3.4841
    6SAPS   C12  670   5.891   5.870  10.871 -0.1054  0.4629 -0.4366
    6SAPS  H12A  671   5.978   5.809  10.853  0.1171  0.7228 -0.2412
    6SAPS   C13  672   5.876   5.879  11.021 -0.8688 -0.5640  1.0960
    6SAPS  O13A  673   5.880   5.990  11.083 -0.4911  0.0292  0.4372
    6SAPS  O13B  674   5.861   5.770  11.088 -0.0342 -0.2566 -0.0991
    6SAPS   C11  675   5.778   5.797  10.795  0.3720 -0.2711 -0.1951
    6SAPS  H11A  676   5.678   5.830  10.832 -1.0706 -3.0963 -1.4059
    6SAPS  H11B  677   5.778   5.694  10.837 -0.1000  0.4282  1.5976
    6SAPS     P  678   5.852   5.691  10.565  0.2297 -0.0414 -0.1065
    6SAPS   O13  679   5.864   5.567  10.649 -0.0062  0.5567 -0.2917
    6SAPS   O14  680   5.780   5.687  10.435 -0.1176 -0.2839  0.0853
    6SAPS   O12  681   5.785   5.802  10.653 -0.6066 -0.2632 -0.0753
    6SAPS   O11  682   5.990   5.765  10.540  0.2225 -0.2726  0.1206
    6SAPS    C1  683   6.120   5.721  10.589  0.0970 -0.4017  0.2141
    6SAPS    HA  684   6.178   5.812  10.618  0.6730 -0.6135 -0.2727
    6SAPS    HB  685   6.118   5.660  10.682 -1.2215 -1.6393 -0.6221
    6SAPS    C2  686   6.217   5.651  10.483  0.5018  0.6304  0.7707
    6SAPS    HS  687   6.323   5.672  10.507  0.7972 -0.0787  0.1273
    6SAPS   O21  688   6.176   5.705  10.349 -0.0847  0.4321  0.1880
    6SAPS   C21  689   6.217   5.830  10.327 -0.0580 -0.2463  0.2543
    6SAPS   O22  690   6.287   5.898  10.402 -0.6139 -0.7031 -0.2762
    6SAPS   C22  691   6.184   5.876  10.185 -0.2177 -0.5466 -0.2406
    6SAPS   H2R  692   6.103   5.811  10.143  0.8488 -1.1811 -1.3618
    6SAPS   H2S  693   6.123   5.966  10.205  2.2935  0.9518  0.7699
    6SAPS    C3  694   6.197   5.497  10.489  0.5894 -0.9119  0.5802
    6SAPS    HX  695   6.089   5.478  10.472  0.6373  0.4451 -1.5033
    6SAPS    HY  696   6.222   5.473  10.594  1.2898 -1.9783  0.1733
    6SAPS   O31  697   6.288   5.429  10.402  0.4562 -0.2598  0.0089
    6SAPS   C31  698   6.232   5.325  10.330  0.4826  0.1950 -0.3350
    6SAPS   O32  699   6.117   5.292  10.323 -0.0663  0.1824 -0.5576
    6SAPS   C32  700   6.340   5.252  10.249 -0.2176 -0.1728 -0.6986
    6SAPS   H2X  701   6.330   5.144  10.274 -0.5649 -0.1523 -0.7401
    6SAPS   H2Y  702   6.444   5.282  10.272  0.5430 -1.8994 -1.7654
    6SAPS   C23  703   6.303   5.898  10.078  0.2131 -0.0415 -0.1518
    6SAPS   H3R  704   6.387   5.843  10.125 -2.9009 -0.1119  5.7947
    6SAPS   H3S  705   6.314   6.008  10.071 -0.1291 -0.0598 -0.9731
    6SAPS   C24  706   6.284   5.834   9.939  0.1351  0.1341  0.2469
    6SAPS   H4R  707   6.265   5.726   9.922  0.3876  0.1096  0.1120
    6SAPS   H4S  708   6.385   5.842   9.893 -1.4266 -1.6557 -3.7582
    6SAPS   C25  709   6.180   5.921   9.864  0.1476  0.1749  0.2358
    6SAPS   H5R  710   6.105   5.957   9.935  0.0661  1.8648 -0.6629
    6SAPS   C26  711   6.182   5.958   9.734  0.2001 -0.0713 -0.4783
    6SAPS   H6R  712   6.108   6.029   9.694  1.6221  0.7817 -1.6616
    6SAPS   C27  713   6.284   5.918   9.632  0.4315 -0.4583  0.3935
    6SAPS   H7R  714   6.236   5.879   9.539 -1.3704  1.6258  0.4208
    6SAPS   H7S  715   6.336   5.828   9.671 -1.1447 -1.1363  0.9417
    6SAPS   C28  716   6.386   6.024   9.614  0.3431  0.1355 -0.0094
    6SAPS   H8R  717   6.462   6.028   9.693  2.6099 -0.8010 -2.0807
    6SAPS   C29  718   6.383   6.105   9.503 -0.1520 -0.3546 -0.4357
    6SAPS   H9R  719   6.465   6.175   9.480  2.5129 -3.7453 -1.7907
    6SAPS  C210  720   6.295   6.102   9.380  0.4676 -0.1858 -0.2684
    6SAPS  H10R  721   6.271   6.205   9.348  2.5615  0.8705  1.5153
    6SAPS  H10S  722   6.197   6.053   9.402 -0.4199  1.2841 -0.8550
    6SAPS  C211  723   6.361   6.018   9.271 -0.6246  0.5577 -0.2351
    6SAPS  H11R  724   6.358   5.910   9.287 -0.9298  0.8534  1.7443
    6SAPS  C212  725   6.439   6.076   9.176 -0.0017 -0.0619  0.1269
    6SAPS  H12R  726   6.492   6.009   9.106 -0.1656 -0.2576  0.1915
    6SAPS  C213  727   6.452   6.224   9.151 -1.2743  0.3999 -0.1311
    6SAPS  H13R  728   6.515   6.269   9.231  0.5284 -0.3002 -1.1215
    6SAPS  H13S  729   6.351   6.268   9.162 -0.7034  1.2000  2.2340
    6SAPS  C214  730   6.519   6.239   9.010  0.3301  0.6972 -0.5715
    6SAPS  H14R  731   6.618   6.193   8.994  0.2474  1.5750 -3.8819
    6SAPS  C215  732   6.452   6.291   8.909 -0.4888 -0.4208  0.5876
    6SAPS  H15R  733   6.516   6.305   8.820 -2.6827  0.9232 -0.8180
    6SAPS  C216  734   6.307   6.340   8.893 -0.6018  0.8491 -0.2723
    6SAPS  H16R  735   6.241   6.278   8.958  1.4935 -0.1929  0.9119
    6SAPS  H16S  736   6.282   6.321   8.787 -0.2862 -0.4042 -0.1324
    6SAPS  C217  737   6.279   6.490   8.923 -0.3172 -0.7057  0.4047
    6SAPS  H17R  738   6.298   6.518   9.028 -0.7444  1.5984 -0.1071
    6SAPS  H17S  739   6.169   6.499   8.907 -0.5816 -4.3092 -0.2064
    6SAPS  C218  740   6.358   6.586   8.833  0.2421 -0.2081  0.4753
    6SAPS  H18R  741   6.466   6.573   8.853  0.5517  0.8228 -0.4984
    6SAPS  H18S  742   6.332   6.687   8.870  0.0945 -0.3269  0.7033
    6SAPS  C219  743   6.339   6.581   8.683  0.6965  0.2376  0.1771
    6SAPS  H19R  744   6.236   6.614   8.659  0.7048 -0.3580 -0.6947
    6SAPS  H19S  745   6.344   6.476   8.646 -2.0320 -0.7327  2.3740
    6SAPS  C220  746   6.437   6.679   8.622  0.2273  0.2933  0.7998
    6SAPS  H20R  747   6.403   6.701   8.518 -1.5949  4.2455  2.1572
    6SAPS  H20S  748   6.545   6.655   8.632 -0.0513 -1.7455 -0.7131
    6SAPS  H20T  749   6.418   6.776   8.672  0.4984 -0.1078  1.6926
    6SAPS   C33  750   6.317   5.264  10.099  0.0666 -0.2251 -0.5098
    6SAPS   H3X  751   6.374   5.349  10.057  0.8291  1.0882  3.0002
    6SAPS   H3Y  752   6.218   5.284  10.053 -0.9102 -0.2291  1.5152
    6SAPS   C34  753   6.368   5.144  10.027  0.1108 -0.2835  0.0761
    6SAPS   H4X  754   6.286   5.070  10.033 -0.8497  0.9172  1.9827
    6SAPS   H4Y  755   6.451   5.092  10.079 -0.4577 -0.1581  1.1084
    6SAPS   C35  756   6.423   5.160   9.882  0.6191  0.2351 -0.2720
    6SAPS   H5X  757   6.461   5.060   9.854  0.2986 -0.4110  1.5436
    6SAPS   H5Y  758   6.511   5.227   9.876  0.3172  0.5761 -1.0551
    6SAPS   C36  759   6.316   5.192   9.774 -0.1088  0.0327 -0.9986
    6SAPS   H6X  760   6.278   5.289   9.813 -0.2946 -0.7233  0.7619
    6SAPS   H6Y  761   6.242   5.110   9.772 -0.1970  0.1278 -2.9602
    6SAPS   C37  762   6.384   5.199   9.634  0.3731  0.4673 -0.2608
    6SAPS   H7X  763   6.425   5.098   9.616 -0.7904 -0.0631  0.0097
    6SAPS   H7Y  764   6.480   5.256   9.635  0.8485 -0.3133 -1.2601
    6SAPS   C38  765   6.285   5.229   9.524  0.2753 -0.4565 -0.3718
    6SAPS   H8X  766   6.249   5.330   9.554 -1.5062 -1.6069  1.5625
    6SAPS   H8Y  767   6.199   5.157   9.528  1.0661 -1.4696 -1.2785
    6SAPS   C39  768   6.345   5.226   9.383  0.0379 -0.0662 -0.4326
    6SAPS   H9X  769   6.377   5.121   9.369 -0.6558 -0.5192  1.2566
    6SAPS   H9Y  770   6.427   5.301   9.372 -2.0057  2.7731  2.5844
    6SAPS  C310  771   6.250   5.248   9.263 -0.1392  0.2718 -0.7580
    6SAPS  H10X  772   6.216   5.353   9.248 -0.1079  0.3571 -0.2308
    6SAPS  H10Y  773   6.166   5.176   9.273 -1.9077  2.5036  0.9134
    6SAPS  C311  774   6.319   5.225   9.127 -0.6482 -0.3206  0.0060
    6SAPS  H11X  775   6.403   5.297   9.118  1.4886 -2.7690 -0.2222
    6SAPS  H11Y  776   6.245   5.248   9.047  0.4333 -0.4374 -1.0435
    6SAPS  C312  777   6.382   5.085   9.081 -0.2495 -0.8580  0.3563
    6SAPS  H12X  778   6.316   4.997   9.100 -0.0967 -1.2182 -0.7518
    6SAPS  H12Y  779   6.472   5.076   9.147 -0.4323  0.4778  0.7908
    6SAPS  C313  780   6.412   5.080   8.930  1.4395 -0.3718  0.3328
    6SAPS  H13X  781   6.441   5.183   8.901  2.5524 -0.7319  0.1505
    6SAPS  H13Y  782   6.316   5.050   8.883  1.9088  0.3048 -1.0965
    6SAPS  C314  783   6.519   4.975   8.889 -0.5374 -0.2071  0.4381
    6SAPS  H14X  784   6.618   4.991   8.937 -0.0077 -0.1311 -0.6530
    6SAPS  H14Y  785   6.544   4.994   8.782  2.0316 -1.9166  0.6784
    6SAPS  C315  786   6.466   4.835   8.911  0.1239  0.5817 -0.6568
    6SAPS  H15X  787   6.357   4.829   8.892  0.1312 -0.1837 -0.4597
    6SAPS  H15Y  788   6.461   4.819   9.021  0.1140  1.3244 -0.5461
    6SAPS  C316  789   6.546   4.724   8.843 -0.1792  0.0440 -0.1281
    6SAPS  H16X  790   6.530   4.625   8.890  1.1729 -0.4402 -0.6851
    6SAPS  H16Y  791   6.653   4.744   8.864 -0.2797  0.4857 -0.0364
    6SAPS  C317  792   6.530   4.719   8.687 -0.1380  0.1548 -0.0174
    6SAPS  H17X  793   6.587   4.630   8.651  1.8157  0.5563  1.9504
    6SAPS  H17Y  794   6.599   4.793   8.642 -0.7270  0.7272  0.0173
    6SAPS  C318  795   6.395   4.707   8.623 -0.2388  0.8949 -0.0317
    6SAPS  H18X  796   6.409   4.691   8.514 -2.7533 -1.9107  0.0037
    6SAPS  H18Y  797   6.329   4.793   8.649 -3.2874 -1.5048  0.3519
    6SAPS  H18Z  798   6.348   4.616   8.666 -1.2744  0.6805 -1.5746
    7SAPS     N  799   1.843   6.792  10.957  0.2496 -0.4613 -0.1852
    7SAPS   HN1  800   1.759   6.808  10.898  0.9312  0.1495 -1.0007
    7SAPS   HN2  801   1.903   6.718  10.915  3.5176  1.3422  1.0646
    7SAPS   HN3  802   1.810   6.765  11.052 -1.8406  0.7458 -0.5351
    7SAPS   C12  803   1.924   6.919  10.966 -0.5494 -0.4119 -0.1096
    7SAPS  H12A  804   1.849   6.997  10.972  0.9490  0.8829  3.7147
    7SAPS   C13  805   2.013   6.919  11.100  0.6356 -0.7793  0.3211
    7SAPS  O13A  806   2.020   6.822  11.175 -0.3600  0.1742 -0.7355
    7SAPS  O13B  807   2.067   7.031  11.126 -0.2127 -0.4509 -0.8371
    7SAPS   C11  808   2.009   6.939  10.837 -0.0950 -1.2084 -0.4559
    7SAPS  H11A  809   2.071   6.849  10.822  0.4373 -0.9533  0.1990
    7SAPS  H11B  810   2.088   7.013  10.862  1.6643 -2.2750 -2.6494
    7SAPS     P  811   1.983   7.056  10.609  0.1785 -0.3543 -0.0716
    7SAPS   O13  812   1.883   7.043  10.500 -0.2257 -0.6229  0.4401
    7SAPS   O14  813   2.010   7.191  10.656 -0.0662  0.0398 -0.2142
    7SAPS   O12  814   1.926   6.975  10.732  0.6694  0.0287  0.4436
    7SAPS   O11  815   2.115   6.985  10.578  0.3359  0.1469 -0.0082
    7SAPS    C1  816   2.125   6.866  10.502 -0.6336  1.1018  0.1986
    7SAPS    HA  817   2.161   6.784  10.567 -2.4743  0.6206  0.6567
    7SAPS    HB  818   2.030   6.828  10.458 -0.4984 -0.1262  0.9522
    7SAPS    C2  819   2.215   6.891  10.386 -0.2300  0.3468 -0.2296
    7SAPS    HS  820   2.296   6.960  10.419 -0.8657  0.4092  1.2204
    7SAPS   O21  821   2.139   6.957  10.283  0.1488 -0.2698 -0.0948
    7SAPS   C21  822   2.130   7.089  10.288  0.8109  0.6929  0.3246
    7SAPS   O22  823   2.194   7.161  10.360 -0.5516  0.3347 -0.4208
    7SAPS   C22  824   2.028   7.143  10.184  0.0213 -0.5595  0.4806
    7SAPS   H2R  825   1.932   7.173  10.231  1.3859 -0.2621  3.1300
    7SAPS   H2S  826   2.081   7.236  10.156 -0.8500  0.2420  1.4906
    7SAPS    C3  827   2.272   6.754  10.330 -0.2955  0.3691 -0.1664
    7SAPS    HX  828   2.179   6.696  10.314  0.3839 -1.1276  1.1969
    7SAPS    HY  829   2.325   6.697  10.410  0.7720  1.6459  0.0560
    7SAPS   O31  830   2.336   6.767  10.205  0.3220  0.4236  0.2817
    7SAPS   C31  831   2.450   6.832  10.215  0.0636 -0.3910  0.2247
    7SAPS   O32  832   2.506   6.862  10.319 -0.4867 -1.2742  0.4284
    7SAPS   C32  833   2.523   6.840  10.076  0.2152 -0.2803 -1.0405
    7SAPS   H2X  834   2.607   6.769  10.088  0.2704  0.0629  0.7422
    7SAPS   H2Y  835   2.572   6.939  10.059 -0.9030  0.5879  0.5826
    7SAPS   C23  836   1.997   7.040  10.072  0.4585 -0.4642  0.3995
    7SAPS   H3R  837   1.952   6.952  10.123  1.5872 -1.8061 -0.8436
    7SAPS   H3S  838   2.088   7.009  10.016 -0.8848 -2.7745 -0.5839
    7SAPS   C24  839   1.890   7.091   9.982  0.4255  0.1945 -0.2416
    7SAPS   H4R  840   1.939   7.165   9.915 -1.1176  0.1765 -1.4144
    7SAPS   H4S  841   1.809   7.135  10.045 -0.6846 -0.4265 -1.2097
    7SAPS   C25  842   1.826   6.995   9.888 -0.1356  0.2719  0.7826
    7SAPS   H5R  843   1.859   6.891   9.895  0.9231  0.6358  1.2754
    7SAPS   C26  844   1.747   7.030   9.781 -0.1976 -0.1113 -0.0786
    7SAPS   H6R  845   1.711   6.943   9.724  3.3287 -1.0960 -0.9498
    7SAPS   C27  846   1.694   7.161   9.738  0.6077  0.0779  0.6246
    7SAPS   H7R  847   1.759   7.244   9.774  1.4655  0.6031 -2.0668
    7SAPS   H7S  848   1.594   7.180   9.783  0.5185 -3.5338  2.1687
    7SAPS   C28  849   1.681   7.160   9.589 -0.5666  0.0210 -0.5528
    7SAPS   H8R  850   1.765   7.111   9.537  1.1871  1.6062  0.7043
    7SAPS   C29  851   1.579   7.206   9.517  0.3052  0.4865  0.3208
    7SAPS   H9R  852   1.587   7.178   9.411  2.0451  0.0023  0.5657
    7SAPS  C210  853   1.451   7.269   9.559 -0.5553  0.5137 -0.4075
    7SAPS  H10R  854   1.457   7.295   9.667  1.9586  0.2776 -0.4636
    7SAPS  H10S  855   1.380   7.184   9.558  1.3836 -1.1824  1.4749
    7SAPS  C211  856   1.397   7.383   9.470  0.5524 -0.5112 -0.1259
    7SAPS  H11R  857   1.466   7.414   9.391  0.5157  1.8073  0.7321
    7SAPS  C212  858   1.280   7.456   9.478  0.6371 -0.2760 -0.0227
    7SAPS  H12R  859   1.253   7.531   9.402  0.6990 -0.1971  0.0324
    7SAPS  C213  860   1.176   7.418   9.590 -0.0444  0.3093 -0.3234
    7SAPS  H13R  861   1.197   7.336   9.663  1.1614 -0.9824 -2.0895
    7SAPS  H13S  862   1.088   7.382   9.532 -1.1569  0.0103  1.4971
    7SAPS  C214  863   1.119   7.538   9.662  0.7947 -0.2446 -0.3504
    7SAPS  H14R  864   1.024   7.581   9.625  0.4648  0.3250  1.1111
    7SAPS  C215  865   1.173   7.596   9.773 -0.0176 -0.2709 -0.5329
    7SAPS  H15R  866   1.125   7.672   9.836  3.3292 -0.5372  2.4684
    7SAPS  C216  867   1.301   7.544   9.836  0.0676  0.4367  0.3334
    7SAPS  H16R  868   1.364   7.619   9.889 -0.0453 -0.0122  1.1117
    7SAPS  H16S  869   1.377   7.512   9.761  0.0122  1.7319 -0.3022
    7SAPS  C217  870   1.280   7.421   9.919  0.1738  0.0236  0.2089
    7SAPS  H17R  871   1.210   7.345   9.879  0.7104 -0.3767  0.0335
    7SAPS  H17S  872   1.231   7.457  10.013  0.7764  0.8529  0.2078
    7SAPS  C218  873   1.404   7.349   9.978  0.5865  0.6525  0.2948
    7SAPS  H18R  874   1.441   7.415  10.060 -0.9711  2.0819 -0.1295
    7SAPS  H18S  875   1.490   7.334   9.911 -0.1748 -3.1759  0.0750
    7SAPS  C219  876   1.369   7.207  10.032 -0.7471 -0.0047 -0.0533
    7SAPS  H19R  877   1.364   7.141   9.943 -0.5283 -1.0281  0.6847
    7SAPS  H19S  878   1.268   7.219  10.077  0.3936  0.7800  2.4298
    7SAPS  C220  879   1.474   7.164  10.138 -0.4917 -0.7612 -0.3492
    7SAPS  H20R  880   1.572   7.146  10.089  1.5230 -0.0433  3.2599
    7SAPS  H20S  881   1.443   7.076  10.198 -0.7494 -0.2484  0.2677
    7SAPS  H20T  882   1.492   7.253  10.202  0.1309 -0.6386 -0.6889
    7SAPS   C33  883   2.433   6.803   9.951 -0.3795 -0.1531 -0.6121
    7SAPS   H3X  884   2.347   6.873   9.952  0.3659  0.8095 -1.7191
    7SAPS   H3Y  885   2.384   6.703   9.952  0.4815 -0.5759  2.4309
    7SAPS   C34  886   2.506   6.817   9.817  0.3962  0.9064 -0.2663
    7SAPS   H4X  887   2.578   6.733   9.819 -0.6268 -0.0308 -1.8310
    7SAPS   H4Y  888   2.562   6.913   9.825  2.5442 -0.5423  2.5826
    7SAPS   C35  889   2.438   6.804   9.681  0.1500  0.4676 -0.6781
    7SAPS   H5X  890   2.358   6.880   9.665 -0.3638 -0.7640 -4.5490
    7SAPS   H5Y  891   2.401   6.699   9.673 -1.3094  0.6355  2.7393
    7SAPS   C36  892   2.522   6.830   9.559 -0.3262  0.8091  0.0453
    7SAPS   H6X  893   2.593   6.744   9.566  1.4200  2.0254 -2.0249
    7SAPS   H6Y  894   2.576   6.927   9.559 -1.1647  1.2816 -0.5549
    7SAPS   C37  895   2.437   6.830   9.432 -0.3949 -0.5838 -0.0410
    7SAPS   H7X  896   2.395   6.931   9.413  1.5865  0.1265 -0.8354
    7SAPS   H7Y  897   2.364   6.747   9.433  0.5045 -1.4202 -1.5600
    7SAPS   C38  898   2.527   6.808   9.303  1.3128  0.0453  0.2767
    7SAPS   H8X  899   2.469   6.776   9.214  3.3384  1.4914 -1.6052
    7SAPS   H8Y  900   2.591   6.718   9.319  0.3237 -0.7325 -0.1432
    7SAPS   C39  901   2.593   6.934   9.256 -0.0856 -0.0488  0.3632
    7SAPS   H9X  902   2.654   6.911   9.166 -1.9666  0.2535 -1.0084
    7SAPS   H9Y  903   2.665   6.965   9.335 -1.3235 -0.8492  1.8425
    7SAPS  C310  904   2.491   7.051   9.226  0.7689 -0.1585  0.2552
    7SAPS  H10X  905   2.482   7.116   9.316 -2.8462 -2.1347  1.4210
    7SAPS  H10Y  906   2.390   7.012   9.200  0.5644 -0.9830  2.2099
    7SAPS  C311  907   2.538   7.137   9.108 -0.8329  0.8229 -0.0764
    7SAPS  H11X  908   2.519   7.083   9.013 -4.1889  0.1344  0.9259
    7SAPS  H11Y  909   2.648   7.149   9.115 -0.5119  0.2344 -3.4219
    7SAPS  C312  910   2.470   7.279   9.093 -0.5227  0.0544  0.5504
    7SAPS  H12X  911   2.487   7.330   9.190 -0.1252 -1.0554  1.0730
    7SAPS  H12Y  912   2.360   7.262   9.089 -0.5518  0.5492 -1.0853
    7SAPS  C313  913   2.508   7.362   8.967  0.0362  0.1638  0.2063
    7SAPS  H13X  914   2.489   7.288   8.886 -1.3296 -0.3247  0.9690
    7SAPS  H13Y  915   2.612   7.402   8.971  0.8668 -2.1153  2.5267
    7SAPS  C314  916   2.395   7.473   8.939 -0.0359  0.3325  0.0233
    7SAPS  H14X  917   2.303   7.434   8.989 -0.2530 -0.3716 -0.9204
    7SAPS  H14Y  918   2.386   7.484   8.829  1.4539  0.7536 -0.0605
    7SAPS  C315  919   2.422   7.610   9.013 -0.0109 -0.0749 -0.2917
    7SAPS  H15X  920   2.512   7.652   8.964 -0.6301  0.0015 -1.3665
    7SAPS  H15Y  921   2.448   7.591   9.120  0.6900 -1.0500 -0.6323
    7SAPS  C316  922   2.311   7.709   8.990  0.5756  0.0524  0.3100
    7SAPS  H16X  923   2.216   7.671   9.032 -0.2920 -1.9504 -3.3287
    7SAPS  H16Y  924   2.289   7.739   8.885  0.9330  1.9074  0.7409
    7SAPS  C317  925   2.340   7.851   9.066  0.1146  0.4740  0.9004
    7SAPS  H17X  926   2.402   7.836   9.157  0.3184  0.0015  0.6832
    7SAPS  H17Y  927   2.241   7.890   9.099 -0.0786 -0.7994  1.8570
    7SAPS  C318  928   2.413   7.947   8.979 -0.6389 -0.5712 -0.6606
    7SAPS  H18X  929   2.361   7.965   8.882 -0.0394 -1.1658 -1.1011
    7SAPS  H18Y  930   2.518   7.920   8.955 -0.6139 -1.4195  0.3797
    7SAPS  H18Z  931   2.417   8.043   9.034  0.7147  0.2060 -2.0700
    8SAPS     N  932   5.986   1.954  11.437 -0.1072 -0.0371 -0.1803
    8SAPS   HN1  933   5.999   1.971  11.335 -0.1133  3.2614  0.3054
    8SAPS   HN2  934   5.997   2.049  11.479  0.7741  0.4654 -1.5045
    8SAPS   HN3  935   6.052   1.880  11.467  1.8417  1.9317  0.6115
    8SAPS   C12  936   5.844   1.905  11.465  0.4257  0.2157  0.2801
    8SAPS  H12A  937   5.836   1.891  11.572  1.1550 -0.2510  0.2813
    8SAPS   C13  938   5.734   2.005  11.431 -0.6340 -0.2574  0.3254
    8SAPS  O13A  939   5.753   2.107  11.361 -0.0196 -0.2612  0.2006
    8SAPS  O13B  940   5.617   1.974  11.467 -0.0977 -0.3260 -0.2547
    8SAPS   C11  941   5.817   1.771  11.376  0.4363 -0.1205 -0.3636
    8SAPS  H11A  942   5.716   1.740  11.412 -0.2610 -0.3812 -2.4714
    8SAPS  H11B  943   5.890   1.692  11.403  0.0169 -0.7440 -1.0564
    8SAPS     P  944   5.705   1.750  11.129 -0.0105  0.0828 -0.0973
    8SAPS   O13  945   5.599   1.669  11.194  0.3359 -0.9694  0.3030
    8SAPS   O14  946   5.667   1.862  11.045 -0.0983 -0.4900 -0.2095
    8SAPS   O12  947   5.807   1.801  11.237  0.0643  0.2893 -0.1521
    8SAPS   O11  948   5.786   1.652  11.039 -0.1350  0.1636 -0.5009
    8SAPS    C1  949   5.923   1.662  11.019  0.7816  0.0246 -0.6523
    8SAPS    HA  950   5.991   1.672  11.107 -0.3282 -1.7390  0.4148
    8SAPS    HB  951   5.944   1.567  10.965  1.1067 -0.9872  1.2219
    8SAPS    C2  952   5.957   1.784  10.922  0.2580 -0.7207 -0.1089
    8SAPS    HS  953   5.911   1.874  10.967  0.7724 -0.1245 -0.7717
    8SAPS   O21  954   5.897   1.754  10.800  0.3149 -0.1128 -0.2404
    8SAPS   C21  955   5.838   1.852  10.735 -0.3283  1.0020 -0.3537
    8SAPS   O22  956   5.830   1.969  10.765 -0.0355 -0.1312  0.4998
    8SAPS   C22  957   5.771   1.798  10.602  0.7408  0.4975 -0.3192
    8SAPS   H2R  958   5.717   1.704  10.625 -0.7897  0.6251 -3.1434
    8SAPS   H2S  959   5.687   1.864  10.573  0.5718  0.2034 -0.4998
    8SAPS    C3  960   6.110   1.784  10.906  0.3886  0.5722 -0.7480
    8SAPS    HX  961   6.131   1.676  10.885  1.4695  0.5197  0.5715
    8SAPS    HY  962   6.160   1.800  11.004  0.2155 -1.2104 -0.3455
    8SAPS   O31  963   6.167   1.867  10.800  0.1056 -0.4947  1.0478
    8SAPS   C31  964   6.185   1.994  10.831  0.1078 -0.5811  0.3705
    8SAPS   O32  965   6.164   2.041  10.939  0.0935 -0.0875  0.3261
    8SAPS   C32  966   6.217   2.073  10.700 -0.3184 -0.0507  0.2023
    8SAPS   H2X  967   6.281   2.019  10.627 -2.1680 -0.2833 -1.2633
    8SAPS   H2Y  968   6.265   2.167  10.733 -1.1683  0.3421  0.3326
    8SAPS   C23  969   5.865   1.775  10.485  0.1268  0.4338  0.6522
    8SAPS   H3R  970   5.949   1.704  10.500  1.4702  1.9317  0.3539
    8SAPS   H3S  971   5.909   1.875  10.464 -0.3016  0.8356  1.6374
    8SAPS   C24  972   5.787   1.729  10.363  1.2044 -0.6090  0.5257
    8SAPS   H4R  973   5.714   1.810  10.340 -0.2853 -1.7920  1.0000
    8SAPS   H4S  974   5.728   1.640  10.393  1.1836 -0.8494 -0.2199
    8SAPS   C25  975   5.877   1.716  10.249 -0.5535 -0.2117 -0.4464
    8SAPS   H5R  976   5.948   1.800  10.244 -0.6912 -0.0429  0.3871
    8SAPS   C26  977   5.879   1.624  10.148 -1.2017  0.2278 -0.5913
    8SAPS   H6R  978   5.958   1.632  10.071  0.6564  0.7206  1.3090
    8SAPS   C27  979   5.777   1.512  10.124  0.0625 -1.0026  0.4607
    8SAPS   H7R  980   5.717   1.533  10.034 -0.5171 -0.7957  0.8954
    8SAPS   H7S  981   5.707   1.516  10.210 -0.2434 -0.1698  0.1799
    8SAPS   C28  982   5.842   1.377  10.115 -0.0727 -0.4140  0.2844
    8SAPS   H8R  983   5.889   1.351  10.211  0.3686  0.5070  0.3240
    8SAPS   C29  984   5.850   1.296  10.011  0.2088 -0.0319  0.6645
    8SAPS   H9R  985   5.913   1.207  10.017  0.7286  0.1980 -1.2036
    8SAPS  C210  986   5.783   1.326   9.873 -0.8101 -0.1188 -0.7098
    8SAPS  H10R  987   5.851   1.309   9.787  0.7753 -0.2393  0.5419
    8SAPS  H10S  988   5.761   1.434   9.859  2.6163  0.7056 -0.2916
    8SAPS  C211  989   5.658   1.241   9.859 -0.0354  0.6989 -0.2017
    8SAPS  H11R  990   5.590   1.247   9.945 -0.0590 -1.5615 -0.0296
    8SAPS  C212  991   5.623   1.161   9.755  0.3209 -0.1663  0.1838
    8SAPS  H12R  992   5.534   1.097   9.764  0.7872 -0.9963 -1.0059
    8SAPS  C213  993   5.695   1.138   9.627 -0.2095  0.5820 -0.4294
    8SAPS  H13R  994   5.699   1.029   9.605 -2.1700 -0.0273  1.9934
    8SAPS  H13S  995   5.798   1.174   9.649 -0.4077  1.6339 -1.2216
    8SAPS  C214  996   5.656   1.217   9.506  0.1455 -0.0735 -0.4175
    8SAPS  H14R  997   5.595   1.308   9.513  0.0316 -0.0722 -1.3012
    8SAPS  C215  998   5.708   1.193   9.385  0.4163 -0.1043  0.7450
    8SAPS  H15R  999   5.678   1.251   9.296  1.3445  0.8285  1.0414
    8SAPS  C216 1000   5.813   1.087   9.345 -0.9351 -0.6301  0.1167
    8SAPS  H16R 1001   5.868   1.050   9.435 -1.7591 -1.7264  0.1772
    8SAPS  H16S 1002   5.894   1.123   9.278 -0.1613  0.1866  1.4641
    8SAPS  C217 1003   5.739   0.966   9.286 -0.3620 -0.7499  0.3584
    8SAPS  H17R 1004   5.659   0.938   9.358  0.2296 -0.2783  1.2097
    8SAPS  H17S 1005   5.806   0.879   9.271 -0.7098 -0.5601 -2.6110
    8SAPS  C218 1006   5.680   1.006   9.146  0.5717  0.1675 -0.3771
    8SAPS  H18R 1007   5.757   1.045   9.077 -1.0293 -0.0036 -2.3215
    8SAPS  H18S 1008   5.607   1.090   9.147  2.1367  1.5487  1.4529
    8SAPS  C219 1009   5.635   0.878   9.069  0.5271 -0.2226  0.5442
    8SAPS  H19R 1010   5.545   0.839   9.122  0.0698 -1.3148 -1.0002
    8SAPS  H19S 1011   5.711   0.798   9.060 -2.2643 -2.6803 -2.3601
    8SAPS  C220 1012   5.584   0.908   8.923 -0.6362  0.6318  0.1743
    8SAPS  H20R 1013   5.676   0.911   8.860 -1.5140  2.3184 -1.0623
    8SAPS  H20S 1014   5.524   1.001   8.917  0.0208  1.1012  0.6933
    8SAPS  H20T 1015   5.518   0.824   8.892  0.0022  0.5765 -1.0540
    8SAPS   C33 1016   6.082   2.101  10.620 -0.5902  0.3651 -0.0382
    8SAPS   H3X 1017   6.017   2.140  10.701 -0.6875  0.1106  0.0050
    8SAPS   H3Y 1018   6.039   2.009  10.575  1.5779  0.9358 -3.3989
    8SAPS   C34 1019   6.092   2.203  10.506 -0.0195 -0.1895 -0.0444
    8SAPS   H4X 1020   6.124   2.296  10.557  0.9214 -0.1239 -0.7391
    8SAPS   H4Y 1021   5.992   2.214  10.457 -0.9628 -2.8436  1.1803
    8SAPS   C35 1022   6.194   2.157  10.404 -0.8923 -0.3512 -0.0997
    8SAPS   H5X 1023   6.276   2.099  10.450 -1.9689 -0.6175  1.5100
    8SAPS   H5Y 1024   6.229   2.244  10.344 -1.3481 -0.8542 -1.1176
    8SAPS   C36 1025   6.129   2.070  10.299  0.3354  0.4265  0.0948
    8SAPS   H6X 1026   6.043   2.126  10.258 -1.0147 -0.1500  2.0790
    8SAPS   H6Y 1027   6.079   1.982  10.343  0.3779  0.7272  0.7429
    8SAPS   C37 1028   6.207   2.040  10.171  0.4736  0.3015 -0.0819
    8SAPS   H7X 1029   6.271   2.127  10.145 -0.6746  1.0645 -0.3627
    8SAPS   H7Y 1030   6.141   2.032  10.082  1.9518 -0.9636 -1.0920
    8SAPS   C38 1031   6.314   1.929  10.188 -0.6302  0.4111  0.3893
    8SAPS   H8X 1032   6.276   1.827  10.211  0.9792 -0.6277 -1.4348
    8SAPS   H8Y 1033   6.373   1.943  10.282 -0.2132 -0.5985  0.2850
    8SAPS   C39 1034   6.402   1.918  10.068 -0.2715  0.5931  1.2346
    8SAPS   H9X 1035   6.486   1.857  10.108 -2.0484 -0.5843  3.2578
    8SAPS   H9Y 1036   6.434   2.018  10.034  0.1804  0.2934  0.7590
    8SAPS  C310 1037   6.344   1.845   9.943  0.0172  0.2526 -0.4570
    8SAPS  H10X 1038   6.281   1.924   9.895 -0.3350  0.5798  0.5295
    8SAPS  H10Y 1039   6.269   1.767   9.968 -0.3083  0.3579 -1.0712
    8SAPS  C311 1040   6.438   1.788   9.837  0.0570 -0.0060  0.1088
    8SAPS  H11X 1041   6.509   1.713   9.877  1.1165  1.7958  1.6860
    8SAPS  H11Y 1042   6.517   1.863   9.818 -1.5396  1.0212 -2.7999
    8SAPS  C312 1043   6.368   1.737   9.704 -0.7241 -0.2344 -0.1775
    8SAPS  H12X 1044   6.282   1.806   9.696  0.2291  0.9429 -0.5014
    8SAPS  H12Y 1045   6.343   1.628   9.701  2.5578 -1.0619  0.1212
    8SAPS  C313 1046   6.466   1.758   9.588  0.4808  0.0323  0.4866
    8SAPS  H13X 1047   6.551   1.697   9.627 -0.5467 -1.5011  0.3749
    8SAPS  H13Y 1048   6.490   1.866   9.575  0.5535 -0.3031 -2.4729
    8SAPS  C314 1049   6.422   1.694   9.448  0.4965 -0.0375  0.6475
    8SAPS  H14X 1050   6.329   1.738   9.404 -0.0648 -0.4762  1.3782
    8SAPS  H14Y 1051   6.406   1.589   9.482  2.2448 -0.7738 -0.7127
    8SAPS  C315 1052   6.545   1.700   9.357 -0.1047  0.5664  0.4713
    8SAPS  H15X 1053   6.628   1.635   9.390  0.3031 -0.5917 -2.6733
    8SAPS  H15Y 1054   6.589   1.802   9.347 -0.2888  0.7964  1.9125
    8SAPS  C316 1055   6.491   1.644   9.223  0.2087  1.4984 -0.0986
    8SAPS  H16X 1056   6.420   1.712   9.171  1.1530  1.6790 -1.1511
    8SAPS  H16Y 1057   6.439   1.552   9.258  1.7435  0.3749 -0.7470
    8SAPS  C317 1058   6.609   1.613   9.124  0.1361  0.2325 -0.3390
    8SAPS  H17X 1059   6.668   1.533   9.174  0.1308  0.3754 -0.1048
    8SAPS  H17Y 1060   6.674   1.702   9.109  2.4776 -1.0646  1.7355
    8SAPS  C318 1061   6.572   1.559   8.986 -0.0010  0.1820  0.2105
    8SAPS  H18X 1062   6.664   1.534   8.929  0.0677  4.1687 -1.5598
    8SAPS  H18Y 1063   6.515   1.640   8.934  2.0150  0.4934 -1.5956
    8SAPS  H18Z 1064   6.519   1.461   8.992  0.8630 -0.1841  1.9409
    9SAPS     N 1065   2.654   3.699   6.225  0.8738 -0.4952 -0.3401
    9SAPS   HN1 1066   2.631   3.655   6.316 -0.4296 -2.6484 -1.6651
    9SAPS   HN2 1067   2.639   3.632   6.147 -0.9699 -1.5261  0.8652
    9SAPS   HN3 1068   2.749   3.742   6.219 -0.5066  2.5311 -2.2960
    9SAPS   C12 1069   2.563   3.819   6.229 -1.0203  0.7752  0.2512
    9SAPS  H12A 1070   2.562   3.870   6.134 -1.1962 -1.3517 -0.8991
    9SAPS   C13 1071   2.411   3.788   6.256 -0.5001  0.6481 -1.0768
    9SAPS  O13A 1072   2.371   3.669   6.270 -1.0098  0.1505  0.0893
    9SAPS  O13B 1073   2.326   3.883   6.257  0.2132  0.0948  0.4697
    9SAPS   C11 1074   2.632   3.907   6.337  0.8623  0.5627  0.3555
    9SAPS  H11A 1075   2.626   3.866   6.440 -1.3865 -0.5403 -0.1768
    9SAPS  H11B 1076   2.579   4.005   6.344  2.9009  1.6781  0.5708
    9SAPS     P 1077   2.853   4.026   6.366  0.0575  0.0319 -0.1236
    9SAPS   O13 1078   2.992   3.987   6.402  0.4013  0.0344  0.4389
    9SAPS   O14 1079   2.841   4.143   6.280  0.4983  0.1134  0.3509
    9SAPS   O12 1080   2.767   3.915   6.308  0.0096 -0.2785 -0.2205
    9SAPS   O11 1081   2.783   4.059   6.501  0.3825  0.0890  0.2979
    9SAPS    C1 1082   2.847   4.143   6.589  0.3785 -0.5859 -0.3548
    9SAPS    HA 1083   2.931   4.091   6.640  0.0865  0.2264  0.9810
    9SAPS    HB 1084   2.891   4.228   6.534 -1.5547  0.7116  0.0466
    9SAPS    C2 1085   2.749   4.201   6.691  0.8259 -0.0929  0.5530
    9SAPS    HS 1086   2.795   4.286   6.744  0.8915 -0.5342  1.2073
    9SAPS   O21 1087   2.729   4.102   6.790 -0.1062  0.3054  0.2852
    9SAPS   C21 1088   2.828   4.083   6.874 -0.5172 -1.2244 -0.4415
    9SAPS   O22 1089   2.941   4.128   6.875 -0.2368 -0.2676 -0.0922
    9SAPS   C22 1090   2.773   3.985   6.989 -1.0917 -0.2546 -0.7353
    9SAPS   H2R 1091   2.744   3.892   6.935  1.4501 -0.7825 -1.2669
    9SAPS   H2S 1092   2.858   3.953   7.053 -0.7465  0.6894 -0.7198
    9SAPS    C3 1093   2.619   4.263   6.632  0.3079  0.0578  0.4129
    9SAPS    HX 1094   2.593   4.211   6.537 -1.0440  0.3145  0.6393
    9SAPS    HY 1095   2.644   4.365   6.596 -4.4361  1.7092  1.3970
    9SAPS   O31 1096   2.511   4.271   6.730 -0.2562  0.0117  0.0377
    9SAPS   C31 1097   2.522   4.381   6.806 -0.0853  0.4209  0.6267
    9SAPS   O32 1098   2.610   4.462   6.795  0.2991 -0.0101 -0.3827
    9SAPS   C32 1099   2.413   4.393   6.912 -0.0551 -0.4003 -0.2836
    9SAPS   H2X 1100   2.415   4.287   6.947 -2.8775 -0.6065 -0.6149
    9SAPS   H2Y 1101   2.320   4.417   6.855  1.2997 -0.8546 -2.7308
    9SAPS   C23 1102   2.662   4.050   7.080  0.3052 -0.2271 -0.1431
    9SAPS   H3R 1103   2.625   3.970   7.147  0.2361  0.0790  0.1833
    9SAPS   H3S 1104   2.576   4.097   7.028 -0.5684 -0.7288  0.8470
    9SAPS   C24 1105   2.718   4.171   7.166 -0.5595  1.3834 -0.3008
    9SAPS   H4R 1106   2.764   4.256   7.112  0.5988  1.1735  0.3277
    9SAPS   H4S 1107   2.809   4.133   7.217 -0.6567  0.1900 -1.0113
    9SAPS   C25 1108   2.607   4.210   7.266 -0.6176 -0.1577 -0.3897
    9SAPS   H5R 1109   2.521   4.141   7.266 -0.7803  0.0485 -0.0236
    9SAPS   C26 1110   2.614   4.302   7.358  0.5180  0.1612  1.0055
    9SAPS   H6R 1111   2.531   4.316   7.429  0.9136  0.9883  1.3138
    9SAPS   C27 1112   2.726   4.404   7.367 -0.3454 -0.7898 -0.1113
    9SAPS   H7R 1113   2.692   4.482   7.439  1.0767  0.4223 -0.7333
    9SAPS   H7S 1114   2.739   4.456   7.270  3.0016 -1.7329 -0.2140
    9SAPS   C28 1115   2.854   4.333   7.409  0.9542  0.1014 -0.0966
    9SAPS   H8R 1116   2.918   4.309   7.323  1.4465  0.7040  0.0965
    9SAPS   C29 1117   2.897   4.304   7.529 -0.0948  0.4662 -0.4593
    9SAPS   H9R 1118   2.991   4.249   7.538 -0.9938 -0.7794  1.5620
    9SAPS  C210 1119   2.826   4.333   7.661  0.5499  0.2226 -0.3096
    9SAPS  H10R 1120   2.791   4.242   7.713 -1.8085 -0.1350 -2.4350
    9SAPS  H10S 1121   2.725   4.374   7.640  0.2790 -0.6608 -0.7437
    9SAPS  C211 1122   2.897   4.429   7.746 -0.6037 -0.3885 -0.0092
    9SAPS  H11R 1123   2.986   4.476   7.702  1.7220 -3.1511  1.5979
    9SAPS  C212 1124   2.856   4.488   7.861 -0.8318  0.2810  0.1022
    9SAPS  H12R 1125   2.925   4.564   7.900 -1.4765  0.1202  1.6101
    9SAPS  C213 1126   2.736   4.470   7.945 -0.2907 -0.0831  0.1723
    9SAPS  H13R 1127   2.689   4.570   7.947 -0.8194 -0.3068 -0.6590
    9SAPS  H13S 1128   2.780   4.465   8.047  1.0621 -0.4173 -0.4102
    9SAPS  C214 1129   2.635   4.366   7.917 -0.4724  0.3428 -0.2974
    9SAPS  H14R 1130   2.575   4.390   7.828 -1.6743 -1.6964 -0.0616
    9SAPS  C215 1131   2.620   4.248   7.983 -0.0041 -0.5887  0.1538
    9SAPS  H15R 1132   2.524   4.203   7.953 -0.4341  0.8055 -0.5778
    9SAPS  C216 1133   2.699   4.193   8.097  0.5556  0.1402  0.1667
    9SAPS  H16R 1134   2.773   4.272   8.121  0.2632  0.8455 -1.2182
    9SAPS  H16S 1135   2.760   4.106   8.065  1.5249  0.4147  1.2446
    9SAPS  C217 1136   2.613   4.164   8.222 -0.6281  0.2149 -0.0736
    9SAPS  H17R 1137   2.557   4.069   8.204 -1.1185  0.0629  2.1054
    9SAPS  H17S 1138   2.550   4.253   8.245  1.4214  1.1262  2.2626
    9SAPS  C218 1139   2.697   4.142   8.342 -0.7448  0.2288 -0.6143
    9SAPS  H18R 1140   2.761   4.233   8.349 -0.5970 -0.0134  1.2149
    9SAPS  H18S 1141   2.754   4.047   8.330  1.4689  1.6148 -1.2930
    9SAPS  C219 1142   2.602   4.133   8.470 -0.0439  0.4239  0.5788
    9SAPS  H19R 1143   2.533   4.046   8.468 -1.2783  1.4104 -0.9870
    9SAPS  H19S 1144   2.548   4.230   8.475  0.8186  1.0110 -1.2341
    9SAPS  C220 1145   2.678   4.104   8.592 -0.2700  0.2152  0.2215
    9SAPS  H20R 1146   2.743   4.192   8.615  1.7677 -1.3660  0.6405
    9SAPS  H20S 1147   2.732   4.007   8.594 -0.4657  0.1095  2.8731
    9SAPS  H20T 1148   2.613   4.094   8.682  0.8324  1.3867  1.1805
    9SAPS   C33 1149   2.448   4.497   7.024 -0.5218  0.3582  0.2666
    9SAPS   H3X 1150   2.486   4.592   6.981 -1.0079  0.2538 -0.3977
    9SAPS   H3Y 1151   2.536   4.451   7.075  0.3186  1.2160 -0.3808
    9SAPS   C34 1152   2.326   4.543   7.109 -0.2576  0.2959  0.5396
    9SAPS   H4X 1153   2.294   4.442   7.143  1.2877 -0.5981 -0.6179
    9SAPS   H4Y 1154   2.251   4.585   7.039  0.5176 -1.6222 -1.4831
    9SAPS   C35 1155   2.369   4.633   7.233  0.1306  0.0241  0.7752
    9SAPS   H5X 1156   2.426   4.723   7.202 -1.2386 -0.1821 -2.5388
    9SAPS   H5Y 1157   2.435   4.570   7.298 -0.8471 -0.5853  1.1922
    9SAPS   C36 1158   2.251   4.684   7.320  0.3260  0.5800  0.2772
    9SAPS   H6X 1159   2.208   4.599   7.378 -1.7833  0.4789 -1.3245
    9SAPS   H6Y 1160   2.167   4.714   7.253  0.0657 -0.0605  0.3071
    9SAPS   C37 1161   2.289   4.804   7.410 -0.2040  0.0200 -0.3659
    9SAPS   H7X 1162   2.201   4.849   7.461  0.3242 -0.9355  1.4487
    9SAPS   H7Y 1163   2.339   4.882   7.349 -0.7772 -0.4464 -1.4378
    9SAPS   C38 1164   2.395   4.750   7.516 -0.0558 -0.0294 -0.6770
    9SAPS   H8X 1165   2.502   4.765   7.488 -0.1694 -1.1516 -1.7769
    9SAPS   H8Y 1166   2.391   4.641   7.540 -3.0640  0.7007  2.4496
    9SAPS   C39 1167   2.378   4.832   7.642 -0.0991 -0.4506  0.3349
    9SAPS   H9X 1168   2.271   4.825   7.670 -0.3383  2.1099  0.1841
    9SAPS   H9Y 1169   2.398   4.938   7.616 -1.7004 -0.7713 -2.4065
    9SAPS  C310 1170   2.454   4.783   7.760 -0.1031  0.0844  0.1243
    9SAPS  H10X 1171   2.562   4.765   7.738 -0.7819 -1.4856 -2.0997
    9SAPS  H10Y 1172   2.410   4.684   7.786 -0.5027  0.0265 -0.7593
    9SAPS  C311 1173   2.443   4.877   7.875  0.0418 -0.4298  0.5276
    9SAPS  H11X 1174   2.335   4.895   7.894 -0.1145  1.3066 -1.8216
    9SAPS  H11Y 1175   2.487   4.973   7.841  0.0770 -1.2138 -1.7168
    9SAPS  C312 1176   2.499   4.827   8.010  0.1306  0.2023 -0.2185
    9SAPS  H12X 1177   2.609   4.838   8.016  0.2854  2.7324 -4.8498
    9SAPS  H12Y 1178   2.472   4.720   8.022  1.6005 -0.2381 -0.8153
    9SAPS  C313 1179   2.439   4.898   8.132  0.3259 -0.3072  0.4375
    9SAPS  H13X 1180   2.347   4.950   8.100  0.6132  1.9193  3.0850
    9SAPS  H13Y 1181   2.507   4.979   8.167  0.6328 -0.5635  0.4401
    9SAPS  C314 1182   2.403   4.795   8.249 -0.9667 -0.5316  0.3321
    9SAPS  H14X 1183   2.382   4.856   8.339 -1.2970 -2.4382  1.5866
    9SAPS  H14Y 1184   2.498   4.737   8.256 -0.3417  0.3019 -1.1619
    9SAPS  C315 1185   2.288   4.697   8.224  0.4497 -0.6933  0.8743
    9SAPS  H15X 1186   2.329   4.593   8.223 -1.5226 -1.4789  0.3438
    9SAPS  H15Y 1187   2.236   4.701   8.126  0.6221 -1.9070  0.7165
    9SAPS  C316 1188   2.172   4.694   8.329 -0.1272  0.2321 -0.4433
    9SAPS  H16X 1189   2.231   4.697   8.423 -1.0878 -4.4559  0.4357
    9SAPS  H16Y 1190   2.136   4.589   8.334  1.3779 -0.1613  4.2854
    9SAPS  C317 1191   2.077   4.812   8.318 -0.0133 -1.2642  0.1765
    9SAPS  H17X 1192   2.028   4.832   8.221  2.1308 -2.1385 -1.1403
    9SAPS  H17Y 1193   2.140   4.900   8.342 -0.2745 -0.8972 -0.4685
    9SAPS  C318 1194   1.962   4.810   8.412  0.0543  0.0621 -1.2327
    9SAPS  H18X 1195   1.879   4.877   8.380 -0.1482 -0.0916 -1.0304
    9SAPS  H18Y 1196   2.000   4.846   8.510 -2.9802  1.0171 -0.3587
    9SAPS  H18Z 1197   1.922   4.708   8.426  0.1817  0.0590 -0.8871
   10SAPS     N 1198   2.340   3.434   6.131  0.6719 -0.7436  0.0305
   10SAPS   HN1 1199   2.342   3.519   6.191  2.4963 -1.0926  0.4964
   10SAPS   HN2 1200   2.326   3.464   6.032  1.5634 -2.4427 -0.6218
   10SAPS   HN3 1201   2.265   3.369   6.161 -0.4125  0.1060 -0.7883
   10SAPS   C12 1202   2.469   3.358   6.137 -0.0185  0.1219  0.1934
   10SAPS  H12A 1203   2.456   3.267   6.082  1.6844  0.0330 -0.0835
   10SAPS   C13 1204   2.582   3.440   6.070 -0.6939 -0.5001  0.3681
   10SAPS  O13A 1205   2.558   3.549   6.009 -0.5256  0.5902  0.8297
   10SAPS  O13B 1206   2.700   3.395   6.064 -0.0822  0.0111 -0.7226
   10SAPS   C11 1207   2.507   3.322   6.280 -0.6256 -0.2095 -0.0664
   10SAPS  H11A 1208   2.525   3.425   6.319  0.9964 -0.3981 -0.2851
   10SAPS  H11B 1209   2.595   3.255   6.268 -1.3565 -1.9310  3.6310
   10SAPS     P 1210   2.425   3.113   6.428  0.2039  0.0620 -0.0854
   10SAPS   O13 1211   2.304   3.078   6.506 -0.2503 -0.5610  0.1419
   10SAPS   O14 1212   2.466   3.012   6.330  0.0558 -0.2445 -0.4223
   10SAPS   O12 1213   2.402   3.251   6.350 -0.5319  0.2623 -0.2663
   10SAPS   O11 1214   2.552   3.154   6.521 -0.1122  0.4763 -0.1849
   10SAPS    C1 1215   2.530   3.263   6.618  0.0398 -0.2289  0.0099
   10SAPS    HA 1216   2.519   3.357   6.560  1.8624  0.0310  0.0781
   10SAPS    HB 1217   2.441   3.247   6.682 -0.5458  0.5565 -0.5902
   10SAPS    C2 1218   2.637   3.281   6.721 -0.5529  0.5371  0.4946
   10SAPS    HS 1219   2.740   3.269   6.682 -0.0947  0.9634  1.5722
   10SAPS   O21 1220   2.601   3.204   6.835 -0.0041  0.0472  0.7191
   10SAPS   C21 1221   2.692   3.116   6.883  0.4536  0.6061  0.3970
   10SAPS   O22 1222   2.797   3.087   6.833 -0.3511 -0.0874 -0.3394
   10SAPS   C22 1223   2.630   3.033   7.000 -0.2739  0.0305  0.2476
   10SAPS   H2R 1224   2.548   3.092   7.048  0.2298  2.0652 -1.3292
   10SAPS   H2S 1225   2.592   2.935   6.964 -0.4806  0.2094 -0.0240
   10SAPS    C3 1226   2.645   3.429   6.768  0.1697  0.2599  0.2223
   10SAPS    HX 1227   2.543   3.468   6.788 -0.5294 -0.4279 -1.8505
   10SAPS    HY 1228   2.686   3.481   6.679  0.8657 -0.9235 -0.1581
   10SAPS   O31 1229   2.732   3.440   6.887 -0.0349  0.1064 -0.4135
   10SAPS   C31 1230   2.734   3.564   6.930  0.4183  0.1325  0.9552
   10SAPS   O32 1231   2.665   3.657   6.886  0.0440 -0.1969  0.0546
   10SAPS   C32 1232   2.835   3.575   7.045 -0.1774  0.2207 -0.0415
   10SAPS   H2X 1233   2.913   3.629   6.987 -0.4732 -1.5874 -2.2250
   10SAPS   H2Y 1234   2.883   3.478   7.068  1.7705  1.4253  1.0818
   10SAPS   C23 1235   2.742   2.997   7.107 -0.0255 -0.6221 -0.8147
   10SAPS   H3R 1236   2.787   3.085   7.160 -0.0196 -0.2447 -1.4398
   10SAPS   H3S 1237   2.828   2.939   7.066  0.3130 -1.8393  1.5267
   10SAPS   C24 1238   2.678   2.909   7.221  0.4816 -0.2975 -0.3060
   10SAPS   H4R 1239   2.603   2.850   7.165 -0.9980  0.3049  1.0186
   10SAPS   H4S 1240   2.621   2.979   7.285 -1.9314 -1.7849 -0.7890
   10SAPS   C25 1241   2.769   2.820   7.308  0.9281 -0.4410  0.0579
   10SAPS   H5R 1242   2.798   2.723   7.265  2.2846 -0.3768  0.7945
   10SAPS   C26 1243   2.800   2.825   7.438 -0.0274 -0.2289 -0.4801
   10SAPS   H6R 1244   2.871   2.746   7.465  0.3967 -0.6699 -2.7616
   10SAPS   C27 1245   2.766   2.931   7.539  0.2025  0.1122  0.2967
   10SAPS   H7R 1246   2.735   3.024   7.486  0.9756  0.4287  0.3793
   10SAPS   H7S 1247   2.861   2.953   7.593  0.0165 -0.7387  0.9760
   10SAPS   C28 1248   2.668   2.881   7.643  0.0003  0.4994 -0.5023
   10SAPS   H8R 1249   2.566   2.913   7.619 -0.5085  0.3986  1.4692
   10SAPS   C29 1250   2.682   2.799   7.749 -0.1030  0.1170  0.9080
   10SAPS   H9R 1251   2.596   2.789   7.816 -2.5969  3.0054 -1.6590
   10SAPS  C210 1252   2.808   2.730   7.789 -1.2899 -0.3695  0.3202
   10SAPS  H10R 1253   2.829   2.754   7.895 -1.2223  0.3176  0.1521
   10SAPS  H10S 1254   2.886   2.779   7.728 -1.2813  0.2453  0.8143
   10SAPS  C211 1255   2.816   2.579   7.782  0.4243  0.0563 -0.4756
   10SAPS  H11R 1256   2.881   2.539   7.703  0.2947  0.1896 -0.6508
   10SAPS  C212 1257   2.758   2.497   7.865 -0.2268 -0.6485 -0.1823
   10SAPS  H12R 1258   2.779   2.390   7.853  2.9958 -0.2547  1.4156
   10SAPS  C213 1259   2.680   2.539   7.985  0.5627  0.0266 -0.6179
   10SAPS  H13R 1260   2.588   2.587   7.946 -0.9314  0.1451  2.9049
   10SAPS  H13S 1261   2.739   2.605   8.052  0.1525  1.3259 -1.5183
   10SAPS  C214 1262   2.650   2.418   8.066  0.1307  0.6932 -0.2013
   10SAPS  H14R 1263   2.699   2.328   8.027 -2.3624 -0.1191 -1.5742
   10SAPS  C215 1264   2.573   2.414   8.179  0.9658  0.1749  0.3720
   10SAPS  H15R 1265   2.574   2.323   8.242 -0.1700  0.4996  0.8600
   10SAPS  C216 1266   2.493   2.525   8.244 -0.2963 -0.6339  0.7172
   10SAPS  H16R 1267   2.384   2.519   8.229  0.0026 -2.4777 -0.8573
   10SAPS  H16S 1268   2.522   2.619   8.193 -0.6189 -1.8890 -1.8613
   10SAPS  C217 1269   2.514   2.550   8.395  0.1048 -0.4138  0.3029
   10SAPS  H17R 1270   2.508   2.661   8.408  2.7365 -0.1494 -0.4925
   10SAPS  H17S 1271   2.616   2.527   8.433  1.4000  0.9634 -2.1922
   10SAPS  C218 1272   2.408   2.474   8.479 -0.2838 -0.5716  0.6757
   10SAPS  H18R 1273   2.419   2.363   8.473 -1.6077 -0.6512 -0.6365
   10SAPS  H18S 1274   2.310   2.495   8.430 -0.0272  0.6537  0.6733
   10SAPS  C219 1275   2.397   2.514   8.629  0.5183 -0.2160  0.3374
   10SAPS  H19R 1276   2.368   2.620   8.646  2.2631  0.5351 -1.1967
   10SAPS  H19S 1277   2.493   2.501   8.684  1.8264  0.3990 -1.7164
   10SAPS  C220 1278   2.291   2.429   8.701  0.8038  0.1716  0.2982
   10SAPS  H20R 1279   2.302   2.458   8.807  1.7649  1.7698 -0.2254
   10SAPS  H20S 1280   2.312   2.321   8.713 -1.1723 -0.3758 -0.8315
   10SAPS  H20T 1281   2.193   2.433   8.648  1.5840 -3.6112 -1.6142
   10SAPS   C33 1282   2.797   3.663   7.171 -0.8249  0.4930 -0.4133
   10SAPS   H3X 1283   2.737   3.606   7.246  0.2379  0.9079  0.7710
   10SAPS   H3Y 1284   2.761   3.767   7.157  2.9304  1.7192 -1.5854
   10SAPS   C34 1285   2.928   3.689   7.247 -0.2916 -0.1466 -0.4354
   10SAPS   H4X 1286   3.004   3.731   7.178 -2.5231  3.3924 -0.8636
   10SAPS   H4Y 1287   2.970   3.597   7.294 -0.8491 -0.1966 -0.0335
   10SAPS   C35 1288   2.916   3.791   7.359 -0.3609  0.6657 -0.3200
   10SAPS   H5X 1289   2.882   3.889   7.321  0.9160  1.6214  0.9361
   10SAPS   H5Y 1290   3.020   3.807   7.395  0.1629 -0.3429 -1.3337
   10SAPS   C36 1291   2.817   3.762   7.469 -0.8802  0.5602 -0.0479
   10SAPS   H6X 1292   2.835   3.659   7.508 -1.3775  0.4497 -0.1006
   10SAPS   H6Y 1293   2.719   3.752   7.417 -0.3538  0.0224 -0.9520
   10SAPS   C37 1294   2.806   3.860   7.582 -0.2003  0.5663 -0.1074
   10SAPS   H7X 1295   2.727   3.839   7.656 -0.6827  0.9200 -0.5183
   10SAPS   H7Y 1296   2.774   3.960   7.546 -0.3213  0.5126 -0.1481
   10SAPS   C38 1297   2.934   3.868   7.666 -0.2299  0.3248 -0.0688
   10SAPS   H8X 1298   3.025   3.906   7.614  1.2873 -1.5845  1.1381
   10SAPS   H8Y 1299   2.980   3.772   7.698  2.7547  1.4103 -0.9517
   10SAPS   C39 1300   2.919   3.960   7.784  0.1858  0.4490 -0.3012
   10SAPS   H9X 1301   2.835   3.925   7.848  0.7397 -0.3476  0.0046
   10SAPS   H9Y 1302   2.887   4.058   7.744  0.8108  1.1280  0.8402
   10SAPS  C310 1303   3.054   3.971   7.862 -0.6562 -0.3107 -0.4182
   10SAPS  H10X 1304   3.122   4.019   7.789 -0.5787  0.7917  0.3597
   10SAPS  H10Y 1305   3.088   3.871   7.894  2.0747  0.4632 -0.8001
   10SAPS  C311 1306   3.054   4.061   7.989  0.3972 -0.8533 -0.1705
   10SAPS  H11X 1307   2.977   4.014   8.054 -0.5611  0.2046 -0.5224
   10SAPS  H11Y 1308   3.018   4.164   7.966  1.1285 -0.5360  0.0841
   10SAPS  C312 1309   3.200   4.079   8.039  0.2308  0.8717 -0.3413
   10SAPS  H12X 1310   3.260   4.125   7.957 -1.0219  0.7474 -1.3383
   10SAPS  H12Y 1311   3.248   3.980   8.059  0.2915  1.0651  0.4786
   10SAPS  C313 1312   3.215   4.175   8.153 -0.5788  0.3403  0.0115
   10SAPS  H13X 1313   3.163   4.271   8.131 -1.7460  0.1904  1.9833
   10SAPS  H13Y 1314   3.319   4.188   8.189 -0.0519  0.7051 -1.6007
   10SAPS  C314 1315   3.139   4.121   8.277 -1.2569 -0.4162 -0.2918
   10SAPS  H14X 1316   3.177   4.018   8.293  1.1345  0.0569 -2.4579
   10SAPS  H14Y 1317   3.032   4.119   8.249 -1.6065  1.4144  0.8453
   10SAPS  C315 1318   3.168   4.197   8.408  0.1598  0.4189 -0.6855
   10SAPS  H15X 1319   3.180   4.305   8.384  1.0288  0.7920  1.3769
   10SAPS  H15Y 1320   3.267   4.171   8.452 -0.2553  2.5294  1.5430
   10SAPS  C316 1321   3.049   4.181   8.501  0.4075 -0.6709  1.3112
   10SAPS  H16X 1322   3.052   4.078   8.543  0.1969 -1.3166 -0.2373
   10SAPS  H16Y 1323   2.957   4.189   8.440  0.7935  0.4690  0.8547
   10SAPS  C317 1324   3.055   4.265   8.620  0.7135 -0.3113 -0.4335
   10SAPS  H17X 1325   2.971   4.224   8.680  1.3635 -1.2043 -0.1227
   10SAPS  H17Y 1326   3.037   4.374   8.612 -1.7944 -0.5877  0.9413
   10SAPS  C318 1327   3.180   4.251   8.694 -0.1955  0.5229  0.0755
   10SAPS  H18X 1328   3.190   4.319   8.782  1.4622  0.7546 -0.2636
   10SAPS  H18Y 1329   3.264   4.283   8.629 -0.3229 -0.0640 -0.3764
   10SAPS  H18Z 1330   3.191   4.145   8.724 -1.1613 -0.9081 -4.4292
   11SAPS     N 1331   5.924   6.520   5.769  0.9653  1.1401 -0.8630
   11SAPS   HN1 1332   5.836   6.469   5.744  0.6794  1.4513 -0.4987
   11SAPS   HN2 1333   5.889   6.610   5.808 -2.0797  0.5528 -2.0791
   11SAPS   HN3 1334   5.980   6.547   5.686 -0.2733  2.0461 -1.4242
   11SAPS   C12 1335   5.993   6.445   5.881  0.5084 -0.2059  0.1102
   11SAPS  H12A 1336   6.023   6.357   5.824 -0.7867  0.0838 -1.0532
   11SAPS   C13 1337   6.122   6.509   5.945  0.1916 -0.1840  0.6037
   11SAPS  O13A 1338   6.156   6.624   5.908  0.0761 -0.2993 -0.8018
   11SAPS  O13B 1339   6.178   6.452   6.045  0.1077 -0.0473 -0.4958
   11SAPS   C11 1340   5.887   6.416   5.989 -0.3205  0.0572  0.1993
   11SAPS  H11A 1341   5.869   6.520   6.023 -0.0388  0.2582 -0.2650
   11SAPS  H11B 1342   5.934   6.357   6.071 -1.4175 -1.6277 -0.3423
   11SAPS     P 1343   5.635   6.352   6.002  0.2492  0.2070  0.1386
   11SAPS   O13 1344   5.578   6.487   5.996  0.0271 -0.0007 -0.1400
   11SAPS   O14 1345   5.554   6.240   5.959  0.5457  0.2897 -0.2156
   11SAPS   O12 1346   5.773   6.355   5.930  0.1955  0.4212  0.1789
   11SAPS   O11 1347   5.680   6.332   6.152  0.0364  0.2328 -0.3394
   11SAPS    C1 1348   5.727   6.215   6.212  0.0049 -0.0248 -0.0308
   11SAPS    HA 1349   5.691   6.120   6.166  1.8999  0.8118 -3.3559
   11SAPS    HB 1350   5.837   6.211   6.198 -0.2174 -1.1776 -1.6015
   11SAPS    C2 1351   5.710   6.203   6.366 -0.1969 -0.4213  0.0049
   11SAPS    HS 1352   5.674   6.101   6.391 -0.6581 -0.6098 -1.3636
   11SAPS   O21 1353   5.617   6.310   6.403 -0.5080  0.0275  0.5693
   11SAPS   C21 1354   5.487   6.305   6.361  0.2822  0.9917  0.1285
   11SAPS   O22 1355   5.438   6.212   6.307  0.1582 -0.1170  0.0633
   11SAPS   C22 1356   5.419   6.431   6.400 -0.1621 -1.2100  0.0855
   11SAPS   H2R 1357   5.462   6.474   6.493 -0.4832  1.9818 -1.1528
   11SAPS   H2S 1358   5.444   6.493   6.311  0.2113  1.2512  1.8602
   11SAPS    C3 1359   5.840   6.228   6.447 -1.2938  0.1709  0.1154
   11SAPS    HX 1360   5.892   6.317   6.405  1.5510 -1.2439  0.4874
   11SAPS    HY 1361   5.901   6.140   6.419 -1.4420 -0.1900  0.9038
   11SAPS   O31 1362   5.822   6.229   6.587  0.1722  0.2790  0.7782
   11SAPS   C31 1363   5.804   6.348   6.643 -0.3035  0.6462  0.5777
   11SAPS   O32 1364   5.814   6.456   6.593  0.3968  0.2208 -0.0167
   11SAPS   C32 1365   5.754   6.328   6.790  0.1229 -0.4317  0.6439
   11SAPS   H2X 1366   5.820   6.382   6.861  1.0510 -0.0014 -0.5275
   11SAPS   H2Y 1367   5.764   6.218   6.806  2.4086 -0.2124  0.8412
   11SAPS   C23 1368   5.274   6.410   6.433  0.3669 -0.3478 -0.5498
   11SAPS   H3R 1369   5.224   6.356   6.350  1.8732 -0.4294 -1.4106
   11SAPS   H3S 1370   5.224   6.509   6.446  0.2433 -0.7006  1.9546
   11SAPS   C24 1371   5.258   6.339   6.572 -0.4388  0.1433 -0.6657
   11SAPS   H4R 1372   5.307   6.397   6.654  1.1974  0.7763 -2.0728
   11SAPS   H4S 1373   5.289   6.234   6.556 -0.6003  0.1760 -1.1888
   11SAPS   C25 1374   5.112   6.319   6.598  0.6019 -0.4497 -1.3805
   11SAPS   H5R 1375   5.051   6.298   6.509 -1.8483 -2.1105  0.6161
   11SAPS   C26 1376   5.058   6.318   6.725 -0.3356  0.4213 -0.4518
   11SAPS   H6R 1377   4.949   6.310   6.738 -0.3094  0.7940  0.0117
   11SAPS   C27 1378   5.129   6.339   6.859  0.6596 -0.1585  0.2178
   11SAPS   H7R 1379   5.234   6.312   6.837  0.9907  1.8463 -0.7856
   11SAPS   H7S 1380   5.099   6.264   6.935  1.4103 -1.2859 -0.5845
   11SAPS   C28 1381   5.121   6.487   6.899 -0.2229  0.2178  0.4833
   11SAPS   H8R 1382   5.100   6.557   6.817  0.9508  0.9888  0.8316
   11SAPS   C29 1383   5.134   6.530   7.026  0.2152  0.5844  0.0583
   11SAPS   H9R 1384   5.120   6.638   7.041  1.1250  0.7428 -0.2711
   11SAPS  C210 1385   5.155   6.448   7.151 -0.1752 -0.5623  0.3960
   11SAPS  H10R 1386   5.157   6.338   7.132  0.1364 -0.7993  1.7827
   11SAPS  H10S 1387   5.071   6.480   7.215 -1.4102 -1.1137 -0.9101
   11SAPS  C211 1388   5.283   6.504   7.216  0.0410 -0.0825  0.7465
   11SAPS  H11R 1389   5.376   6.482   7.162  0.7990  0.0830  1.9703
   11SAPS  C212 1390   5.279   6.581   7.330  0.6858 -0.9849 -0.0088
   11SAPS  H12R 1391   5.371   6.626   7.372 -0.4520 -1.1636  2.7825
   11SAPS  C213 1392   5.162   6.617   7.406 -0.2509  0.0435  0.9383
   11SAPS  H13R 1393   5.085   6.669   7.345 -0.7104 -1.2812  0.3543
   11SAPS  H13S 1394   5.187   6.708   7.464  2.8904 -0.1281 -0.0469
   11SAPS  C214 1395   5.105   6.513   7.494  0.5155 -0.1468 -0.3915
   11SAPS  H14R 1396   5.153   6.414   7.496  0.9338 -0.0925 -3.7558
   11SAPS  C215 1397   5.003   6.531   7.580 -0.5616 -0.3312  0.0645
   11SAPS  H15R 1398   4.962   6.449   7.641 -0.4876 -1.1640 -0.9781
   11SAPS  C216 1399   4.930   6.661   7.597 -0.1036 -0.8340 -0.5290
   11SAPS  H16R 1400   4.821   6.649   7.584 -0.1087  0.1371 -1.4623
   11SAPS  H16S 1401   4.962   6.741   7.527 -5.0108  0.4301 -1.4884
   11SAPS  C217 1402   4.942   6.719   7.744  0.4222  0.6259 -0.9086
   11SAPS  H17R 1403   4.897   6.819   7.727 -2.4053 -1.1132 -4.2702
   11SAPS  H17S 1404   5.045   6.727   7.785 -0.0437 -2.0606  0.9302
   11SAPS  C218 1405   4.864   6.644   7.851 -0.3308  0.1267 -0.8422
   11SAPS  H18R 1406   4.906   6.542   7.846  1.9394  1.0266 -0.6444
   11SAPS  H18S 1407   4.754   6.636   7.840 -0.4635 -0.9492  1.0611
   11SAPS  C219 1408   4.869   6.688   8.000 -0.4128 -0.0780  0.5187
   11SAPS  H19R 1409   4.822   6.787   7.980 -0.0464 -0.3666 -1.9214
   11SAPS  H19S 1410   4.972   6.702   8.039 -0.5975 -0.8546  1.3023
   11SAPS  C220 1411   4.783   6.619   8.102 -0.7389 -0.2177  0.5899
   11SAPS  H20R 1412   4.766   6.680   8.194  0.0201 -0.9346  1.2199
   11SAPS  H20S 1413   4.829   6.520   8.126 -1.8065 -1.0736 -0.8228
   11SAPS  H20T 1414   4.685   6.590   8.057 -0.5674  0.6346 -0.3439
   11SAPS   C33 1415   5.602   6.362   6.811 -0.4177 -0.9499 -0.3638
   11SAPS   H3X 1416   5.583   6.311   6.908 -1.4975 -1.3098 -0.7634
   11SAPS   H3Y 1417   5.540   6.300   6.743 -1.4778 -0.3888  0.0827
   11SAPS   C34 1418   5.570   6.516   6.810  0.5832 -0.1665 -0.7268
   11SAPS   H4X 1419   5.466   6.533   6.845  1.3082 -0.9734  1.9885
   11SAPS   H4Y 1420   5.577   6.556   6.707  0.2299 -0.1371 -0.7420
   11SAPS   C35 1421   5.665   6.616   6.891 -0.4551 -0.6893  0.0107
   11SAPS   H5X 1422   5.665   6.712   6.835 -2.0285 -0.7225 -0.0693
   11SAPS   H5Y 1423   5.765   6.569   6.888 -0.1428 -0.2261  2.4347
   11SAPS   C36 1424   5.620   6.636   7.035  0.1669  0.2553  0.1961
   11SAPS   H6X 1425   5.637   6.545   7.097  0.3063  0.4725  0.4787
   11SAPS   H6Y 1426   5.513   6.667   7.037 -0.1950 -0.9611  0.1067
   11SAPS   C37 1427   5.711   6.748   7.092 -0.7279 -0.4566 -0.9307
   11SAPS   H7X 1428   5.693   6.838   7.030 -0.8711 -0.1328 -0.4256
   11SAPS   H7Y 1429   5.819   6.727   7.085 -0.2948  0.8545  1.2815
   11SAPS   C38 1430   5.693   6.790   7.242  0.3321  0.0172  0.0696
   11SAPS   H8X 1431   5.589   6.818   7.269  1.0087  1.0015  1.7293
   11SAPS   H8Y 1432   5.754   6.882   7.258 -0.2453  0.6937 -1.5049
   11SAPS   C39 1433   5.736   6.682   7.337  0.6533 -0.0630  0.7368
   11SAPS   H9X 1434   5.842   6.656   7.316  0.7136 -0.4688  1.5352
   11SAPS   H9Y 1435   5.684   6.585   7.322 -0.1624  0.3851  0.6743
   11SAPS  C310 1436   5.744   6.738   7.484 -0.4010 -0.1503  0.6125
   11SAPS  H10X 1437   5.645   6.778   7.514 -1.4790 -1.9663 -0.3993
   11SAPS  H10Y 1438   5.817   6.819   7.465  2.6207 -2.6959  1.0287
   11SAPS  C311 1439   5.804   6.638   7.579 -0.2603 -0.5224 -0.5670
   11SAPS  H11X 1440   5.899   6.593   7.543  0.4126 -0.7607  1.4355
   11SAPS  H11Y 1441   5.725   6.564   7.602  1.1623 -1.3124  2.0588
   11SAPS  C312 1442   5.850   6.709   7.707 -0.0427  0.1664 -0.2709
   11SAPS  H12X 1443   5.930   6.783   7.686  0.0855  0.3218  0.7415
   11SAPS  H12Y 1444   5.900   6.633   7.772 -1.1863 -1.4751 -1.2669
   11SAPS  C313 1445   5.745   6.787   7.791  0.5500  0.1746  0.1762
   11SAPS  H13X 1446   5.663   6.719   7.824  0.3833  0.0185 -0.5474
   11SAPS  H13Y 1447   5.704   6.866   7.725  1.4569  1.1997  0.8291
   11SAPS  C314 1448   5.803   6.858   7.917  0.2235  0.2741  0.1298
   11SAPS  H14X 1449   5.877   6.935   7.885  0.8842 -0.4557 -0.1037
   11SAPS  H14Y 1450   5.857   6.792   7.987 -1.3650 -2.1286 -0.8408
   11SAPS  C315 1451   5.691   6.917   7.995 -0.1801 -0.5711 -0.8278
   11SAPS  H15X 1452   5.654   6.834   8.059 -3.9203 -0.7392 -3.0656
   11SAPS  H15Y 1453   5.607   6.946   7.929 -0.2282  1.3899  0.0794
   11SAPS  C316 1454   5.738   7.039   8.081  0.2897 -0.3066  0.2628
   11SAPS  H16X 1455   5.759   7.128   8.019  1.6321 -0.3247  0.6728
   11SAPS  H16Y 1456   5.837   7.011   8.124 -0.4949  0.4261  2.6435
   11SAPS  C317 1457   5.655   7.062   8.202 -0.4634  0.7812  0.6363
   11SAPS  H17X 1458   5.660   6.980   8.277 -2.3125 -0.4431 -0.5449
   11SAPS  H17Y 1459   5.551   7.067   8.165 -0.4978  4.0827  1.0409
   11SAPS  C318 1460   5.676   7.194   8.275  0.9222 -0.5911 -0.0519
   11SAPS  H18X 1461   5.623   7.194   8.372 -0.0370 -0.2025 -0.5657
   11SAPS  H18Y 1462   5.630   7.281   8.224  1.4381 -0.7075 -0.7260
   11SAPS  H18Z 1463   5.785   7.215   8.290  0.8037 -0.1548  0.2006
   12SAPS     N 1464   4.337   0.941   6.050 -0.1236  0.4881  0.0443
   12SAPS   HN1 1465   4.396   1.020   6.085  1.0737 -0.3349 -0.0654
   12SAPS   HN2 1466   4.260   0.941   6.119 -0.5968 -1.6998 -0.4331
   12SAPS   HN3 1467   4.392   0.854   6.036  0.5343  1.1862 -1.9199
   12SAPS   C12 1468   4.274   0.958   5.912  0.4998  0.0266 -0.1700
   12SAPS  H12A 1469   4.196   1.031   5.927  0.1311 -1.0486  3.5244
   12SAPS   C13 1470   4.378   1.001   5.803  0.1538 -0.1959 -0.2241
   12SAPS  O13A 1471   4.497   0.974   5.827 -0.0657  0.0621 -0.4730
   12SAPS  O13B 1472   4.340   1.036   5.686  0.5091  0.0294  0.5066
   12SAPS   C11 1473   4.203   0.817   5.877  0.1432 -0.3115 -0.6732
   12SAPS  H11A 1474   4.279   0.739   5.858  3.1186  1.8054  2.0937
   12SAPS  H11B 1475   4.149   0.821   5.779  1.0690 -0.9326 -1.2136
   12SAPS     P 1476   3.975   0.758   5.971  0.2452  0.4889  0.1649
   12SAPS   O13 1477   3.903   0.884   5.939 -0.7472 -0.0950 -0.5567
   12SAPS   O14 1478   3.950   0.658   5.866  0.1014 -0.1868  0.2342
   12SAPS   O12 1479   4.124   0.796   5.988 -0.1713 -0.1369  0.4480
   12SAPS   O11 1480   3.921   0.703   6.106 -0.0083 -0.7554 -0.4379
   12SAPS    C1 1481   3.970   0.583   6.171  0.0187 -0.0414 -0.4681
   12SAPS    HA 1482   3.879   0.527   6.203 -0.1521 -0.8144 -2.2517
   12SAPS    HB 1483   4.004   0.493   6.115  1.7383  0.7476 -0.7155
   12SAPS    C2 1484   4.067   0.623   6.287  0.3947 -0.3947  0.0167
   12SAPS    HS 1485   4.162   0.661   6.243  0.6213 -0.3169  0.5771
   12SAPS   O21 1486   4.105   0.508   6.368  0.7284 -0.1498  0.0994
   12SAPS   C21 1487   4.219   0.444   6.344  0.0013  1.3049  0.5859
   12SAPS   O22 1488   4.295   0.467   6.251  0.6483 -0.1685  0.0580
   12SAPS   C22 1489   4.240   0.332   6.445  0.4248 -0.2902  0.7994
   12SAPS   H2R 1490   4.280   0.377   6.538  0.5466  0.4916  0.3653
   12SAPS   H2S 1491   4.137   0.291   6.455 -0.5750  2.4257  2.2140
   12SAPS    C3 1492   3.996   0.725   6.380  0.4663 -0.2085 -0.2493
   12SAPS    HX 1493   3.894   0.685   6.400  0.6872 -0.0140  1.2780
   12SAPS    HY 1494   3.976   0.807   6.307 -0.9983  0.5305  0.9539
   12SAPS   O31 1495   4.059   0.772   6.499  0.0725 -0.3794 -0.2891
   12SAPS   C31 1496   4.041   0.702   6.606  0.2142  0.1759  0.5482
   12SAPS   O32 1497   3.971   0.603   6.606 -0.5928  0.4107  0.1116
   12SAPS   C32 1498   4.133   0.741   6.722 -0.5097 -0.0019  0.3583
   12SAPS   H2X 1499   4.230   0.752   6.671 -1.0639  1.5642 -0.4027
   12SAPS   H2Y 1500   4.145   0.653   6.788 -1.6651 -0.8728 -0.5672
   12SAPS   C23 1501   4.316   0.210   6.390  0.0556 -0.4859 -0.1487
   12SAPS   H3R 1502   4.421   0.234   6.363 -0.2443 -0.0023 -0.8927
   12SAPS   H3S 1503   4.271   0.169   6.298  1.1607 -0.6660 -0.6119
   12SAPS   C24 1504   4.333   0.097   6.496  0.4865 -0.1816 -0.5953
   12SAPS   H4R 1505   4.373   0.008   6.443 -0.1132  0.0254 -1.3945
   12SAPS   H4S 1506   4.231   0.080   6.537  1.3377  1.5042  2.3678
   12SAPS   C25 1507   4.423   0.129   6.615 -0.3405  0.9764  0.6623
   12SAPS   H5R 1508   4.527   0.153   6.589 -0.3730  1.0891  0.6356
   12SAPS   C26 1509   4.386   0.135   6.745  0.3142  0.3613 -1.1478
   12SAPS   H6R 1510   4.461   0.153   6.823 -1.2579  0.1940  0.4185
   12SAPS   C27 1511   4.249   0.105   6.812 -0.5518 -0.1797  0.3453
   12SAPS   H7R 1512   4.259   0.111   6.922  0.1145  0.7095  0.2460
   12SAPS   H7S 1513   4.230  -0.004   6.802 -0.0941 -0.2757  0.5003
   12SAPS   C28 1514   4.135   0.200   6.774  0.0424 -0.1315 -0.2646
   12SAPS   H8R 1515   4.060   0.169   6.700 -1.2305  1.8238  0.1628
   12SAPS   C29 1516   4.131   0.329   6.808  0.0430  0.0986 -0.2620
   12SAPS   H9R 1517   4.042   0.387   6.781  1.3115  1.4016 -1.7780
   12SAPS  C210 1518   4.227   0.399   6.908  0.2118  0.7392 -0.0990
   12SAPS  H10R 1519   4.285   0.322   6.964 -0.9841 -0.4148 -0.4180
   12SAPS  H10S 1520   4.178   0.463   6.984  2.3059 -1.7869  3.5527
   12SAPS  C211 1521   4.344   0.476   6.849  0.7848  0.2454  0.1073
   12SAPS  H11R 1522   4.371   0.456   6.745  1.9782 -0.2810  0.5172
   12SAPS  C212 1523   4.417   0.571   6.911  0.3690  0.4533 -0.0724
   12SAPS  H12R 1524   4.496   0.614   6.848  0.7350 -1.8859 -1.2254
   12SAPS  C213 1525   4.404   0.610   7.058 -0.0978  0.4295  0.1939
   12SAPS  H13R 1526   4.458   0.534   7.118 -2.0268 -0.4538  0.8405
   12SAPS  H13S 1527   4.301   0.599   7.097 -0.4930 -0.5914 -1.1082
   12SAPS  C214 1528   4.484   0.739   7.084 -0.9643  0.1003  0.7508
   12SAPS  H14R 1529   4.458   0.822   7.016 -0.7299 -0.4893 -0.0578
   12SAPS  C215 1530   4.577   0.756   7.184 -0.1446 -0.1793  0.5517
   12SAPS  H15R 1531   4.647   0.841   7.175  2.1744 -2.0378  0.7153
   12SAPS  C216 1532   4.622   0.659   7.290  0.2945 -0.7369  0.4521
   12SAPS  H16R 1533   4.683   0.577   7.248 -0.0235  0.4026 -2.3751
   12SAPS  H16S 1534   4.542   0.606   7.346 -1.0615 -1.1276 -1.8191
   12SAPS  C217 1535   4.711   0.731   7.393  0.1422  0.7540 -0.1316
   12SAPS  H17R 1536   4.795   0.778   7.338  0.3466 -1.6321 -1.9459
   12SAPS  H17S 1537   4.764   0.654   7.455 -1.5716  1.7442  2.6664
   12SAPS  C218 1538   4.631   0.825   7.485  0.1923  0.3449 -0.2502
   12SAPS  H18R 1539   4.555   0.767   7.541 -0.0152 -0.7054 -1.5758
   12SAPS  H18S 1540   4.582   0.887   7.407  0.1106 -1.7213 -1.9021
   12SAPS  C219 1541   4.720   0.906   7.581 -0.0268 -0.0888  0.2715
   12SAPS  H19R 1542   4.655   0.989   7.617  1.4333  1.0185  0.3975
   12SAPS  H19S 1543   4.805   0.951   7.526 -0.4900 -0.1067 -0.4617
   12SAPS  C220 1544   4.764   0.833   7.707 -0.2479  0.1458 -0.4874
   12SAPS  H20R 1545   4.779   0.910   7.785  1.0188 -0.6162  0.0535
   12SAPS  H20S 1546   4.866   0.793   7.685 -0.1963  1.3249 -2.5566
   12SAPS  H20T 1547   4.700   0.747   7.734 -1.1981  1.4619  1.5121
   12SAPS   C33 1548   4.096   0.867   6.798  0.1223 -0.5242  0.4148
   12SAPS   H3X 1549   3.997   0.870   6.849  0.4848 -0.3662  1.1138
   12SAPS   H3Y 1550   4.125   0.952   6.733 -4.4483  1.7941  1.1719
   12SAPS   C34 1551   4.192   0.877   6.921 -0.2554 -0.9822  0.0321
   12SAPS   H4X 1552   4.293   0.896   6.878 -0.3787  1.1295  0.6212
   12SAPS   H4Y 1553   4.186   0.784   6.981  1.5681 -0.4519  1.0539
   12SAPS   C35 1554   4.150   0.999   7.010 -0.0394  0.5534  0.8513
   12SAPS   H5X 1555   4.043   0.987   7.035  0.4938 -3.8947  1.4025
   12SAPS   H5Y 1556   4.171   1.093   6.955 -0.9090 -0.0339 -0.5011
   12SAPS   C36 1557   4.215   1.007   7.154  0.0684 -0.1057 -0.3560
   12SAPS   H6X 1558   4.212   1.112   7.190  1.5785 -0.3353  0.5243
   12SAPS   H6Y 1559   4.325   0.991   7.142  0.3207  1.1946  0.1162
   12SAPS   C37 1560   4.153   0.911   7.263  0.2400  0.5934 -0.8817
   12SAPS   H7X 1561   4.167   0.816   7.208  2.4976  1.1396 -1.3115
   12SAPS   H7Y 1562   4.047   0.940   7.281  0.6341  0.9231  1.0618
   12SAPS   C38 1563   4.233   0.917   7.395 -0.8592 -0.1192  0.0870
   12SAPS   H8X 1564   4.225   1.020   7.436 -0.0068 -0.3387  0.8420
   12SAPS   H8Y 1565   4.339   0.882   7.395 -1.2039 -1.1936 -0.5893
   12SAPS   C39 1566   4.158   0.823   7.489  0.2167  0.9793 -0.1702
   12SAPS   H9X 1567   4.160   0.716   7.458  1.5293  0.0612  2.8738
   12SAPS   H9Y 1568   4.051   0.848   7.507 -0.0134  1.2056 -1.7336
   12SAPS  C310 1569   4.211   0.821   7.636  0.5353 -0.3045 -0.1148
   12SAPS  H10X 1570   4.223   0.918   7.689  0.3563  0.3783 -1.3120
   12SAPS  H10Y 1571   4.318   0.791   7.644  1.1459  2.0753  1.0936
   12SAPS  C311 1572   4.137   0.730   7.730  0.2287  0.3697 -0.1291
   12SAPS  H11X 1573   4.148   0.621   7.711  1.3142  0.4128  0.2031
   12SAPS  H11Y 1574   4.030   0.748   7.709 -0.4547  0.3067  3.0588
   12SAPS  C312 1575   4.177   0.752   7.877 -0.7460 -0.7542 -0.5549
   12SAPS  H12X 1576   4.129   0.843   7.920 -0.2965 -1.3865  1.3196
   12SAPS  H12Y 1577   4.286   0.774   7.875 -1.1180  1.2981 -3.8300
   12SAPS  C313 1578   4.144   0.640   7.977 -0.3669  0.8359 -0.4139
   12SAPS  H13X 1579   4.224   0.564   7.974  0.3913  1.6240 -0.2577
   12SAPS  H13Y 1580   4.046   0.591   7.958  1.1953 -1.9786 -1.4185
   12SAPS  C314 1581   4.157   0.691   8.118  0.3095 -0.3186 -0.3341
   12SAPS  H14X 1582   4.062   0.746   8.138  0.0963 -0.9597  0.4358
   12SAPS  H14Y 1583   4.247   0.752   8.140  0.2032  0.1597 -1.2191
   12SAPS  C315 1584   4.149   0.569   8.213  0.0343  0.0990 -0.3929
   12SAPS  H15X 1585   4.248   0.519   8.206 -0.3286 -0.4501 -1.7975
   12SAPS  H15Y 1586   4.066   0.505   8.177 -0.1939  0.9032 -1.3158
   12SAPS  C316 1587   4.111   0.606   8.354 -0.4404 -0.4709 -0.1798
   12SAPS  H16X 1588   4.008   0.648   8.367 -0.2957  1.0941 -3.6863
   12SAPS  H16Y 1589   4.183   0.683   8.389 -1.5818  0.5414  0.0074
   12SAPS  C317 1590   4.140   0.491   8.458  0.0337 -0.1153  0.0008
   12SAPS  H17X 1591   4.243   0.450   8.447  0.2307  0.4556 -0.3384
   12SAPS  H17Y 1592   4.072   0.407   8.435  1.0021 -1.4600  1.9295
   12SAPS  C318 1593   4.142   0.541   8.600  0.5324  0.2057 -0.9127
   12SAPS  H18X 1594   4.044   0.515   8.647  1.6405 -1.2920  0.6311
   12SAPS  H18Y 1595   4.154   0.651   8.606  0.6257  0.0998  1.6512
   12SAPS  H18Z 1596   4.223   0.488   8.654  1.4499 -0.5069 -2.9599
   13SAPS     N 1597   5.196   4.328   6.114 -0.1943 -0.1700  0.1827
   13SAPS   HN1 1598   5.238   4.372   6.198  0.6325 -1.6416  0.5425
   13SAPS   HN2 1599   5.189   4.229   6.144 -2.7062  0.0724  0.5241
   13SAPS   HN3 1600   5.255   4.347   6.030  0.6668 -1.9518  0.3705
   13SAPS   C12 1601   5.061   4.393   6.089 -0.2059 -0.0675  0.2012
   13SAPS  H12A 1602   5.077   4.483   6.032 -0.9684 -0.4258 -0.5834
   13SAPS   C13 1603   4.956   4.313   6.008  0.1162  0.0287 -0.7273
   13SAPS  O13A 1604   4.991   4.199   5.958 -0.4394  0.5531 -0.5073
   13SAPS  O13B 1605   4.846   4.369   5.979  0.0399  0.0044 -0.3245
   13SAPS   C11 1606   5.000   4.433   6.225 -0.3832 -0.6155 -0.1244
   13SAPS  H11A 1607   4.984   4.343   6.288  1.9385  0.6157  2.3363
   13SAPS  H11B 1608   4.896   4.468   6.209 -0.1285  0.0789 -0.3224
   13SAPS     P 1609   5.037   4.683   6.279  0.3688  0.0233 -0.4297
   13SAPS   O13 1610   5.161   4.755   6.310  0.0616  0.3047 -0.6523
   13SAPS   O14 1611   4.989   4.713   6.140 -0.3395 -0.4423 -0.4355
   13SAPS   O12 1612   5.068   4.534   6.289 -0.2606 -0.2844 -0.1723
   13SAPS   O11 1613   4.916   4.704   6.385 -0.4173 -0.2127 -0.3055
   13SAPS    C1 1614   4.896   4.604   6.487 -0.2668  0.2014 -0.2270
   13SAPS    HA 1615   4.790   4.575   6.502 -0.0236 -1.4445 -1.6602
   13SAPS    HB 1616   4.940   4.504   6.469  1.7552  0.8618  0.8615
   13SAPS    C2 1617   4.940   4.647   6.631  0.5881  0.1810  0.1982
   13SAPS    HS 1618   4.910   4.567   6.701  0.2303 -0.9646 -1.2503
   13SAPS   O21 1619   4.863   4.763   6.666  0.1371  0.0761 -0.2989
   13SAPS   C21 1620   4.850   4.796   6.790  0.3867 -0.3498 -0.1427
   13SAPS   O22 1621   4.887   4.730   6.886 -0.1160  0.1540 -0.1030
   13SAPS   C22 1622   4.798   4.939   6.796 -0.6256  0.5380 -0.4666
   13SAPS   H2R 1623   4.855   5.002   6.725  1.5740  0.7551  1.4233
   13SAPS   H2S 1624   4.701   4.931   6.744  0.3142  2.7209 -2.6277
   13SAPS    C3 1625   5.096   4.670   6.634 -0.4313  0.1307 -0.2343
   13SAPS    HX 1626   5.108   4.768   6.582  0.4030 -0.6480 -1.5145
   13SAPS    HY 1627   5.146   4.589   6.577 -0.1621  3.2765 -4.7714
   13SAPS   O31 1628   5.149   4.681   6.770  0.1789  0.7192  0.3361
   13SAPS   C31 1629   5.154   4.570   6.838  0.4324 -0.0495 -0.8678
   13SAPS   O32 1630   5.130   4.461   6.797 -0.2189 -0.3998  0.1718
   13SAPS   C32 1631   5.191   4.601   6.979 -0.1675 -0.7629  0.3596
   13SAPS   H2X 1632   5.120   4.673   7.025 -0.2842 -0.7943  0.2297
   13SAPS   H2Y 1633   5.292   4.646   6.987 -0.5732  0.4696 -1.2192
   13SAPS   C23 1634   4.793   4.999   6.935  0.2113 -0.3706 -0.0591
   13SAPS   H3R 1635   4.892   5.021   6.982 -0.8161  0.1343  1.9347
   13SAPS   H3S 1636   4.753   4.932   7.014  1.9522  0.7695  1.8404
   13SAPS   C24 1637   4.722   5.132   6.934  0.6258 -0.1850  0.3788
   13SAPS   H4R 1638   4.747   5.184   6.839 -2.3265 -2.2523 -1.6184
   13SAPS   H4S 1639   4.759   5.200   7.014 -1.2473  0.2307  0.9346
   13SAPS   C25 1640   4.572   5.106   6.943  1.0839  0.2547  0.6787
   13SAPS   H5R 1641   4.528   5.071   6.848  0.5526  1.7260  0.3741
   13SAPS   C26 1642   4.497   5.101   7.064 -0.1905  0.1246  0.2282
   13SAPS   H6R 1643   4.391   5.074   7.057 -0.8596  2.8343 -0.7827
   13SAPS   C27 1644   4.545   5.124   7.207 -0.4807  0.0612 -0.0695
   13SAPS   H7R 1645   4.492   5.218   7.233  0.7313  0.3617  1.3385
   13SAPS   H7S 1646   4.656   5.123   7.216 -0.6691 -1.2905  2.3087
   13SAPS   C28 1647   4.501   5.010   7.301  0.4632 -0.1429  0.6495
   13SAPS   H8R 1648   4.436   4.933   7.255  0.2396  1.7044 -2.2342
   13SAPS   C29 1649   4.535   4.984   7.427  0.6318 -0.5987 -0.5685
   13SAPS   H9R 1650   4.469   4.918   7.484  0.9776  0.2618  0.8581
   13SAPS  C210 1651   4.630   5.074   7.507  0.0805 -0.0438  0.3633
   13SAPS  H10R 1652   4.720   5.102   7.448  0.1974 -1.8909 -0.3649
   13SAPS  H10S 1653   4.675   5.017   7.591 -0.7847 -1.3397 -0.0331
   13SAPS  C211 1654   4.548   5.191   7.555 -0.4620 -0.5015  0.1640
   13SAPS  H11R 1655   4.500   5.255   7.479  0.5680  0.3659  0.2401
   13SAPS  C212 1656   4.516   5.205   7.688 -0.4168 -0.8053 -0.0496
   13SAPS  H12R 1657   4.451   5.291   7.711  0.6539  0.2061 -0.7264
   13SAPS  C213 1658   4.556   5.114   7.807  0.1060 -0.0260 -0.3082
   13SAPS  H13R 1659   4.649   5.061   7.778 -0.9214 -1.3045 -1.3026
   13SAPS  H13S 1660   4.474   5.046   7.837  1.5855 -1.4337  0.6333
   13SAPS  C214 1661   4.587   5.195   7.930  0.0673  0.2806  0.0771
   13SAPS  H14R 1662   4.502   5.214   7.996 -1.4266  0.7529 -1.9406
   13SAPS  C215 1663   4.709   5.237   7.977  0.1667 -0.5888  0.1292
   13SAPS  H15R 1664   4.718   5.291   8.073  0.8241  2.2920 -1.4868
   13SAPS  C216 1665   4.844   5.218   7.920  0.6873 -0.2869  0.7602
   13SAPS  H16R 1666   4.881   5.318   7.890 -0.3635 -0.0766  0.1135
   13SAPS  H16S 1667   4.830   5.157   7.828 -1.7364 -1.5086  1.8797
   13SAPS  C217 1668   4.944   5.159   8.027  0.1458 -0.0976  1.1483
   13SAPS  H17R 1669   5.025   5.112   7.967 -1.3336  0.7384 -1.5737
   13SAPS  H17S 1670   4.903   5.076   8.089 -2.8569  1.6499  1.5982
   13SAPS  C218 1671   5.010   5.255   8.124  0.4089  0.4039  0.2160
   13SAPS  H18R 1672   4.941   5.302   8.197  2.5333  3.4657  0.3833
   13SAPS  H18S 1673   5.047   5.342   8.065 -0.3932  0.4503 -0.2283
   13SAPS  C219 1674   5.113   5.194   8.224 -0.1714  0.4803  0.7774
   13SAPS  H19R 1675   5.068   5.111   8.282  0.9889 -1.0310 -0.4282
   13SAPS  H19S 1676   5.169   5.259   8.293  2.5720 -1.0422  0.0494
   13SAPS  C220 1677   5.226   5.122   8.150  0.7763  0.1890  0.0627
   13SAPS  H20R 1678   5.281   5.049   8.214 -1.0094 -0.8294  0.4484
   13SAPS  H20S 1679   5.301   5.197   8.116  1.2300 -0.4395 -0.3550
   13SAPS  H20T 1680   5.187   5.057   8.068 -1.8673 -2.2370  3.1420
   13SAPS   C33 1681   5.186   4.463   7.057  0.5040  0.2413 -0.3597
   13SAPS   H3X 1682   5.258   4.392   7.010  1.1830  0.0051  1.0045
   13SAPS   H3Y 1683   5.092   4.405   7.044  0.2032  0.4947  0.6714
   13SAPS   C34 1684   5.218   4.490   7.207 -0.1104 -0.3728 -0.2459
   13SAPS   H4X 1685   5.152   4.563   7.258  0.5641  0.3282 -0.3657
   13SAPS   H4Y 1686   5.321   4.526   7.225 -0.4237  0.4670 -0.0833
   13SAPS   C35 1687   5.197   4.364   7.302 -0.3154 -0.4066 -0.1484
   13SAPS   H5X 1688   5.242   4.267   7.275 -0.0169 -0.1232 -0.6820
   13SAPS   H5Y 1689   5.088   4.342   7.308 -0.0724 -1.7601 -0.5484
   13SAPS   C36 1690   5.245   4.397   7.442 -0.4678 -0.0312  0.0997
   13SAPS   H6X 1691   5.200   4.492   7.476 -0.4625 -0.1089  0.3281
   13SAPS   H6Y 1692   5.354   4.418   7.439 -0.6109  0.7596  0.3877
   13SAPS   C37 1693   5.202   4.298   7.547 -0.3530  0.5030 -0.1806
   13SAPS   H7X 1694   5.248   4.198   7.537 -2.1497 -0.4613  1.0125
   13SAPS   H7Y 1695   5.093   4.281   7.531 -0.0777  0.3213 -1.9650
   13SAPS   C38 1696   5.232   4.342   7.692  0.4554 -0.3374  0.0720
   13SAPS   H8X 1697   5.192   4.442   7.719 -0.4933 -1.3090  2.3895
   13SAPS   H8Y 1698   5.342   4.340   7.706  0.6444  0.0285 -1.3569
   13SAPS   C39 1699   5.169   4.244   7.795  0.0713 -0.0930  0.2078
   13SAPS   H9X 1700   5.210   4.145   7.765 -2.1399 -0.6600 -1.0591
   13SAPS   H9Y 1701   5.059   4.243   7.780 -0.1035  0.3696  1.4000
   13SAPS  C310 1702   5.211   4.262   7.941 -0.6192  0.0834  0.5755
   13SAPS  H10X 1703   5.178   4.360   7.983 -0.0669 -0.1741  1.6202
   13SAPS  H10Y 1704   5.321   4.272   7.948 -0.4605 -0.4251 -0.9627
   13SAPS  C311 1705   5.156   4.149   8.032 -0.3573 -0.6564  0.3834
   13SAPS  H11X 1706   5.193   4.058   7.981  0.0764  1.1811 -2.6871
   13SAPS  H11Y 1707   5.046   4.159   8.026 -0.0959  2.0479 -0.4552
   13SAPS  C312 1708   5.222   4.152   8.166  0.0268 -0.1770 -0.2751
   13SAPS  H12X 1709   5.208   4.253   8.209 -1.2603 -0.2804 -0.4405
   13SAPS  H12Y 1710   5.332   4.138   8.176 -0.1883 -0.9096  1.0710
   13SAPS  C313 1711   5.171   4.044   8.272  0.3714  0.9272 -0.3157
   13SAPS  H13X 1712   5.238   4.058   8.359  1.6788 -0.8843 -1.0091
   13SAPS  H13Y 1713   5.195   3.945   8.229 -0.3742  0.8052 -0.4579
   13SAPS  C314 1714   5.023   4.049   8.293 -0.2738  1.1456 -0.0417
   13SAPS  H14X 1715   4.963   3.999   8.213  0.1746  0.4990  0.0245
   13SAPS  H14Y 1716   4.998   4.157   8.287 -1.1219  0.8488 -2.5952
   13SAPS  C315 1717   4.963   3.989   8.420  0.2995  0.6283 -0.4906
   13SAPS  H15X 1718   4.862   4.032   8.437  0.6021  0.4845  1.9254
   13SAPS  H15Y 1719   5.024   4.034   8.501 -0.4577  1.6032 -0.4527
   13SAPS  C316 1720   4.961   3.834   8.436 -0.0877  0.5169  0.2613
   13SAPS  H16X 1721   5.061   3.795   8.406  0.2239 -1.1288  3.2909
   13SAPS  H16Y 1722   4.883   3.790   8.371  0.1707  0.7584 -0.2122
   13SAPS  C317 1723   4.943   3.785   8.577 -0.3532 -0.4465 -0.0322
   13SAPS  H17X 1724   5.024   3.832   8.636  0.9608  2.0214 -3.6820
   13SAPS  H17Y 1725   4.946   3.674   8.575 -0.0706 -0.4256 -1.3103
   13SAPS  C318 1726   4.805   3.833   8.635 -0.6445  0.2781  0.9376
   13SAPS  H18X 1727   4.722   3.792   8.574 -1.3689  0.5469  1.7372
   13SAPS  H18Y 1728   4.788   3.942   8.625  0.0087  0.5326  2.4435
   13SAPS  H18Z 1729   4.795   3.809   8.744  1.1032  0.8353  1.2393
   14SAPS     N 1730   5.523   6.674   5.799 -0.6989  0.2269 -0.2396
   14SAPS   HN1 1731   5.543   6.607   5.876 -0.4489  0.0275 -0.4810
   14SAPS   HN2 1732   5.622   6.701   5.777 -0.7394 -0.1608 -0.9017
   14SAPS   HN3 1733   5.461   6.752   5.830 -0.5745 -0.4705  1.8148
   14SAPS   C12 1734   5.457   6.598   5.688 -0.9147 -0.1367 -0.3236
   14SAPS  H12A 1735   5.453   6.662   5.601 -0.1584 -0.9529 -0.9603
   14SAPS   C13 1736   5.525   6.466   5.650  0.1953 -0.4114 -0.5481
   14SAPS  O13A 1737   5.650   6.450   5.673  0.2786  0.0262  0.0335
   14SAPS  O13B 1738   5.465   6.403   5.561 -0.5344 -0.2345  0.4233
   14SAPS   C11 1739   5.310   6.577   5.729 -0.5827 -0.6366 -0.4006
   14SAPS  H11A 1740   5.303   6.517   5.823 -0.8863  0.2247  0.1287
   14SAPS  H11B 1741   5.249   6.527   5.650 -2.0736  0.9268 -0.2594
   14SAPS     P 1742   5.107   6.714   5.828 -0.1139  0.3303 -0.1018
   14SAPS   O13 1743   5.066   6.855   5.857 -0.8748 -0.7953 -0.4260
   14SAPS   O14 1744   5.003   6.641   5.750 -0.3632 -0.0714 -0.0720
   14SAPS   O12 1745   5.248   6.711   5.745  0.0265 -0.2131 -0.5298
   14SAPS   O11 1746   5.128   6.645   5.969 -0.1911 -0.1141 -0.3673
   14SAPS    C1 1747   5.239   6.666   6.052  0.2783 -0.6884  0.0120
   14SAPS    HA 1748   5.263   6.571   6.105  0.3347 -1.8284 -2.0071
   14SAPS    HB 1749   5.331   6.705   6.003 -0.1530  3.8270  2.5539
   14SAPS    C2 1750   5.215   6.776   6.160  0.0862 -0.0311  0.4768
   14SAPS    HS 1751   5.221   6.880   6.119 -2.8971 -0.8096 -2.1330
   14SAPS   O21 1752   5.298   6.740   6.275  0.1890  0.0370 -0.1995
   14SAPS   C21 1753   5.343   6.843   6.337 -0.3361 -0.0503  0.0665
   14SAPS   O22 1754   5.316   6.962   6.307  0.1789 -0.6188 -0.1682
   14SAPS   C22 1755   5.412   6.802   6.464 -0.1147 -0.2756 -0.0569
   14SAPS   H2R 1756   5.407   6.691   6.473  0.6534 -0.3966 -1.0659
   14SAPS   H2S 1757   5.521   6.821   6.460 -0.3898  1.1528 -1.2918
   14SAPS    C3 1758   5.063   6.768   6.199  0.0085 -0.2264  0.2546
   14SAPS    HX 1759   5.046   6.668   6.246 -1.7445  0.4311  1.0834
   14SAPS    HY 1760   5.001   6.777   6.108 -0.0882  2.7353  0.5607
   14SAPS   O31 1761   5.012   6.869   6.289  0.3051 -0.2721  0.2810
   14SAPS   C31 1762   4.970   6.833   6.410  0.2918 -0.0041  0.3292
   14SAPS   O32 1763   4.977   6.717   6.448  0.3311 -0.2763 -0.1852
   14SAPS   C32 1764   4.914   6.953   6.481  0.2718  0.2305 -0.1492
   14SAPS   H2X 1765   4.810   6.932   6.514  0.7632 -1.2797  0.4929
   14SAPS   H2Y 1766   4.921   7.045   6.420 -1.6935 -0.7410 -1.9400
   14SAPS   C23 1767   5.339   6.862   6.589 -0.5234  0.7334 -0.2519
   14SAPS   H3R 1768   5.229   6.863   6.573 -0.5034  0.5929 -0.4038
   14SAPS   H3S 1769   5.363   6.970   6.597 -0.2479  0.6442  0.1048
   14SAPS   C24 1770   5.376   6.789   6.724  0.5499 -0.1249 -0.1320
   14SAPS   H4R 1771   5.481   6.815   6.752  0.3238 -0.4814  1.0742
   14SAPS   H4S 1772   5.369   6.681   6.700  1.7961 -0.5881  1.4445
   14SAPS   C25 1773   5.287   6.816   6.840 -0.1106  0.4823  0.3714
   14SAPS   H5R 1774   5.221   6.740   6.886  0.6745  0.2038  1.0599
   14SAPS   C26 1775   5.282   6.930   6.906  1.3003 -0.3172  0.3390
   14SAPS   H6R 1776   5.199   6.947   6.976  0.4721  0.7091 -0.8598
   14SAPS   C27 1777   5.361   7.049   6.876  0.3246 -0.4193  0.0832
   14SAPS   H7R 1778   5.444   7.029   6.806  1.6036  0.0361  1.4189
   14SAPS   H7S 1779   5.422   7.075   6.966 -0.0012  0.2188  0.1260
   14SAPS   C28 1780   5.284   7.178   6.832  0.0352 -0.8131 -0.1808
   14SAPS   H8R 1781   5.272   7.177   6.723 -0.0032  2.7749 -0.2692
   14SAPS   C29 1782   5.241   7.288   6.907 -0.0010  0.0572  0.3863
   14SAPS   H9R 1783   5.210   7.378   6.851  1.3984  0.6873  0.5834
   14SAPS  C210 1784   5.257   7.305   7.053 -0.4674 -0.0091  0.5560
   14SAPS  H10R 1785   5.326   7.389   7.074  0.3187 -0.2119 -1.1071
   14SAPS  H10S 1786   5.308   7.219   7.101 -0.7508  0.2631  1.3516
   14SAPS  C211 1787   5.119   7.330   7.100  0.3742 -0.2270  0.1170
   14SAPS  H11R 1788   5.048   7.390   7.042  1.3808  0.3756 -0.5063
   14SAPS  C212 1789   5.070   7.281   7.214 -0.3673 -0.2365 -0.4393
   14SAPS  H12R 1790   4.967   7.304   7.246 -0.1457 -0.5121  0.4797
   14SAPS  C213 1791   5.143   7.189   7.317 -0.1355  0.5098  0.2965
   14SAPS  H13R 1792   5.253   7.202   7.308  0.2600 -1.4241  2.1280
   14SAPS  H13S 1793   5.120   7.088   7.278 -1.0115  0.9231 -0.2755
   14SAPS  C214 1794   5.098   7.181   7.460 -0.0409 -0.9255 -0.7681
   14SAPS  H14R 1795   5.009   7.240   7.485  1.2531 -0.1742  2.3129
   14SAPS  C215 1796   5.149   7.105   7.560 -1.1689  0.8837 -0.7259
   14SAPS  H15R 1797   5.100   7.125   7.657 -0.2158  2.6021 -0.5873
   14SAPS  C216 1798   5.262   7.006   7.543  0.1729  0.0922  0.3499
   14SAPS  H16R 1799   5.359   7.058   7.555  0.6100 -1.0836  1.9803
   14SAPS  H16S 1800   5.258   6.958   7.443  1.7333  0.9763 -0.1564
   14SAPS  C217 1801   5.254   6.898   7.659 -0.6046  0.5986  0.0995
   14SAPS  H17R 1802   5.184   6.816   7.635  0.1268 -0.0949  0.3156
   14SAPS  H17S 1803   5.223   6.945   7.755 -0.5939  0.6902  0.0585
   14SAPS  C218 1804   5.394   6.844   7.707  0.5013  0.3107 -0.4713
   14SAPS  H18R 1805   5.460   6.927   7.739  2.5137 -1.0152 -1.0462
   14SAPS  H18S 1806   5.438   6.810   7.610  0.0894  0.2722 -0.6459
   14SAPS  C219 1807   5.384   6.734   7.815 -0.5578 -0.0208 -0.6478
   14SAPS  H19R 1808   5.284   6.746   7.863 -1.6251 -3.0893 -1.9326
   14SAPS  H19S 1809   5.461   6.747   7.893 -0.7959 -3.3466  0.2137
   14SAPS  C220 1810   5.387   6.599   7.751 -0.3387 -0.5047 -0.5771
   14SAPS  H20R 1811   5.305   6.567   7.683 -0.7983 -0.0471 -0.2281
   14SAPS  H20S 1812   5.392   6.521   7.830  2.3227  0.9070  0.7127
   14SAPS  H20T 1813   5.485   6.598   7.698 -0.0495 -0.9032 -0.0432
   14SAPS   C33 1814   4.985   6.975   6.619  0.7991  0.2240 -0.4424
   14SAPS   H3X 1815   5.076   7.037   6.604 -2.2202  5.0512  0.1965
   14SAPS   H3Y 1816   5.019   6.880   6.664  1.2367  0.7964  0.4353
   14SAPS   C34 1817   4.887   7.038   6.723 -0.4169 -0.2420 -0.5128
   14SAPS   H4X 1818   4.792   6.983   6.706 -0.8333 -0.2191  1.6555
   14SAPS   H4Y 1819   4.869   7.148   6.715 -0.9709 -0.4061 -1.7492
   14SAPS   C35 1820   4.928   7.000   6.865  0.7069  0.1873 -0.1908
   14SAPS   H5X 1821   5.008   7.072   6.894  0.7345 -0.4939  1.5228
   14SAPS   H5Y 1822   4.963   6.895   6.877  0.4916  0.2476  1.1046
   14SAPS   C36 1823   4.815   7.032   6.967 -0.1253  0.1466 -0.1824
   14SAPS   H6X 1824   4.718   6.984   6.941  0.5179 -1.2462 -0.0645
   14SAPS   H6Y 1825   4.795   7.141   6.966  1.1821  0.3933 -0.0647
   14SAPS   C37 1826   4.857   7.007   7.111  0.2911  1.2199  0.4775
   14SAPS   H7X 1827   4.952   7.054   7.145  1.6388  0.7769 -2.5300
   14SAPS   H7Y 1828   4.871   6.897   7.119  1.4812  1.4854  2.3893
   14SAPS   C38 1829   4.753   7.055   7.209  0.6374  0.3754 -0.1261
   14SAPS   H8X 1830   4.654   7.026   7.166  0.1022  2.0536 -0.0509
   14SAPS   H8Y 1831   4.774   7.164   7.215  0.7648  0.2593  1.9647
   14SAPS   C39 1832   4.779   7.009   7.355 -0.0999 -0.1569 -0.3295
   14SAPS   H9X 1833   4.887   7.007   7.378  0.5135  1.3956 -2.9118
   14SAPS   H9Y 1834   4.741   6.906   7.371 -0.8083  0.3454  1.3631
   14SAPS  C310 1835   4.714   7.110   7.451  0.2069 -0.5776 -0.5957
   14SAPS  H10X 1836   4.604   7.111   7.436 -0.1841  0.3861  1.8913
   14SAPS  H10Y 1837   4.755   7.214   7.445  1.9132 -1.2627 -1.1186
   14SAPS  C311 1838   4.725   7.056   7.595  0.2339  0.0130 -0.1878
   14SAPS  H11X 1839   4.824   7.008   7.611 -1.6460 -3.4228  1.7977
   14SAPS  H11Y 1840   4.641   6.984   7.607  0.9743 -0.6767  0.8894
   14SAPS  C312 1841   4.713   7.173   7.692 -0.5485  0.1633 -0.3853
   14SAPS  H12X 1842   4.615   7.224   7.674  0.9641  3.2823 -0.0823
   14SAPS  H12Y 1843   4.790   7.252   7.680 -2.4035  2.0873  0.0211
   14SAPS  C313 1844   4.710   7.139   7.844  0.7886 -0.1001 -0.0745
   14SAPS  H13X 1845   4.665   7.222   7.902 -4.1100 -1.4484 -1.6993
   14SAPS  H13Y 1846   4.816   7.121   7.872  0.8039 -0.5923 -0.4200
   14SAPS  C314 1847   4.633   7.016   7.895  0.2828 -0.6728  0.0092
   14SAPS  H14X 1848   4.674   6.922   7.852  1.2799 -0.1392 -0.2229
   14SAPS  H14Y 1849   4.527   7.027   7.864  0.2830  1.4060  0.6994
   14SAPS  C315 1850   4.630   7.014   8.051 -0.5220 -0.4397  0.2940
   14SAPS  H15X 1851   4.607   7.115   8.092  1.4753 -0.4948  1.5966
   14SAPS  H15Y 1852   4.725   6.978   8.094 -1.0497 -1.1645  0.8703
   14SAPS  C316 1853   4.518   6.917   8.093 -0.5984  0.4943  0.0905
   14SAPS  H16X 1854   4.529   6.820   8.039  0.5373  1.2590 -1.0930
   14SAPS  H16Y 1855   4.428   6.977   8.068  0.5466  2.3451  0.2980
   14SAPS  C317 1856   4.530   6.891   8.239 -0.8034 -0.3146 -0.3840
   14SAPS  H17X 1857   4.529   6.988   8.294  1.9016  1.8341 -3.9112
   14SAPS  H17Y 1858   4.628   6.848   8.268 -1.5252  0.0918  2.9039
   14SAPS  C318 1859   4.411   6.807   8.291  0.2161  0.0785  0.3997
   14SAPS  H18X 1860   4.395   6.726   8.217  0.4031 -1.4240  1.9623
   14SAPS  H18Y 1861   4.323   6.874   8.306  0.5089  1.4408 -3.3519
   14SAPS  H18Z 1862   4.443   6.760   8.387  0.4174 -1.9461 -0.6372
   15SAPS     N 1863   5.770   0.259   5.665  0.4605  0.4182 -0.1095
   15SAPS   HN1 1864   5.867   0.257   5.626  0.3189 -1.5919 -0.3900
   15SAPS   HN2 1865   5.699   0.215   5.603 -0.2380  0.0221  0.9527
   15SAPS   HN3 1866   5.747   0.359   5.680  0.7034  0.7344 -1.7390
   15SAPS   C12 1867   5.767   0.164   5.784 -0.0290  0.0234 -0.2207
   15SAPS  H12A 1868   5.669   0.158   5.828  0.0440 -2.0023 -0.2851
   15SAPS   C13 1869   5.801   0.017   5.765 -0.7427 -0.0009 -0.3522
   15SAPS  O13A 1870   5.874  -0.008   5.661  0.6956 -0.4139  0.0590
   15SAPS  O13B 1871   5.798  -0.061   5.863  0.0216  0.2379 -0.5137
   15SAPS   C11 1872   5.864   0.218   5.895 -0.3271  0.5221 -0.0668
   15SAPS  H11A 1873   5.967   0.200   5.857 -0.5818  0.9247 -0.9522
   15SAPS  H11B 1874   5.858   0.157   5.988  0.4056  0.3985 -0.0991
   15SAPS     P 1875   5.951   0.430   6.012 -0.3849  0.0446 -0.1458
   15SAPS   O13 1876   6.084   0.391   5.969 -0.2058  0.5027  0.4791
   15SAPS   O14 1877   5.926   0.576   6.023  0.2469 -0.1632  0.1140
   15SAPS   O12 1878   5.836   0.359   5.922 -0.3401  0.1782 -0.2030
   15SAPS   O11 1879   5.921   0.367   6.158  0.6213 -0.4484 -0.1452
   15SAPS    C1 1880   5.781   0.344   6.193  0.0116 -0.0957  0.6608
   15SAPS    HA 1881   5.720   0.437   6.203  0.7886  0.4346  0.5411
   15SAPS    HB 1882   5.722   0.285   6.120 -0.5868  0.0617  1.0168
   15SAPS    C2 1883   5.766   0.289   6.336  1.1543 -0.7681  0.5941
   15SAPS    HS 1884   5.659   0.278   6.367  0.2614  2.0549 -1.3730
   15SAPS   O21 1885   5.827   0.378   6.431  0.0525 -0.1349 -0.3417
   15SAPS   C21 1886   5.745   0.478   6.476 -0.8432 -0.3647 -0.2343
   15SAPS   O22 1887   5.641   0.505   6.422 -0.4256  0.3937 -0.1776
   15SAPS   C22 1888   5.809   0.530   6.608 -0.1177 -0.6862 -0.0459
   15SAPS   H2R 1889   5.876   0.453   6.651 -1.2712 -1.5054  0.3225
   15SAPS   H2S 1890   5.858   0.628   6.591  0.4470 -0.8100  0.8398
   15SAPS    C3 1891   5.826   0.144   6.339  0.5370  0.3969  0.2741
   15SAPS    HX 1892   5.927   0.155   6.293  0.9327  1.0150  1.2710
   15SAPS    HY 1893   5.775   0.081   6.264 -1.8633  0.8141  1.5151
   15SAPS   O31 1894   5.821   0.082   6.470 -0.0549 -0.2848  0.3294
   15SAPS   C31 1895   5.930   0.099   6.543 -0.5080 -0.1231  0.9652
   15SAPS   O32 1896   6.039   0.125   6.499  0.0850 -0.2654  0.6018
   15SAPS   C32 1897   5.898   0.083   6.692  0.1637 -0.0583  0.2311
   15SAPS   H2X 1898   5.787   0.089   6.705  0.2258  0.4674  0.5900
   15SAPS   H2Y 1899   5.946   0.167   6.748 -1.0329 -0.5197  1.9865
   15SAPS   C23 1900   5.719   0.565   6.727  0.7302  0.3304 -0.5213
   15SAPS   H3R 1901   5.631   0.619   6.687 -1.2723 -1.6792  1.0489
   15SAPS   H3S 1902   5.761   0.633   6.804 -3.8214  1.9218  0.6695
   15SAPS   C24 1903   5.666   0.440   6.805  0.8471  0.3407  0.4018
   15SAPS   H4R 1904   5.646   0.361   6.731 -0.4081  0.8678  0.1631
   15SAPS   H4S 1905   5.574   0.469   6.861 -1.1336 -0.1107 -2.5355
   15SAPS   C25 1906   5.774   0.404   6.896 -0.0717 -0.3942  0.3087
   15SAPS   H5R 1907   5.862   0.366   6.841  1.0653 -0.8216  2.3438
   15SAPS   C26 1908   5.787   0.397   7.028  0.1372  0.2572  0.2047
   15SAPS   H6R 1909   5.882   0.369   7.075  0.6041 -0.5152 -1.1858
   15SAPS   C27 1910   5.681   0.442   7.119 -0.4290  0.1561  0.0780
   15SAPS   H7R 1911   5.624   0.518   7.061  1.7235 -0.3078 -2.7105
   15SAPS   H7S 1912   5.730   0.511   7.191 -0.3542  0.5616 -0.3583
   15SAPS   C28 1913   5.595   0.345   7.201  0.1550  0.5092  0.0614
   15SAPS   H8R 1914   5.509   0.304   7.147  0.2921 -0.9116  0.9181
   15SAPS   C29 1915   5.609   0.321   7.331 -0.5120 -0.0546 -0.7411
   15SAPS   H9R 1916   5.547   0.247   7.385 -0.2810 -0.5620 -1.1652
   15SAPS  C210 1917   5.723   0.371   7.421 -0.8382 -0.3608 -0.1140
   15SAPS  H10R 1918   5.722   0.482   7.429 -1.0193 -0.4626  1.3991
   15SAPS  H10S 1919   5.819   0.351   7.369 -0.0373 -0.6231  1.4319
   15SAPS  C211 1920   5.733   0.303   7.555 -0.0098  0.1144  0.0576
   15SAPS  H11R 1921   5.805   0.220   7.567  0.2624  0.1500 -1.3228
   15SAPS  C212 1922   5.671   0.335   7.671 -0.3012 -0.3868  0.2830
   15SAPS  H12R 1923   5.678   0.271   7.760 -1.8519  1.8355  2.0651
   15SAPS  C213 1924   5.573   0.447   7.699  0.7502 -0.0744  0.1052
   15SAPS  H13R 1925   5.481   0.426   7.641  1.6960 -0.5047 -1.2601
   15SAPS  H13S 1926   5.616   0.534   7.644 -1.8373  0.9259 -0.3740
   15SAPS  C214 1927   5.547   0.473   7.854 -0.2035  0.1501 -0.7500
   15SAPS  H14R 1928   5.503   0.389   7.910  0.8061 -0.1960 -0.4762
   15SAPS  C215 1929   5.576   0.580   7.926  0.5190  0.0616  0.1975
   15SAPS  H15R 1930   5.555   0.578   8.034  0.5136  0.8724  0.2146
   15SAPS  C216 1931   5.642   0.700   7.867  0.5583 -0.0326  0.6247
   15SAPS  H16R 1932   5.576   0.787   7.887  1.5915  1.0598 -0.5091
   15SAPS  H16S 1933   5.663   0.690   7.758 -0.7483 -0.2545  0.3884
   15SAPS  C217 1934   5.774   0.721   7.943 -0.3457  0.2231  0.0247
   15SAPS  H17R 1935   5.774   0.723   8.054  0.2711  2.7090  0.0225
   15SAPS  H17S 1936   5.815   0.821   7.915 -0.0872  0.0977 -0.0554
   15SAPS  C218 1937   5.886   0.613   7.909 -0.0556  0.2712 -0.3615
   15SAPS  H18R 1938   5.913   0.610   7.801 -2.2229 -3.4122 -0.8954
   15SAPS  H18S 1939   5.850   0.513   7.940  0.0984  0.1910 -0.4411
   15SAPS  C219 1940   6.013   0.626   7.996  0.0331  0.1841 -0.7191
   15SAPS  H19R 1941   6.055   0.524   7.982 -3.4131 -1.3339 -0.4232
   15SAPS  H19S 1942   6.000   0.634   8.106 -1.0521  1.6853 -0.9301
   15SAPS  C220 1943   6.101   0.740   7.948 -0.3096 -0.8415  0.3080
   15SAPS  H20R 1944   6.199   0.738   7.999  0.9723 -2.1263 -2.1128
   15SAPS  H20S 1945   6.047   0.835   7.967 -3.0320 -2.3603  0.4417
   15SAPS  H20T 1946   6.122   0.741   7.839  0.8828  0.3538  0.5417
   15SAPS   C33 1947   5.949  -0.054   6.755  0.0308  0.2977 -0.0560
   15SAPS   H3X 1948   5.928  -0.139   6.687  1.7242 -0.6047  0.5297
   15SAPS   H3Y 1949   5.892  -0.072   6.849 -0.5348 -3.6650 -1.0653
   15SAPS   C34 1950   6.096  -0.057   6.788  0.3215  0.6423 -0.2495
   15SAPS   H4X 1951   6.124   0.038   6.839 -0.0119  0.7589 -0.2815
   15SAPS   H4Y 1952   6.164  -0.049   6.701  2.6354 -0.1891  1.4279
   15SAPS   C35 1953   6.145  -0.181   6.866 -0.1939 -0.5985  0.3479
   15SAPS   H5X 1954   6.252  -0.154   6.874 -0.7127  1.5669  0.1371
   15SAPS   H5Y 1955   6.123  -0.272   6.806 -1.2139 -0.4974  0.5587
   15SAPS   C36 1956   6.088  -0.203   7.005  0.2337  0.3535 -0.3829
   15SAPS   H6X 1957   5.978  -0.210   6.988  0.2761 -0.7421 -0.2560
   15SAPS   H6Y 1958   6.098  -0.116   7.073 -1.2891  0.9253 -0.8600
   15SAPS   C37 1959   6.152  -0.325   7.077 -0.2743 -0.1483  0.1513
   15SAPS   H7X 1960   6.262  -0.310   7.069  0.0310 -2.9409 -1.4644
   15SAPS   H7Y 1961   6.123  -0.415   7.019  0.1968 -0.9170  1.0870
   15SAPS   C38 1962   6.115  -0.350   7.214 -0.2913  0.2044 -1.2175
   15SAPS   H8X 1963   6.144  -0.453   7.245  1.3095  0.5941 -1.3708
   15SAPS   H8Y 1964   6.004  -0.343   7.221 -0.0927  3.0710 -0.3230
   15SAPS   C39 1965   6.180  -0.253   7.314  0.4377 -0.0467 -0.1458
   15SAPS   H9X 1966   6.132  -0.152   7.316 -1.4984 -0.9464  0.2989
   15SAPS   H9Y 1967   6.288  -0.248   7.290  0.8615 -0.3550  1.6200
   15SAPS  C310 1968   6.161  -0.304   7.460  0.3339 -0.4719  0.2718
   15SAPS  H10X 1969   6.234  -0.387   7.465 -0.9355 -1.5396  1.9032
   15SAPS  H10Y 1970   6.064  -0.352   7.486  1.5164 -4.2384 -1.9194
   15SAPS  C311 1971   6.198  -0.202   7.566 -0.0313  0.0209  0.6265
   15SAPS  H11X 1972   6.117  -0.126   7.569  0.7184  0.7854  2.1016
   15SAPS  H11Y 1973   6.286  -0.147   7.528 -1.9064  1.8046 -1.2404
   15SAPS  C312 1974   6.209  -0.261   7.705  0.2806  0.1917  1.1253
   15SAPS  H12X 1975   6.287  -0.339   7.714 -0.4668 -0.2221  4.4478
   15SAPS  H12Y 1976   6.115  -0.308   7.740 -0.5399  3.2953  3.2715
   15SAPS  C313 1977   6.247  -0.159   7.814 -0.4595 -0.0425  1.0373
   15SAPS  H13X 1978   6.171  -0.079   7.797 -0.2909 -0.2153 -0.6350
   15SAPS  H13Y 1979   6.346  -0.112   7.802  0.7403 -2.5275  0.8634
   15SAPS  C314 1980   6.252  -0.208   7.950  0.0990 -0.3043 -1.6338
   15SAPS  H14X 1981   6.340  -0.272   7.974  0.3699  0.6732  0.0570
   15SAPS  H14Y 1982   6.158  -0.265   7.963 -0.1980  0.0674 -2.1420
   15SAPS  C315 1983   6.255  -0.099   8.060  0.3248 -0.0513  0.2898
   15SAPS  H15X 1984   6.160  -0.042   8.060  1.0797  1.2168  0.9423
   15SAPS  H15Y 1985   6.338  -0.027   8.040 -0.2040  0.4208 -0.2297
   15SAPS  C316 1986   6.264  -0.150   8.201 -0.4138 -0.1239  0.4320
   15SAPS  H16X 1987   6.272  -0.074   8.283 -0.0138  2.3865 -1.8736
   15SAPS  H16Y 1988   6.362  -0.203   8.198 -0.2049  0.2562  0.4835
   15SAPS  C317 1989   6.163  -0.259   8.242 -0.0776 -0.0309  0.4999
   15SAPS  H17X 1990   6.136  -0.319   8.153  0.7911 -0.6407  0.6446
   15SAPS  H17Y 1991   6.066  -0.220   8.280 -0.7688 -0.2264 -1.0417
   15SAPS  C318 1992   6.225  -0.374   8.325 -0.6458  0.0836  0.4657
   15SAPS  H18X 1993   6.269  -0.452   8.261  0.0557 -0.0873  1.1498
   15SAPS  H18Y 1994   6.139  -0.425   8.374 -0.3276  0.1973  1.1523
   15SAPS  H18Z 1995   6.295  -0.338   8.403  1.3179 -0.9627 -0.7847
   16SAPS     N 1996   6.545   2.134   6.427 -0.0135 -0.1419  0.4291
   16SAPS   HN1 1997   6.560   2.191   6.512 -0.0845 -1.1500  1.1299
   16SAPS   HN2 1998   6.480   2.181   6.360  0.2927  1.2870  1.1298
   16SAPS   HN3 1999   6.497   2.049   6.464  0.5457 -1.4885 -1.8569
   16SAPS   C12 2000   6.669   2.100   6.355  0.2535 -0.3276  0.1919
   16SAPS  H12A 2001   6.644   2.026   6.281  2.5168 -0.7295 -0.2305
   16SAPS   C13 2002   6.724   2.223   6.273 -0.1909  1.0343  0.2233
   16SAPS  O13A 2003   6.647   2.317   6.245  0.7897  0.0724 -0.2325
   16SAPS  O13B 2004   6.828   2.214   6.200  0.0026  0.3416  0.3592
   16SAPS   C11 2005   6.779   2.053   6.453 -0.7732  0.1514 -0.1773
   16SAPS  H11A 2006   6.866   2.019   6.393  0.1107 -1.0910  1.7545
   16SAPS  H11B 2007   6.731   1.969   6.507 -1.1563 -0.4088 -1.3865
   16SAPS     P 2008   6.920   2.142   6.648 -0.1778 -0.1509 -0.4457
   16SAPS   O13 2009   7.020   2.052   6.595  0.1677 -0.6121  0.2361
   16SAPS   O14 2010   6.970   2.271   6.706 -0.5284 -0.0142  0.4488
   16SAPS   O12 2011   6.809   2.167   6.540  0.2557 -0.0662  0.3151
   16SAPS   O11 2012   6.851   2.060   6.757  0.3411  0.1489 -0.2916
   16SAPS    C1 2013   6.725   2.094   6.818 -0.6033 -0.2084  0.0331
   16SAPS    HA 2014   6.639   2.122   6.753 -2.4917  0.5166  2.7430
   16SAPS    HB 2015   6.694   2.016   6.891  0.1817  0.1998  0.8216
   16SAPS    C2 2016   6.731   2.217   6.915  0.0838 -0.8171  0.3606
   16SAPS    HS 2017   6.752   2.304   6.850 -0.6707 -1.6548 -1.0184
   16SAPS   O21 2018   6.830   2.195   7.017 -0.8165 -0.5891 -0.1288
   16SAPS   C21 2019   6.899   2.309   7.050  0.1658  0.4667 -0.6158
   16SAPS   O22 2020   6.876   2.420   7.011 -0.1065 -0.3186 -0.1666
   16SAPS   C22 2021   7.006   2.275   7.152  0.1161 -0.2827 -0.2520
   16SAPS   H2R 2022   7.044   2.171   7.143  0.4070 -0.0331 -2.0276
   16SAPS   H2S 2023   7.094   2.339   7.127  1.1147 -0.7516  1.8837
   16SAPS    C3 2024   6.598   2.233   6.988 -0.6576  0.3130  0.3994
   16SAPS    HX 2025   6.524   2.235   6.905  0.2090  1.6350 -0.3709
   16SAPS    HY 2026   6.597   2.332   7.036 -1.8127  0.7240 -0.4566
   16SAPS   O31 2027   6.578   2.115   7.079 -0.4760  0.6853 -0.2768
   16SAPS   C31 2028   6.602   2.142   7.204 -0.5716  0.3324 -0.1822
   16SAPS   O32 2029   6.622   2.254   7.257 -0.2685  0.4574  0.4386
   16SAPS   C32 2030   6.597   2.009   7.280 -1.3813 -0.3671  0.1593
   16SAPS   H2X 2031   6.677   1.949   7.232 -1.4079 -0.9265  0.8157
   16SAPS   H2Y 2032   6.501   1.955   7.262 -1.7274  0.6603 -1.1726
   16SAPS   C23 2033   6.973   2.314   7.295  0.5108  0.1114 -0.7339
   16SAPS   H3R 2034   6.893   2.241   7.317  0.9381 -0.4512 -1.0418
   16SAPS   H3S 2035   6.929   2.416   7.286  0.8889  0.3021 -0.4388
   16SAPS   C24 2036   7.081   2.323   7.399 -0.4845 -0.6915  0.1357
   16SAPS   H4R 2037   7.057   2.392   7.482  4.4056  1.1447  0.1774
   16SAPS   H4S 2038   7.168   2.378   7.357 -1.3122  0.3273 -0.2428
   16SAPS   C25 2039   7.105   2.189   7.462  0.4796 -0.5525  0.1083
   16SAPS   H5R 2040   7.133   2.121   7.381 -1.0773  1.3865 -2.1153
   16SAPS   C26 2041   7.092   2.141   7.589  0.1670  0.4003  0.3600
   16SAPS   H6R 2042   7.123   2.037   7.607  0.2746  0.3682 -0.0080
   16SAPS   C27 2043   7.040   2.220   7.706 -0.4598  0.0100 -0.4755
   16SAPS   H7R 2044   7.070   2.326   7.691 -1.2758  0.4765  1.1015
   16SAPS   H7S 2045   7.089   2.189   7.801 -2.1050  1.2358  0.7959
   16SAPS   C28 2046   6.891   2.211   7.726  0.0163  0.5869  0.3956
   16SAPS   H8R 2047   6.830   2.281   7.667 -0.9361 -2.1975 -2.0414
   16SAPS   C29 2048   6.830   2.129   7.812 -0.2201 -0.5954 -0.2596
   16SAPS   H9R 2049   6.720   2.120   7.814 -0.3545  1.0671 -0.0463
   16SAPS  C210 2050   6.886   2.026   7.911  0.3621 -0.5221 -0.2301
   16SAPS  H10R 2051   6.982   1.989   7.868 -0.5190 -0.6194 -2.1522
   16SAPS  H10S 2052   6.820   1.938   7.923  0.8523 -1.1391 -1.9623
   16SAPS  C211 2053   6.908   2.100   8.041  0.0061  0.6395  0.1010
   16SAPS  H11R 2054   6.962   2.196   8.033  2.2693 -0.7464 -1.9680
   16SAPS  C212 2055   6.874   2.073   8.171 -0.0494  0.1249 -0.0864
   16SAPS  H12R 2056   6.904   2.139   8.254 -0.0346 -1.2679  1.0384
   16SAPS  C213 2057   6.792   1.962   8.214  0.3302 -0.9495  0.4313
   16SAPS  H13R 2058   6.846   1.903   8.291 -1.0935  0.5262  2.6158
   16SAPS  H13S 2059   6.771   1.878   8.145  1.3986  0.6349 -1.8734
   16SAPS  C214 2060   6.661   2.012   8.265  0.6502 -0.5892  0.4136
   16SAPS  H14R 2061   6.607   2.066   8.186  0.9679  0.4792  0.9077
   16SAPS  C215 2062   6.616   1.988   8.391  0.3483  0.5833 -0.2687
   16SAPS  H15R 2063   6.515   2.027   8.408  0.1157  0.8879 -2.2489
   16SAPS  C216 2064   6.668   1.904   8.502 -0.3468  0.5456  0.4386
   16SAPS  H16R 2065   6.768   1.863   8.477 -0.2180  0.6983  0.7073
   16SAPS  H16S 2066   6.619   1.813   8.542  0.2098  0.3624  0.7083
   16SAPS  C217 2067   6.684   1.991   8.633  0.1326 -0.7746  0.1544
   16SAPS  H17R 2068   6.730   2.091   8.617 -1.3315 -0.2395 -0.8499
   16SAPS  H17S 2069   6.746   1.929   8.701 -1.2201  1.9535  4.0522
   16SAPS  C218 2070   6.549   2.021   8.698 -0.2031  0.0177 -0.4064
   16SAPS  H18R 2071   6.466   2.007   8.625 -0.9899  2.0147  0.0390
   16SAPS  H18S 2072   6.552   2.127   8.732  0.4808 -0.6932  1.8531
   16SAPS  C219 2073   6.537   1.930   8.823  0.3504 -0.4655 -0.5621
   16SAPS  H19R 2074   6.616   1.952   8.899 -1.0708 -1.4118  1.2137
   16SAPS  H19S 2075   6.570   1.828   8.793  0.8349  0.1130 -2.0243
   16SAPS  C220 2076   6.400   1.913   8.885  0.4485 -1.0144  0.1099
   16SAPS  H20R 2077   6.389   1.825   8.951  1.0774 -0.1452  1.3994
   16SAPS  H20S 2078   6.332   1.906   8.798  2.5076 -2.9622 -1.4050
   16SAPS  H20T 2079   6.381   2.002   8.949 -1.9032 -0.7371 -0.9375
   16SAPS   C33 2080   6.632   2.014   7.430 -0.5464 -0.4226 -0.4217
   16SAPS   H3X 2081   6.609   2.104   7.490 -0.2025  0.9891 -2.3375
   16SAPS   H3Y 2082   6.743   2.016   7.425 -0.6131  0.6006 -2.1056
   16SAPS   C34 2083   6.594   1.883   7.505  0.0120  0.0963  0.5460
   16SAPS   H4X 2084   6.637   1.860   7.604  1.0168  1.7547  0.5051
   16SAPS   H4Y 2085   6.636   1.800   7.444 -0.8370  1.4470 -1.9568
   16SAPS   C35 2086   6.441   1.864   7.515  0.8574  0.6961  0.4464
   16SAPS   H5X 2087   6.415   1.757   7.529  1.3846  0.5203  0.1155
   16SAPS   H5Y 2088   6.400   1.881   7.413  0.7507 -3.1805 -0.2185
   16SAPS   C36 2089   6.361   1.947   7.611  0.0376  0.1246  0.7357
   16SAPS   H6X 2090   6.376   2.053   7.582  1.0771 -0.3036 -0.3090
   16SAPS   H6Y 2091   6.411   1.934   7.710 -0.9137 -0.4866  1.1366
   16SAPS   C37 2092   6.209   1.913   7.613 -0.5101  0.1443 -0.3374
   16SAPS   H7X 2093   6.188   1.810   7.648 -3.3369  0.6096 -0.5961
   16SAPS   H7Y 2094   6.164   1.911   7.511  1.2989 -4.0971 -1.1764
   16SAPS   C38 2095   6.138   1.999   7.715  0.2619  0.3802  0.4229
   16SAPS   H8X 2096   6.190   2.097   7.721  2.5388 -0.6517 -1.5406
   16SAPS   H8Y 2097   6.156   1.947   7.811  2.5784  3.7743  1.9461
   16SAPS   C39 2098   5.996   2.022   7.663 -0.0024 -0.9914 -0.2070
   16SAPS   H9X 2099   5.943   1.925   7.675 -1.8800  0.2747  2.0366
   16SAPS   H9Y 2100   5.987   2.043   7.554 -1.7286 -2.6065 -0.4039
   16SAPS  C310 2101   5.913   2.118   7.748  0.1191  0.3546 -0.1961
   16SAPS  H10X 2102   5.812   2.124   7.702  0.8594  3.0926 -1.5636
   16SAPS  H10Y 2103   5.953   2.221   7.751 -0.7122  0.6711  4.6084
   16SAPS  C311 2104   5.897   2.076   7.897 -0.3476  0.2339 -0.1743
   16SAPS  H11X 2105   5.862   2.166   7.953  0.5739 -0.8081  2.1371
   16SAPS  H11Y 2106   5.987   2.038   7.950 -0.2444 -0.0520 -0.5517
   16SAPS  C312 2107   5.792   1.968   7.919  0.7164 -0.5413 -0.7799
   16SAPS  H12X 2108   5.813   1.880   7.856 -0.1861 -1.5249  0.2782
   16SAPS  H12Y 2109   5.700   2.007   7.870  0.2875 -0.1080  0.3516
   16SAPS  C313 2110   5.764   1.916   8.058  0.4925  0.3663 -0.4739
   16SAPS  H13X 2111   5.756   2.003   8.127 -2.4181 -0.4185  0.2448
   16SAPS  H13Y 2112   5.838   1.847   8.106  0.9269  0.4017 -1.0936
   16SAPS  C314 2113   5.630   1.851   8.066 -0.3939  0.0773 -0.1735
   16SAPS  H14X 2114   5.596   1.816   7.966  0.7595 -1.0866 -0.1655
   16SAPS  H14Y 2115   5.560   1.925   8.109  1.6803  1.0465  1.6116
   16SAPS  C315 2116   5.625   1.731   8.161  0.6040 -0.0711 -0.1286
   16SAPS  H15X 2117   5.694   1.657   8.114  2.1695  1.8938 -0.9913
   16SAPS  H15Y 2118   5.526   1.681   8.156  1.2510 -1.3970  0.0459
   16SAPS  C316 2119   5.667   1.766   8.302 -0.3675  0.2934  0.3598
   16SAPS  H16X 2120   5.626   1.866   8.328 -1.4122 -0.5006  1.8327
   16SAPS  H16Y 2121   5.778   1.771   8.301 -0.4290  1.7458 -1.7445
   16SAPS  C317 2122   5.628   1.662   8.410  0.1654  0.0712 -0.4355
   16SAPS  H17X 2123   5.679   1.678   8.508 -1.1888 -0.4902  0.3851
   16SAPS  H17Y 2124   5.664   1.561   8.380  1.7785  0.1449  1.1464
   16SAPS  C318 2125   5.486   1.654   8.455  0.8508  0.0361  0.2994
   16SAPS  H18X 2126   5.477   1.582   8.539  0.2211  0.7786  0.8760
   16SAPS  H18Y 2127   5.405   1.619   8.386  0.3119  1.3795  0.2323
   16SAPS  H18Z 2128   5.462   1.759   8.482  1.6991 -0.0030  1.2135
   17SAPC     N 2129   4.078   5.938  10.525  0.3412 -0.2135 -0.1088
   17SAPC   C12 2130   4.016   5.803  10.491  0.1046 -0.0198  0.4331
   17SAPC  H12A 2131   4.075   5.767  10.408 -0.0641 -0.0293  0.3175
   17SAPC  H12B 2132   3.916   5.821  10.456  0.8776 -0.9506 -2.3878
   17SAPC   C13 2133   4.057   6.037  10.412 -0.3406 -0.0336 -0.8589
   17SAPC  H13A 2134   3.954   6.051  10.385 -0.3494 -0.1000 -0.8623
   17SAPC  H13B 2135   4.092   6.136  10.439  0.1013  0.6534 -3.7774
   17SAPC  H13C 2136   4.107   6.014  10.319  0.0890  2.2041 -1.1973
   17SAPC   C14 2137   4.002   5.998  10.643  0.3188 -0.2859  0.4810
   17SAPC  H14A 2138   4.023   5.942  10.733 -0.4874 -0.0846  0.7932
   17SAPC  H14B 2139   4.035   6.100  10.654  1.4167 -0.4417 -1.0797
   17SAPC  H14C 2140   3.896   6.002  10.621  0.3304 -0.7719  0.3303
   17SAPC   C15 2141   4.218   5.933  10.549  0.1693  0.3632  0.0191
   17SAPC  H15A 2142   4.277   5.896  10.467  0.6476 -2.4630  1.5533
   17SAPC  H15B 2143   4.253   6.026  10.591  0.6191  0.3846 -0.3970
   17SAPC  H15C 2144   4.236   5.859  10.626  0.7092 -0.2186 -0.6641
   17SAPC   C11 2145   4.013   5.703  10.605  0.4521  0.2443 -0.4607
   17SAPC  H11A 2146   3.937   5.626  10.580  1.0599 -0.6350  0.3306
   17SAPC  H11B 2147   3.975   5.750  10.698 -0.6110  0.2594 -0.9038
   17SAPC     P 2148   4.211   5.544  10.553 -0.0617  0.0086 -0.1491
   17SAPC   O13 2149   4.359   5.561  10.563 -0.5563 -0.3679  0.4515
   17SAPC   O14 2150   4.158   5.410  10.585  0.1538 -0.1020 -0.5920
   17SAPC   O12 2151   4.139   5.655  10.640 -0.5016 -0.1818 -0.3123
   17SAPC   O11 2152   4.161   5.582  10.414 -0.2777  0.2631 -0.4357
   17SAPC    C1 2153   4.076   5.503  10.327 -0.1604  0.9013  0.3696
   17SAPC    HA 2154   3.986   5.485  10.390  0.4404 -1.6713  0.5501
   17SAPC    HB 2155   4.044   5.553  10.234 -1.9271 -0.9540 -0.0590
   17SAPC    C2 2156   4.139   5.371  10.278 -0.2144 -0.3236  0.1300
   17SAPC    HS 2157   4.170   5.317  10.370 -0.7104  1.4874  1.4116
   17SAPC   O21 2158   4.256   5.401  10.202  0.5799  0.6661  0.4277
   17SAPC   C21 2159   4.329   5.287  10.181  0.0863 -0.8829  0.1692
   17SAPC   O22 2160   4.300   5.175  10.230  0.2026 -0.0389 -0.3441
   17SAPC   C22 2161   4.451   5.308  10.104  0.0544  0.2953 -0.2558
   17SAPC   H2R 2162   4.473   5.414  10.080  1.9143 -0.2517 -1.1326
   17SAPC   H2S 2163   4.538   5.283  10.168 -2.2970  0.0860  2.9711
   17SAPC    C3 2164   4.034   5.291  10.197  0.2049 -0.2296 -0.4310
   17SAPC    HX 2165   3.953   5.271  10.270  0.5680  0.8574  0.2982
   17SAPC    HY 2166   4.070   5.195  10.154 -0.7870 -0.5142 -0.6323
   17SAPC   O31 2167   3.986   5.372  10.084  0.3144  0.3648 -0.1492
   17SAPC   C31 2168   3.864   5.360  10.055 -0.5658  0.8283 -0.0128
   17SAPC   O32 2169   3.786   5.284  10.109  0.8698  0.7568  0.0790
   17SAPC   C32 2170   3.823   5.433   9.936  0.2886  0.4126  0.5760
   17SAPC   H2X 2171   3.902   5.427   9.859  1.7958 -0.2115  2.1379
   17SAPC   H2Y 2172   3.814   5.540   9.964  0.5640  0.5743  0.0359
   17SAPC   C23 2173   4.468   5.202   9.984  0.0409 -0.2811 -0.6014
   17SAPC   H3R 2174   4.415   5.108  10.011 -0.0893 -0.1919 -0.5427
   17SAPC   H3S 2175   4.574   5.191   9.953  0.7869  0.5179  1.5525
   17SAPC   C24 2176   4.400   5.260   9.854  0.0400 -1.4936  0.3685
   17SAPC   H4R 2177   4.446   5.212   9.765  0.2176  1.0105 -0.9322
   17SAPC   H4S 2178   4.415   5.369   9.838  2.5082 -2.0479 -1.3755
   17SAPC   C25 2179   4.250   5.234   9.862 -0.2337 -0.4694  0.7858
   17SAPC   H5R 2180   4.210   5.258   9.962  1.8445 -0.3901  1.6350
   17SAPC   C26 2181   4.168   5.196   9.756 -0.2552 -0.4607 -0.1250
   17SAPC   H6R 2182   4.059   5.179   9.762 -0.1063 -0.7922  1.9806
   17SAPC   C27 2183   4.211   5.162   9.615  0.1255 -0.0156 -0.8480
   17SAPC   H7R 2184   4.151   5.079   9.572  1.9597 -0.2640 -3.0291
   17SAPC   H7S 2185   4.301   5.097   9.627  0.5980  0.2876 -2.6231
   17SAPC   C28 2186   4.247   5.281   9.518  0.6554  0.0072  0.9462
   17SAPC   H8R 2187   4.215   5.382   9.547  0.1330  0.3676 -0.8448
   17SAPC   C29 2188   4.291   5.257   9.393 -0.6741 -0.6732  0.3880
   17SAPC   H9R 2189   4.295   5.346   9.329  1.2601  0.9426  2.6734
   17SAPC  C210 2190   4.317   5.127   9.325 -0.5987 -0.5683  0.3339
   17SAPC  H10R 2191   4.294   5.037   9.385 -2.9365 -1.1721 -1.3820
   17SAPC  H10S 2192   4.426   5.107   9.311 -0.0953  1.7835  0.6289
   17SAPC  C211 2193   4.242   5.111   9.193  0.0595 -1.1107 -0.6248
   17SAPC  H11R 2194   4.138   5.145   9.184  0.0455 -1.1270 -0.5211
   17SAPC  C212 2195   4.294   5.067   9.081 -0.4879  0.3218  0.1299
   17SAPC  H12R 2196   4.238   5.069   8.986  3.4484  1.6607 -2.2947
   17SAPC  C213 2197   4.436   5.021   9.054 -0.1281  0.7027 -0.1983
   17SAPC  H13R 2198   4.428   4.911   9.068 -1.2177  1.1109  2.7745
   17SAPC  H13S 2199   4.509   5.053   9.131 -0.0541  0.7275 -0.2783
   17SAPC  C214 2200   4.476   5.057   8.914 -0.6152 -0.1297  0.2756
   17SAPC  H14R 2201   4.494   5.165   8.903  0.6288 -0.5306 -2.0569
   17SAPC  C215 2202   4.487   4.988   8.805 -0.2015  0.3191  0.2206
   17SAPC  H15R 2203   4.537   5.031   8.717 -0.2093  0.5596  0.3321
   17SAPC  C216 2204   4.462   4.842   8.787 -0.5307  0.0146 -1.0938
   17SAPC  H16R 2205   4.410   4.796   8.874 -1.0437 -0.7089 -1.7737
   17SAPC  H16S 2206   4.558   4.789   8.769  0.4131  0.4174  2.4516
   17SAPC  C217 2207   4.363   4.823   8.666 -0.6713 -0.2062 -0.3102
   17SAPC  H17R 2208   4.341   4.715   8.648 -2.1723  0.0942 -0.3892
   17SAPC  H17S 2209   4.416   4.853   8.574 -1.5779 -2.2787 -1.5428
   17SAPC  C218 2210   4.240   4.918   8.675 -0.1091  0.2303 -0.2257
   17SAPC  H18R 2211   4.273   5.022   8.657 -3.3826  1.6117  1.3528
   17SAPC  H18S 2212   4.189   4.899   8.772  0.2973 -1.3962 -0.3067
   17SAPC  C219 2213   4.128   4.913   8.567 -1.3952 -0.3467 -0.0126
   17SAPC  H19R 2214   4.167   4.936   8.466 -1.6232 -0.9495 -0.2436
   17SAPC  H19S 2215   4.049   4.986   8.593 -1.2264 -0.3782  0.5815
   17SAPC  C220 2216   4.062   4.770   8.568 -0.8015 -0.2232  0.4092
   17SAPC  H20R 2217   3.994   4.764   8.655 -1.8377  0.2912 -0.3609
   17SAPC  H20S 2218   4.142   4.693   8.559  0.3159  0.9086  0.5499
   17SAPC  H20T 2219   4.000   4.770   8.476  0.2057 -0.7569 -0.2853
   17SAPC   C33 2220   3.688   5.391   9.863 -0.1880  0.2768  0.0405
   17SAPC   H3X 2221   3.607   5.406   9.937  0.1381 -0.2239  0.4986
   17SAPC   H3Y 2222   3.691   5.282   9.839 -1.1153 -0.0626  1.3848
   17SAPC   C34 2223   3.665   5.472   9.738  0.1497 -0.1353 -0.3018
   17SAPC   H4X 2224   3.699   5.577   9.750  0.4216 -0.3421  0.8178
   17SAPC   H4Y 2225   3.557   5.477   9.713 -0.0245  0.2547  0.5052
   17SAPC   C35 2226   3.733   5.417   9.612 -0.2315 -0.3358 -0.1165
   17SAPC   H5X 2227   3.701   5.314   9.584 -1.1052 -0.0575 -0.1733
   17SAPC   H5Y 2228   3.843   5.411   9.626 -0.4902 -2.8034  1.1070
   17SAPC   C36 2229   3.720   5.498   9.482 -0.1992  0.5503 -0.5008
   17SAPC   H6X 2230   3.752   5.603   9.498  3.1062 -0.6587  1.3267
   17SAPC   H6Y 2231   3.611   5.488   9.467 -0.3584 -0.0721  1.0161
   17SAPC   C37 2232   3.792   5.445   9.354  0.2652  0.0400  0.0225
   17SAPC   H7X 2233   3.902   5.455   9.368  0.1911  1.5121 -0.4144
   17SAPC   H7Y 2234   3.760   5.510   9.269 -0.9105  0.4697  0.7861
   17SAPC   C38 2235   3.745   5.302   9.313  0.3658 -0.5954  0.7230
   17SAPC   H8X 2236   3.636   5.282   9.314  0.6146 -2.0972 -0.2070
   17SAPC   H8Y 2237   3.781   5.234   9.393  1.4661 -0.6627  0.1816
   17SAPC   C39 2238   3.811   5.265   9.187  0.5503  0.2424 -0.4260
   17SAPC   H9X 2239   3.919   5.289   9.198  0.5258  1.0209 -1.6928
   17SAPC   H9Y 2240   3.794   5.338   9.104 -1.8474 -0.5499 -0.6643
   17SAPC  C310 2241   3.775   5.128   9.134  0.3535  0.0186  0.0339
   17SAPC  H10X 2242   3.818   5.096   9.037 -1.1380  0.9077 -0.9587
   17SAPC  H10Y 2243   3.664   5.135   9.130  0.3656 -0.3609 -1.4544
   17SAPC  C311 2244   3.778   5.013   9.234  0.2301 -0.0557 -0.5033
   17SAPC  H11X 2245   3.759   4.911   9.193  0.6694 -0.6830  0.7949
   17SAPC  H11Y 2246   3.697   5.036   9.307  1.4071 -0.1367  0.8574
   17SAPC  C312 2247   3.920   5.002   9.283 -0.4431 -0.6679 -0.8267
   17SAPC  H12X 2248   3.962   5.092   9.333  1.4892 -1.7373 -0.4578
   17SAPC  H12Y 2249   3.983   4.991   9.192 -1.0908  1.0704 -1.5095
   17SAPC  C313 2250   3.930   4.891   9.384 -0.3009  0.5282 -0.2587
   17SAPC  H13X 2251   4.029   4.897   9.433 -1.4872 -1.2809  2.4490
   17SAPC  H13Y 2252   3.916   4.792   9.335 -0.4446  0.5107 -0.1832
   17SAPC  C314 2253   3.828   4.898   9.495  0.1100 -0.4083  0.0099
   17SAPC  H14X 2254   3.723   4.881   9.461 -0.3526  0.2586  1.0810
   17SAPC  H14Y 2255   3.828   4.997   9.546 -0.4541 -0.1766 -0.4219
   17SAPC  C315 2256   3.844   4.795   9.611  0.1555 -0.5157  0.0938
   17SAPC  H15X 2257   3.943   4.794   9.661 -0.1528  0.0819  0.7237
   17SAPC  H15Y 2258   3.835   4.692   9.571 -1.1973 -0.4066  0.1112
   17SAPC  C316 2259   3.742   4.824   9.718  0.4577  0.6199  0.0103
   17SAPC  H16X 2260   3.742   4.740   9.790 -2.7501  0.5716  0.0027
   17SAPC  H16Y 2261   3.640   4.825   9.676  0.8414 -1.2090 -1.0122
   17SAPC  C317 2262   3.759   4.965   9.793 -0.4133  0.2865 -0.2529
   17SAPC  H17X 2263   3.673   4.988   9.859  1.2225  2.4832  1.1697
   17SAPC  H17Y 2264   3.758   5.048   9.719  0.0091 -2.0668 -3.0166
   17SAPC  C318 2265   3.877   4.983   9.884 -0.4521 -0.4345 -0.3730
   17SAPC  H18X 2266   3.976   4.961   9.838  0.6794 -2.0508  2.6807
   17SAPC  H18Y 2267   3.876   5.085   9.927 -2.2190 -0.3091 -0.6466
   17SAPC  H18Z 2268   3.867   4.913   9.970  0.2613  0.5989  0.5748
   18SAPC     N 2269   5.466   4.496  11.052 -0.3959 -0.4746 -0.3281
   18SAPC   C12 2270   5.409   4.601  10.954 -0.2644 -0.5955 -0.7633
   18SAPC  H12A 2271   5.457   4.695  10.976  2.9507 -1.8785 -1.9876
   18SAPC  H12B 2272   5.304   4.613  10.976  0.1789  0.1817  1.0267
   18SAPC   C13 2273   5.610   4.493  11.016 -0.0288  0.5067 -0.3371
   18SAPC  H13A 2274   5.674   4.575  11.046  2.0180 -0.3437 -2.2932
   18SAPC  H13B 2275   5.661   4.409  11.060 -0.2352 -0.1778 -1.3755
   18SAPC  H13C 2276   5.635   4.481  10.912 -0.4576  2.4406 -0.6902
   18SAPC   C14 2277   5.446   4.535  11.196 -0.2765  0.3382  0.1052
   18SAPC  H14A 2278   5.497   4.466  11.262  0.5148 -0.3979 -1.2692
   18SAPC  H14B 2279   5.482   4.633  11.225 -0.8565  1.2557 -2.1475
   18SAPC  H14C 2280   5.341   4.525  11.221 -0.4920 -2.5410 -1.7834
   18SAPC   C15 2281   5.405   4.360  11.033 -0.2693 -0.4922  0.2064
   18SAPC  H15A 2282   5.297   4.356  11.043 -0.1598  0.2319  1.8740
   18SAPC  H15B 2283   5.432   4.323  10.936 -2.3401  2.4060 -1.5562
   18SAPC  H15C 2284   5.442   4.286  11.103 -0.0755 -1.3199 -0.7636
   18SAPC   C11 2285   5.433   4.590  10.801 -0.0385 -0.1626  0.0477
   18SAPC  H11A 2286   5.539   4.612  10.775 -0.5426  1.5780 -0.5893
   18SAPC  H11B 2287   5.368   4.668  10.757 -1.8705 -1.1402  0.9922
   18SAPC     P 2288   5.259   4.425  10.675  0.5383  0.2173  0.2583
   18SAPC   O13 2289   5.243   4.282  10.639  0.4855 -0.1948  0.3969
   18SAPC   O14 2290   5.147   4.475  10.755 -0.1253 -0.2655  0.3291
   18SAPC   O12 2291   5.401   4.458  10.749 -0.4494 -0.6026 -0.2630
   18SAPC   O11 2292   5.263   4.507  10.544 -0.0456 -0.3240  0.5785
   18SAPC    C1 2293   5.375   4.530  10.468 -0.5145  0.0335 -0.1843
   18SAPC    HA 2294   5.394   4.638  10.451 -3.5846  0.4428 -1.2492
   18SAPC    HB 2295   5.470   4.489  10.509  1.1697  2.6363 -1.3906
   18SAPC    C2 2296   5.357   4.456  10.328 -0.1492 -0.3574 -0.6925
   18SAPC    HS 2297   5.462   4.443  10.293  0.1147 -1.9214  0.6358
   18SAPC   O21 2298   5.278   4.538  10.242 -0.1010 -0.2200  0.3533
   18SAPC   C21 2299   5.353   4.639  10.197  0.0531  1.1278 -0.3998
   18SAPC   O22 2300   5.473   4.648  10.200  0.3270  0.0341  0.5361
   18SAPC   C22 2301   5.273   4.730  10.110 -0.1581  0.2325  0.1214
   18SAPC   H2R 2302   5.214   4.667  10.040  1.3315 -1.3259  0.2050
   18SAPC   H2S 2303   5.201   4.781  10.177  1.4930  2.6019  0.1609
   18SAPC    C3 2304   5.312   4.308  10.341 -0.0028 -0.4849  0.6544
   18SAPC    HX 2305   5.209   4.294  10.382 -0.1049  0.5395  0.7666
   18SAPC    HY 2306   5.380   4.259  10.414 -1.6244 -2.2592  0.9881
   18SAPC   O31 2307   5.327   4.239  10.219 -0.1066 -0.7756 -0.7688
   18SAPC   C31 2308   5.223   4.217  10.144  0.9611  0.0438 -0.2705
   18SAPC   O32 2309   5.108   4.253  10.167  0.0541 -0.3654  0.4293
   18SAPC   C32 2310   5.266   4.153  10.008  0.1104 -0.3189 -0.2365
   18SAPC   H2X 2311   5.281   4.045  10.028  4.0444 -0.1493 -1.8075
   18SAPC   H2Y 2312   5.367   4.191   9.979 -0.3747  0.3772 -1.0507
   18SAPC   C23 2313   5.357   4.837  10.034 -0.7769 -0.2238  0.0070
   18SAPC   H3R 2314   5.427   4.891  10.101  0.4534  0.3835 -1.7539
   18SAPC   H3S 2315   5.281   4.912  10.001 -0.0752 -1.0709 -3.8044
   18SAPC   C24 2316   5.427   4.783   9.909  0.4410  0.3480 -0.2360
   18SAPC   H4R 2317   5.364   4.711   9.852 -0.0869 -0.3491  1.2158
   18SAPC   H4S 2318   5.513   4.723   9.946  0.8981  0.7802 -0.5822
   18SAPC   C25 2319   5.478   4.900   9.824  0.1377 -0.5328 -0.5667
   18SAPC   H5R 2320   5.447   4.993   9.873 -0.7322 -0.2103 -1.7008
   18SAPC   C26 2321   5.548   4.895   9.710  0.2982 -0.4135  1.2019
   18SAPC   H6R 2322   5.576   4.984   9.652 -0.3901 -1.5415 -0.8766
   18SAPC   C27 2323   5.604   4.770   9.649 -0.3632  0.2317  0.7269
   18SAPC   H7R 2324   5.518   4.702   9.627 -1.4516  1.6092  0.6701
   18SAPC   H7S 2325   5.652   4.704   9.725 -1.2314 -1.2562  0.0230
   18SAPC   C28 2326   5.682   4.782   9.520  0.5857  0.4121  0.6520
   18SAPC   H8R 2327   5.788   4.753   9.521  0.2343 -0.8979  0.7906
   18SAPC   C29 2328   5.634   4.824   9.398 -0.8015  0.3501  0.8117
   18SAPC   H9R 2329   5.702   4.826   9.312  1.2403 -0.9836  2.3461
   18SAPC  C210 2330   5.498   4.884   9.386 -0.7060 -0.4310 -0.4868
   18SAPC  H10R 2331   5.465   4.932   9.481 -0.5315  1.5891 -1.4289
   18SAPC  H10S 2332   5.435   4.793   9.372  1.0923 -1.6762 -0.7439
   18SAPC  C211 2333   5.479   4.979   9.272 -0.4723 -0.0838  0.1612
   18SAPC  H11R 2334   5.475   5.085   9.302  3.4493 -0.5050  2.7109
   18SAPC  C212 2335   5.481   4.963   9.139 -0.1605  0.2569 -0.0663
   18SAPC  H12R 2336   5.456   5.051   9.078  1.3166  1.1442  0.6108
   18SAPC  C213 2337   5.483   4.824   9.071 -0.4379 -0.1051 -1.2610
   18SAPC  H13R 2338   5.543   4.751   9.128  0.0224  1.8053  0.7440
   18SAPC  H13S 2339   5.535   4.845   8.975  2.3101  0.7548  0.3644
   18SAPC  C214 2340   5.341   4.780   9.047  0.2246 -0.0086  0.1895
   18SAPC  H14R 2341   5.273   4.776   9.134  0.6745  0.0532  0.5418
   18SAPC  C215 2342   5.298   4.715   8.942  0.0884  0.4623  0.4483
   18SAPC  H15R 2343   5.191   4.688   8.936  0.3914 -0.6640  0.0356
   18SAPC  C216 2344   5.374   4.687   8.811  0.2163 -0.6910 -0.9259
   18SAPC  H16R 2345   5.482   4.666   8.830  0.4634  0.4343 -1.0147
   18SAPC  H16S 2346   5.365   4.784   8.759  0.7034 -0.8095 -1.2264
   18SAPC  C217 2347   5.315   4.576   8.719 -0.4020 -0.4916 -0.3688
   18SAPC  H17R 2348   5.207   4.598   8.713 -0.2316  0.3372 -0.3675
   18SAPC  H17S 2349   5.327   4.480   8.774 -1.6456 -0.0362  0.7217
   18SAPC  C218 2350   5.379   4.581   8.580  0.1428  0.1512  0.0227
   18SAPC  H18R 2351   5.358   4.683   8.541 -0.8109 -0.1556 -0.2925
   18SAPC  H18S 2352   5.337   4.498   8.519  1.7630 -0.3422 -0.4530
   18SAPC  C219 2353   5.531   4.555   8.568 -0.2200 -0.3465 -0.5948
   18SAPC  H19R 2354   5.591   4.627   8.627  3.1143 -3.0175 -0.5465
   18SAPC  H19S 2355   5.573   4.568   8.466  3.3352  2.6915  1.1653
   18SAPC  C220 2356   5.568   4.415   8.599  0.6760 -0.4906  0.6988
   18SAPC  H20R 2357   5.523   4.350   8.521 -0.3498 -1.2863  1.9210
   18SAPC  H20S 2358   5.518   4.383   8.693 -2.8956 -3.6582 -2.1631
   18SAPC  H20T 2359   5.677   4.393   8.606  0.8185  0.7707  3.3497
   18SAPC   C33 2360   5.162   4.155   9.891  0.0828  0.1718  0.0720
   18SAPC   H3X 2361   5.104   4.250   9.887 -1.2806 -0.6018  1.0426
   18SAPC   H3Y 2362   5.085   4.079   9.913  1.4522 -1.9512 -2.1889
   18SAPC   C34 2363   5.229   4.141   9.752 -0.0229 -0.2045  0.6391
   18SAPC   H4X 2364   5.323   4.199   9.747 -1.2348  1.8899  1.8806
   18SAPC   H4Y 2365   5.156   4.173   9.675 -0.9563  1.9882  2.4139
   18SAPC   C35 2366   5.263   3.997   9.722 -0.1869 -0.2911  0.4886
   18SAPC   H5X 2367   5.169   3.939   9.731 -1.2210  1.3835  0.6384
   18SAPC   H5Y 2368   5.328   3.956   9.803  0.8743 -2.1198 -1.2609
   18SAPC   C36 2369   5.340   3.980   9.584 -1.0811 -0.1502 -0.3631
   18SAPC   H6X 2370   5.356   3.870   9.581 -0.4066 -0.0609 -0.1983
   18SAPC   H6Y 2371   5.442   4.022   9.597 -0.6415 -0.6685 -1.9777
   18SAPC   C37 2372   5.270   4.026   9.467 -0.5149  0.1542  0.0574
   18SAPC   H7X 2373   5.269   4.137   9.476 -2.3667 -0.0538  2.7871
   18SAPC   H7Y 2374   5.166   3.988   9.475  0.8864 -4.4936 -1.8907
   18SAPC   C38 2375   5.330   3.993   9.328  0.8694 -0.2681  0.0978
   18SAPC   H8X 2376   5.256   4.025   9.252 -0.2620 -1.9025  0.4855
   18SAPC   H8Y 2377   5.348   3.884   9.315 -0.1061 -0.2846 -1.1463
   18SAPC   C39 2378   5.471   4.052   9.303  0.0570 -0.6360 -0.9542
   18SAPC   H9X 2379   5.524   4.013   9.392  0.3327  1.4651 -0.1677
   18SAPC   H9Y 2380   5.465   4.162   9.319 -1.1065 -0.2973 -3.3517
   18SAPC  C310 2381   5.540   4.017   9.170  0.2720 -0.3370 -0.4393
   18SAPC  H10X 2382   5.570   3.910   9.162  0.9517 -0.3169  1.5725
   18SAPC  H10Y 2383   5.637   4.070   9.169 -0.8573  1.8392 -3.7667
   18SAPC  C311 2384   5.460   4.065   9.046 -0.3558 -0.7537 -0.3243
   18SAPC  H11X 2385   5.457   4.176   9.050  2.3834 -0.5767 -1.9507
   18SAPC  H11Y 2386   5.359   4.019   9.057 -0.7594  0.4341  1.1424
   18SAPC  C312 2387   5.522   4.027   8.908 -0.0180  0.5616 -0.6646
   18SAPC  H12X 2388   5.537   3.918   8.893  0.3689 -0.1083  3.9266
   18SAPC  H12Y 2389   5.622   4.075   8.904 -0.0179  0.6896  0.5035
   18SAPC  C313 2390   5.443   4.099   8.786  0.1636  0.7163 -0.4543
   18SAPC  H13X 2391   5.502   4.120   8.695 -2.9841  0.9239 -2.5047
   18SAPC  H13Y 2392   5.417   4.201   8.823  2.1180  0.7485  0.9406
   18SAPC  C314 2393   5.307   4.034   8.754  0.4813 -0.4598 -0.0876
   18SAPC  H14X 2394   5.247   4.101   8.689  1.8096 -0.0203 -0.8814
   18SAPC  H14Y 2395   5.248   4.045   8.847  1.2732  0.0987  0.3613
   18SAPC  C315 2396   5.316   3.888   8.707 -0.2088 -0.0702 -0.3257
   18SAPC  H15X 2397   5.216   3.854   8.673 -0.8025  1.0813  0.2334
   18SAPC  H15Y 2398   5.361   3.822   8.784 -0.6968  0.3742  0.3510
   18SAPC  C316 2399   5.415   3.873   8.585  0.1117 -0.0894  0.5816
   18SAPC  H16X 2400   5.518   3.910   8.600  0.5198 -1.2528  0.6798
   18SAPC  H16Y 2401   5.367   3.933   8.504  2.0719 -1.6142 -1.7920
   18SAPC  C317 2402   5.410   3.726   8.535  0.3297  0.2272 -0.3401
   18SAPC  H17X 2403   5.302   3.700   8.525  0.2554  0.3609  0.1055
   18SAPC  H17Y 2404   5.452   3.676   8.626 -1.6925 -1.5816 -0.3688
   18SAPC  C318 2405   5.509   3.716   8.419 -0.7961  0.3701  0.5089
   18SAPC  H18X 2406   5.602   3.769   8.450  2.0255 -1.6030 -4.1349
   18SAPC  H18Y 2407   5.481   3.759   8.320 -2.0281 -0.6778  0.3878
   18SAPC  H18Z 2408   5.542   3.610   8.412 -1.1349  0.2238  1.1307
   19SAPC     N 2409   3.518   5.927  10.920 -0.7352  0.1796  0.1934
   19SAPC   C12 2410   3.639   5.990  10.854 -0.1335  0.4061 -0.6537
   19SAPC  H12A 2411   3.678   5.911  10.791  0.6584 -0.2674  0.6588
   19SAPC  H12B 2412   3.711   6.000  10.934 -1.2189 -0.3714  0.4525
   19SAPC   C13 2413   3.415   5.898  10.818 -0.0704 -0.0893  0.0253
   19SAPC  H13A 2414   3.459   5.819  10.759 -2.2470 -1.2111 -0.1291
   19SAPC  H13B 2415   3.325   5.854  10.858 -0.1380  0.6558  0.6893
   19SAPC  H13C 2416   3.380   5.984  10.762 -0.4176  0.6621  1.3912
   19SAPC   C14 2417   3.563   5.800  10.986  0.5194  0.3356 -0.3921
   19SAPC  H14A 2418   3.488   5.753  11.046 -0.0119  2.7038  0.8842
   19SAPC  H14B 2419   3.601   5.730  10.913  0.0722 -0.1198 -0.1866
   19SAPC  H14C 2420   3.645   5.822  11.053  2.4524 -1.4619 -2.0970
   19SAPC   C15 2421   3.461   6.018  11.027  0.2256  0.5924  0.2598
   19SAPC  H15A 2422   3.437   6.117  10.990 -2.0291 -0.2232 -0.5339
   19SAPC  H15B 2423   3.369   5.987  11.073  0.8707 -0.1643  1.0582
   19SAPC  H15C 2424   3.527   6.032  11.111  1.6912  1.6889 -1.0511
   19SAPC   C11 2425   3.617   6.124  10.775  0.0833 -0.4446 -0.4407
   19SAPC  H11A 2426   3.713   6.180  10.769 -0.9593  1.2019 -2.6878
   19SAPC  H11B 2427   3.547   6.184  10.838 -0.2652 -0.7784 -0.5109
   19SAPC     P 2428   3.645   6.040  10.523  0.1268 -0.5361  0.0802
   19SAPC   O13 2429   3.722   5.921  10.564 -0.0677 -0.0561  0.2022
   19SAPC   O14 2430   3.556   6.016  10.408 -0.1762  0.0257 -0.4989
   19SAPC   O12 2431   3.561   6.096  10.651  0.2324  0.2159  0.0328
   19SAPC   O11 2432   3.750   6.147  10.485 -0.3046  0.3418 -0.5016
   19SAPC    C1 2433   3.738   6.289  10.498 -0.3688 -0.2948 -0.2206
   19SAPC    HA 2434   3.650   6.321  10.559 -0.4116  0.0912 -0.4817
   19SAPC    HB 2435   3.817   6.342  10.554  0.7463  0.6763 -2.6343
   19SAPC    C2 2436   3.740   6.355  10.358  0.6182  0.4378  0.0752
   19SAPC    HS 2437   3.754   6.464  10.370 -1.2897  0.6236  0.9084
   19SAPC   O21 2438   3.628   6.324  10.272 -0.1768 -0.2099 -0.4423
   19SAPC   C21 2439   3.527   6.388  10.315  0.4251  0.6391  0.1133
   19SAPC   O22 2440   3.525   6.474  10.403  0.2344 -0.0458  0.1014
   19SAPC   C22 2441   3.414   6.338  10.232 -0.5767 -0.1626 -0.0756
   19SAPC   H2R 2442   3.458   6.311  10.134  0.7608  2.9284 -0.3967
   19SAPC   H2S 2443   3.372   6.242  10.270 -1.2551  0.6333  1.2485
   19SAPC    C3 2444   3.861   6.298  10.277  0.4016  0.3221 -0.3486
   19SAPC    HX 2445   3.841   6.193  10.247 -0.9289 -0.3800  2.7650
   19SAPC    HY 2446   3.948   6.304  10.346 -0.4297 -1.1412  0.8596
   19SAPC   O31 2447   3.888   6.369  10.156  0.1430 -0.4300  0.7125
   19SAPC   C31 2448   3.995   6.332  10.079  0.1107  0.4140 -0.1512
   19SAPC   O32 2449   4.074   6.244  10.111  0.1648  0.0956  0.2200
   19SAPC   C32 2450   4.003   6.423   9.956 -0.1357 -0.0167 -0.2681
   19SAPC   H2X 2451   4.037   6.521   9.996 -2.9202  0.3037  1.4504
   19SAPC   H2Y 2452   3.905   6.419   9.903  1.4091  0.5404 -3.2640
   19SAPC   C23 2453   3.306   6.450  10.229 -0.0663 -0.5912  0.0605
   19SAPC   H3R 2454   3.276   6.477  10.332 -0.8581  0.4450 -0.4359
   19SAPC   H3S 2455   3.214   6.420  10.174  0.1722 -0.6259 -0.3267
   19SAPC   C24 2456   3.364   6.573  10.157 -0.3972 -0.6777  0.2793
   19SAPC   H4R 2457   3.422   6.539  10.068 -1.1261  1.0530 -0.8715
   19SAPC   H4S 2458   3.439   6.619  10.225  0.5448 -0.2393 -1.0319
   19SAPC   C25 2459   3.267   6.676  10.103 -0.1429 -0.7483 -0.8088
   19SAPC   H5R 2460   3.258   6.777  10.147  2.0886 -0.9745  0.2266
   19SAPC   C26 2461   3.218   6.672   9.979 -0.1932 -0.3905  0.5877
   19SAPC   H6R 2462   3.164   6.763   9.949  0.4978 -0.1403  0.0824
   19SAPC   C27 2463   3.230   6.560   9.884 -0.5215  0.1149  0.5563
   19SAPC   H7R 2464   3.179   6.466   9.915 -0.1505 -0.0794  0.5944
   19SAPC   H7S 2465   3.336   6.528   9.867 -0.9405 -0.4466 -1.0822
   19SAPC   C28 2466   3.177   6.592   9.745 -0.4162  0.2463  0.2296
   19SAPC   H8R 2467   3.074   6.556   9.733 -0.5997  0.6514  0.5871
   19SAPC   C29 2468   3.243   6.640   9.641  0.5708  0.2125  0.8716
   19SAPC   H9R 2469   3.183   6.670   9.553 -0.0461  0.7338  1.4599
   19SAPC  C210 2470   3.388   6.683   9.646  0.0148 -0.7456  0.6053
   19SAPC  H10R 2471   3.445   6.637   9.562 -0.4163  0.7268 -0.5138
   19SAPC  H10S 2472   3.437   6.641   9.736  0.7179 -0.5766  0.3061
   19SAPC  C211 2473   3.399   6.832   9.654  0.2732 -0.0477  0.4731
   19SAPC  H11R 2474   3.403   6.866   9.759 -1.7608  0.1532  0.5067
   19SAPC  C212 2475   3.423   6.916   9.551 -0.0770 -0.9535 -0.3732
   19SAPC  H12R 2476   3.430   7.023   9.574 -1.2010 -0.3899 -2.4948
   19SAPC  C213 2477   3.452   6.884   9.409  0.2254 -0.0036  0.3391
   19SAPC  H13R 2478   3.438   6.774   9.398 -1.3826  0.2046  0.1688
   19SAPC  H13S 2479   3.560   6.898   9.385  0.6395 -1.5619  1.2233
   19SAPC  C214 2480   3.386   6.951   9.295  0.2280 -0.2270 -0.9467
   19SAPC  H14R 2481   3.332   7.043   9.322  0.8247 -0.0672 -0.2902
   19SAPC  C215 2482   3.387   6.899   9.169 -0.2740  0.0819 -0.0340
   19SAPC  H15R 2483   3.324   6.947   9.093 -0.2571 -0.0464 -0.1273
   19SAPC  C216 2484   3.448   6.766   9.120  0.0304 -0.7366 -0.1808
   19SAPC  H16R 2485   3.377   6.710   9.055  0.0590  0.0167 -0.8613
   19SAPC  H16S 2486   3.463   6.700   9.209 -1.1405  1.5042  1.7535
   19SAPC  C217 2487   3.584   6.783   9.041 -0.2271 -0.1364  0.0326
   19SAPC  H17R 2488   3.628   6.682   9.059 -1.9730 -1.0460 -0.6879
   19SAPC  H17S 2489   3.652   6.840   9.108 -1.7436  1.0530  0.5869
   19SAPC  C218 2490   3.583   6.828   8.892 -0.2038  0.1831  0.0519
   19SAPC  H18R 2491   3.565   6.937   8.883 -2.6351 -0.4036 -2.8268
   19SAPC  H18S 2492   3.507   6.773   8.832  0.9997  0.3145 -1.6326
   19SAPC  C219 2493   3.727   6.804   8.833 -0.1049  0.2801 -0.1602
   19SAPC  H19R 2494   3.751   6.696   8.824 -0.4629  0.1846  0.0281
   19SAPC  H19S 2495   3.806   6.849   8.897 -1.2967 -0.9718  2.2692
   19SAPC  C220 2496   3.718   6.869   8.690  0.0544 -0.4974  0.6747
   19SAPC  H20R 2497   3.806   6.844   8.627 -0.1375  0.0737  0.1696
   19SAPC  H20S 2498   3.711   6.980   8.703 -2.8594 -0.5444 -0.1224
   19SAPC  H20T 2499   3.630   6.831   8.634 -0.9268  0.0963  1.7852
   19SAPC   C33 2500   4.114   6.370   9.862  0.0387  0.4212  0.2102
   19SAPC   H3X 2501   4.082   6.266   9.837 -1.7429  1.3595 -1.5446
   19SAPC   H3Y 2502   4.213   6.362   9.911  1.7311 -0.2808 -3.2178
   19SAPC   C34 2503   4.135   6.461   9.746 -0.2742 -1.0026  0.2104
   19SAPC   H4X 2504   4.231   6.431   9.698  0.7823  0.2611  1.4845
   19SAPC   H4Y 2505   4.137   6.559   9.798 -3.4786 -0.2172 -1.0447
   19SAPC   C35 2506   4.029   6.453   9.645  0.1535 -0.0294 -0.2733
   19SAPC   H5X 2507   3.943   6.505   9.691  0.0560 -0.5025  0.0885
   19SAPC   H5Y 2508   4.005   6.347   9.618 -0.1823  0.3967 -1.7183
   19SAPC   C36 2509   4.069   6.522   9.515 -0.6705 -0.1718  0.6402
   19SAPC   H6X 2510   4.155   6.463   9.476  0.5785  3.2158 -1.9658
   19SAPC   H6Y 2511   4.094   6.627   9.537  1.1345 -0.3547 -0.4989
   19SAPC   C37 2512   3.952   6.525   9.419 -0.1939 -0.8430 -0.0113
   19SAPC   H7X 2513   3.881   6.607   9.446  0.3708 -0.6619  0.9481
   19SAPC   H7Y 2514   3.898   6.428   9.424 -0.7225 -0.5128  0.9855
   19SAPC   C38 2515   4.003   6.550   9.277 -0.2423 -0.4593 -1.1968
   19SAPC   H8X 2516   4.070   6.639   9.278  0.0599 -0.6984 -0.3637
   19SAPC   H8Y 2517   3.923   6.577   9.205 -1.7359  0.1998  0.6842
   19SAPC   C39 2518   4.076   6.434   9.213  0.0688  0.4009 -0.0091
   19SAPC   H9X 2519   4.007   6.347   9.207 -0.4641  0.6707  1.6589
   19SAPC   H9Y 2520   4.155   6.402   9.284  0.5759  0.4138 -0.5768
   19SAPC  C310 2521   4.146   6.470   9.080  0.4513  0.5408 -1.2625
   19SAPC  H10X 2522   4.206   6.383   9.047  2.1384  1.4921 -0.7535
   19SAPC  H10Y 2523   4.224   6.549   9.089 -0.3110  1.1046  0.7885
   19SAPC  C311 2524   4.040   6.504   8.968 -0.2877 -0.2637 -0.1145
   19SAPC  H11X 2525   3.978   6.588   9.004 -0.1095 -0.0915 -0.2088
   19SAPC  H11Y 2526   3.966   6.423   8.951 -0.4998  0.0849 -0.8586
   19SAPC  C312 2527   4.120   6.546   8.846 -0.1174 -0.3580  0.5428
   19SAPC  H12X 2528   4.149   6.449   8.800  0.6209 -0.2395  0.7640
   19SAPC  H12Y 2529   4.214   6.603   8.861  0.1324 -0.5324 -0.3188
   19SAPC  C313 2530   4.037   6.622   8.741  0.0497 -0.4565 -0.3488
   19SAPC  H13X 2531   4.106   6.645   8.657 -1.3105  3.2802 -0.5373
   19SAPC  H13Y 2532   4.007   6.721   8.781 -0.8012 -0.6183 -0.5862
   19SAPC  C314 2533   3.913   6.551   8.677  1.0206 -0.1189 -0.2886
   19SAPC  H14X 2534   3.860   6.612   8.601  0.9233 -0.2408 -0.3185
   19SAPC  H14Y 2535   3.842   6.521   8.756  1.0877  1.0943  0.2456
   19SAPC  C315 2536   3.950   6.432   8.586 -0.2230  0.3826  0.1019
   19SAPC  H15X 2537   3.993   6.354   8.653 -0.0379  1.1792  0.9402
   19SAPC  H15Y 2538   4.028   6.459   8.512 -1.1502  2.1776 -0.2575
   19SAPC  C316 2539   3.827   6.379   8.517 -0.3283  0.3476 -0.4006
   19SAPC  H16X 2540   3.735   6.400   8.576  0.6786 -1.8354  2.0644
   19SAPC  H16Y 2541   3.837   6.268   8.514 -0.1527  0.3910 -1.6544
   19SAPC  C317 2542   3.794   6.426   8.377  0.2195  0.2001 -0.4547
   19SAPC  H17X 2543   3.863   6.390   8.298 -0.0903 -0.5448 -0.3912
   19SAPC  H17Y 2544   3.791   6.537   8.383 -0.8982  0.1287  0.4005
   19SAPC  C318 2545   3.657   6.376   8.326  0.4552 -0.4892  0.1248
   19SAPC  H18X 2546   3.589   6.388   8.413  0.7707  0.6504  0.2172
   19SAPC  H18Y 2547   3.667   6.266   8.309 -0.3612 -0.1252 -3.0557
   19SAPC  H18Z 2548   3.631   6.409   8.223  1.4818  0.4465  0.1582
   20SAPC     N 2549   3.274   3.086  11.299 -0.1003  0.1476  0.3210
   20SAPC   C12 2550   3.259   3.041  11.152 -0.4549  0.3157 -0.2724
   20SAPC  H12A 2551   3.198   2.952  11.150 -0.7644  0.3828  3.0251
   20SAPC  H12B 2552   3.352   3.010  11.107  0.6679  2.8779  0.2117
   20SAPC   C13 2553   3.378   3.199  11.297 -0.2596  0.4871 -0.3363
   20SAPC  H13A 2554   3.343   3.298  11.272 -1.6778  0.0336 -0.1406
   20SAPC  H13B 2555   3.427   3.196  11.394 -0.0886 -0.3802 -0.4464
   20SAPC  H13C 2556   3.453   3.189  11.220  0.2995  0.4226  0.2033
   20SAPC   C14 2557   3.149   3.133  11.359  0.0454  0.2741  0.7418
   20SAPC  H14A 2558   3.128   3.232  11.322  3.7250  1.2946  1.2249
   20SAPC  H14B 2559   3.061   3.073  11.336 -0.8595  0.2570  3.9444
   20SAPC  H14C 2560   3.161   3.137  11.466  1.0445  0.0523  0.6393
   20SAPC   C15 2561   3.332   2.975  11.380  0.0871 -0.6776  0.0260
   20SAPC  H15A 2562   3.253   2.903  11.390  0.8110 -1.1114  2.9680
   20SAPC  H15B 2563   3.423   2.933  11.341  0.6153  0.1704  0.3357
   20SAPC  H15C 2564   3.353   3.008  11.481 -0.4043  1.2282 -0.4694
   20SAPC   C11 2565   3.202   3.144  11.059 -0.8712  0.0872  0.0676
   20SAPC  H11A 2566   3.113   3.191  11.106 -2.2146 -1.8230 -0.5191
   20SAPC  H11B 2567   3.171   3.092  10.966  1.2853 -0.4673 -0.3781
   20SAPC     P 2568   3.406   3.238  10.916 -0.6397  0.2000  0.3436
   20SAPC   O13 2569   3.374   3.334  10.809 -0.2269 -0.3253  0.6790
   20SAPC   O14 2570   3.533   3.259  10.987 -0.2160  0.1474 -0.3631
   20SAPC   O12 2571   3.296   3.247  11.030 -0.2634  0.2131 -0.3623
   20SAPC   O11 2572   3.415   3.092  10.858 -0.0629  0.3858  0.2640
   20SAPC    C1 2573   3.534   3.057  10.784  0.1139  0.6222 -0.1187
   20SAPC    HA 2574   3.614   3.133  10.801  0.1522  0.1717  1.8792
   20SAPC    HB 2575   3.569   2.959  10.822  1.2304  0.1435 -2.2939
   20SAPC    C2 2576   3.516   3.040  10.635 -0.4368  0.0912  0.5878
   20SAPC    HS 2577   3.615   3.007  10.595 -0.5545 -0.5427  0.8168
   20SAPC   O21 2578   3.480   3.172  10.579 -0.0313  0.2656  0.1931
   20SAPC   C21 2579   3.573   3.265  10.563 -0.7910  0.7784 -0.3054
   20SAPC   O22 2580   3.691   3.254  10.580 -0.4195 -0.2130 -0.3772
   20SAPC   C22 2581   3.507   3.387  10.510 -0.1109  0.2296  0.0885
   20SAPC   H2R 2582   3.431   3.359  10.434 -1.7032  0.0376  1.7006
   20SAPC   H2S 2583   3.464   3.444  10.595  0.5971 -0.2809  0.8005
   20SAPC    C3 2584   3.409   2.928  10.595 -0.6340 -0.5430  0.0620
   20SAPC    HX 2585   3.310   2.962  10.630 -0.3350  0.2391  0.1632
   20SAPC    HY 2586   3.443   2.838  10.651  4.5004  1.1108 -0.1012
   20SAPC   O31 2587   3.410   2.896  10.454  0.2333  0.3214 -0.8001
   20SAPC   C31 2588   3.335   2.980  10.385  0.2031 -0.5464 -0.5959
   20SAPC   O32 2589   3.251   3.060  10.426 -0.2297  0.0744  0.1644
   20SAPC   C32 2590   3.370   2.966  10.238  0.2370  0.4651 -0.0208
   20SAPC   H2X 2591   3.343   2.866  10.196  2.1113 -0.5485  1.1560
   20SAPC   H2Y 2592   3.479   2.983  10.228  1.0908 -3.5833  1.5435
   20SAPC   C23 2593   3.591   3.478  10.427  0.5172  0.5124 -1.4032
   20SAPC   H3R 2594   3.669   3.525  10.491 -0.7438  0.2995  0.3072
   20SAPC   H3S 2595   3.523   3.563  10.403 -1.5909 -0.5214  0.7255
   20SAPC   C24 2596   3.657   3.423  10.307  0.3487 -0.2229  0.0284
   20SAPC   H4R 2597   3.717   3.333  10.333 -0.5264 -0.7511  0.2383
   20SAPC   H4S 2598   3.731   3.492  10.262  1.8438 -2.1292 -0.5340
   20SAPC   C25 2599   3.551   3.396  10.199  0.1130 -0.5114  0.6523
   20SAPC   H5R 2600   3.446   3.400  10.230  0.6256  0.3580  2.3455
   20SAPC   C26 2601   3.587   3.365  10.072 -0.2509 -0.2968  0.2177
   20SAPC   H6R 2602   3.513   3.336   9.997 -2.9166  3.1185  1.3922
   20SAPC   C27 2603   3.728   3.360  10.009  0.2121  0.2733 -0.1622
   20SAPC   H7R 2604   3.736   3.273   9.941 -0.1784  1.0373 -1.1925
   20SAPC   H7S 2605   3.817   3.345  10.074 -0.4291  0.2328  0.7120
   20SAPC   C28 2606   3.749   3.495   9.941  0.1380 -0.0955 -0.2574
   20SAPC   H8R 2607   3.791   3.573  10.007 -0.2577 -0.1115  0.0134
   20SAPC   C29 2608   3.756   3.512   9.806  0.2630  0.4419 -0.4143
   20SAPC   H9R 2609   3.779   3.616   9.778 -1.5078  1.3758  1.4278
   20SAPC  C210 2610   3.719   3.407   9.696 -0.3033  0.1195 -0.0709
   20SAPC  H10R 2611   3.642   3.450   9.628  0.4951  0.4420 -0.7722
   20SAPC  H10S 2612   3.671   3.321   9.747  0.9035 -1.1420 -1.0471
   20SAPC  C211 2613   3.835   3.351   9.615 -0.3115 -0.3844  0.0073
   20SAPC  H11R 2614   3.898   3.289   9.680 -1.8902 -0.1875  1.7774
   20SAPC  C212 2615   3.869   3.353   9.485  0.4615  0.7926  0.2345
   20SAPC  H12R 2616   3.946   3.285   9.445 -2.4003 -3.1675  1.1895
   20SAPC  C213 2617   3.798   3.422   9.378  0.8249  0.4364 -0.3081
   20SAPC  H13R 2618   3.705   3.470   9.414 -1.4444 -2.6282 -1.8955
   20SAPC  H13S 2619   3.754   3.349   9.307 -1.1843  1.0783  0.2550
   20SAPC  C214 2620   3.878   3.532   9.323 -0.0787  0.2718  0.5155
   20SAPC  H14R 2621   3.910   3.604   9.400 -1.0094 -0.5157  1.6614
   20SAPC  C215 2622   3.922   3.545   9.197  0.0303 -0.4230  0.0559
   20SAPC  H15R 2623   3.978   3.639   9.180  0.7044 -0.6434  0.9546
   20SAPC  C216 2624   3.897   3.456   9.072  0.2875 -0.2582  0.5294
   20SAPC  H16R 2625   3.814   3.501   9.012  1.1193 -0.0097 -0.4449
   20SAPC  H16S 2626   3.873   3.354   9.107 -1.0378 -0.0657  0.2155
   20SAPC  C217 2627   4.021   3.448   8.978  0.3415 -0.0045  0.4206
   20SAPC  H17R 2628   4.096   3.375   9.014  1.2204  0.2011 -0.9444
   20SAPC  H17S 2629   4.076   3.544   8.989  0.0662  0.6275 -3.1024
   20SAPC  C218 2630   3.981   3.430   8.829 -0.2066  0.0022  0.8889
   20SAPC  H18R 2631   3.918   3.512   8.789  1.2973  1.1352  0.7993
   20SAPC  H18S 2632   3.940   3.335   8.791  0.7700  0.2408 -0.8182
   20SAPC  C219 2633   4.107   3.438   8.736  0.2336  0.3315  0.2232
   20SAPC  H19R 2634   4.068   3.408   8.637  0.2308  0.1265  0.2849
   20SAPC  H19S 2635   4.179   3.359   8.767 -0.8882 -0.3572  1.1279
   20SAPC  C220 2636   4.191   3.572   8.738  0.1728  0.2334 -0.1851
   20SAPC  H20R 2637   4.272   3.568   8.662  0.3049 -1.2999  0.0080
   20SAPC  H20S 2638   4.246   3.579   8.834 -1.5309  2.4810  0.6364
   20SAPC  H20T 2639   4.129   3.660   8.714 -0.7042 -0.5158 -0.7108
   20SAPC   C33 2640   3.288   3.077  10.168  0.0893 -1.1734 -0.3711
   20SAPC   H3X 2641   3.333   3.174  10.197  0.7593 -1.2639 -1.1147
   20SAPC   H3Y 2642   3.183   3.087  10.205  0.5914 -2.4791  1.4981
   20SAPC   C34 2643   3.297   3.075  10.013 -0.5757  0.4327 -0.1997
   20SAPC   H4X 2644   3.244   2.985   9.975  0.6310 -0.1941 -0.4111
   20SAPC   H4Y 2645   3.403   3.061   9.984 -0.0958  1.4753  0.9950
   20SAPC   C35 2646   3.238   3.201   9.951  0.0787  0.6080 -0.0027
   20SAPC   H5X 2647   3.293   3.291   9.986  1.5056 -0.5168  0.6911
   20SAPC   H5Y 2648   3.144   3.211  10.008  0.4076 -0.2059  0.6981
   20SAPC   C36 2649   3.219   3.205   9.803 -0.6167  0.2545  0.0919
   20SAPC   H6X 2650   3.140   3.279   9.777 -2.1973 -0.7727  1.8450
   20SAPC   H6Y 2651   3.177   3.109   9.766 -1.9147  1.3904 -1.4815
   20SAPC   C37 2652   3.350   3.231   9.725  0.5921  0.4037  0.2107
   20SAPC   H7X 2653   3.437   3.182   9.774 -0.5675 -1.4782  0.4477
   20SAPC   H7Y 2654   3.371   3.339   9.717  0.0472  0.3043 -3.5102
   20SAPC   C38 2655   3.340   3.182   9.582 -0.3126  1.0478  0.1574
   20SAPC   H8X 2656   3.255   3.112   9.567  1.6409 -1.2156 -0.5723
   20SAPC   H8Y 2657   3.427   3.115   9.568  0.1265  1.6549 -0.0035
   20SAPC   C39 2658   3.339   3.290   9.480  0.4381  0.3440 -0.1289
   20SAPC   H9X 2659   3.429   3.354   9.491  0.8405 -0.5061  1.6159
   20SAPC   H9Y 2660   3.250   3.356   9.489 -0.8607 -1.4823  0.7241
   20SAPC  C310 2661   3.345   3.233   9.338 -0.0901  0.5097  0.0569
   20SAPC  H10X 2662   3.272   3.154   9.308  2.3066 -1.5073 -0.6415
   20SAPC  H10Y 2663   3.440   3.175   9.340 -0.9554 -0.8999  1.3106
   20SAPC  C311 2664   3.330   3.341   9.235 -1.0000 -0.4268 -0.1683
   20SAPC  H11X 2665   3.421   3.401   9.259 -3.1214  1.9090  2.3241
   20SAPC  H11Y 2666   3.246   3.413   9.244 -0.0346  0.5686  1.2882
   20SAPC  C312 2667   3.320   3.291   9.090 -0.2524 -0.2007 -0.6102
   20SAPC  H12X 2668   3.215   3.274   9.058 -0.6756  0.7540  0.2254
   20SAPC  H12Y 2669   3.376   3.195   9.092 -0.2972 -0.2171  1.4853
   20SAPC  C313 2670   3.389   3.390   8.989 -0.2452  0.1701 -0.2860
   20SAPC  H13X 2671   3.423   3.335   8.899  0.8616 -1.2196  0.9521
   20SAPC  H13Y 2672   3.484   3.425   9.035 -0.4649 -0.6734  0.8374
   20SAPC  C314 2673   3.313   3.519   8.961 -0.3683 -0.0819  0.3070
   20SAPC  H14X 2674   3.378   3.594   8.911  0.5867 -2.3834 -2.0277
   20SAPC  H14Y 2675   3.282   3.571   9.054  2.7017  0.2130  1.2268
   20SAPC  C315 2676   3.188   3.498   8.872  0.1414 -0.0387  0.4499
   20SAPC  H15X 2677   3.129   3.592   8.862  0.1661  0.2197  2.4328
   20SAPC  H15Y 2678   3.120   3.422   8.916 -1.4424  2.0402  1.7355
   20SAPC  C316 2679   3.222   3.452   8.727  0.5944 -0.0313  0.2549
   20SAPC  H16X 2680   3.291   3.366   8.742 -1.9073 -1.9082  1.4012
   20SAPC  H16Y 2681   3.262   3.543   8.677  2.3944 -2.5685 -3.0826
   20SAPC  C317 2682   3.103   3.397   8.654 -0.2894 -0.0466  0.1442
   20SAPC  H17X 2683   3.120   3.384   8.545  2.9255 -3.0276  0.9187
   20SAPC  H17Y 2684   3.021   3.470   8.668  0.7610  0.8923  1.6021
   20SAPC  C318 2685   3.053   3.262   8.705 -0.3273 -0.4197  0.0229
   20SAPC  H18X 2686   3.132   3.188   8.681 -0.2041 -0.7084  1.3322
   20SAPC  H18Y 2687   2.957   3.226   8.662 -0.4984 -0.4773  0.4554
   20SAPC  H18Z 2688   3.047   3.256   8.815  1.4054  0.5922  0.1968
   21SAPC     N 2689   3.885   2.183  11.013 -0.0343  0.3188 -0.1438
   21SAPC   C12 2690   3.811   2.199  10.881  0.4995 -1.3200 -0.0298
   21SAPC  H12A 2691   3.832   2.297  10.839 -0.7119 -0.5161  1.2155
   21SAPC  H12B 2692   3.705   2.188  10.897  0.7585 -0.7560  2.2093
   21SAPC   C13 2693   3.856   2.057  11.082  0.0423 -0.6657 -0.2263
   21SAPC  H13A 2694   3.756   2.056  11.125 -0.5241 -3.1374 -1.4723
   21SAPC  H13B 2695   3.860   1.972  11.016 -0.5169 -1.6923  1.0218
   21SAPC  H13C 2696   3.921   2.037  11.166 -0.5047 -1.3299  0.0487
   21SAPC   C14 2697   4.030   2.177  10.987 -0.3557 -0.0908 -0.3804
   21SAPC  H14A 2698   4.076   2.275  10.977 -2.1776  0.8342  0.1356
   21SAPC  H14B 2699   4.080   2.137  11.074  0.7771 -0.9923 -1.4243
   21SAPC  H14C 2700   4.061   2.111  10.908 -0.2901 -1.2517  0.6047
   21SAPC   C15 2701   3.846   2.300  11.095 -0.2937 -0.1932  0.3196
   21SAPC  H15A 2702   3.894   2.296  11.191  3.0748  0.6759 -1.2615
   21SAPC  H15B 2703   3.892   2.389  11.056 -1.0649 -0.3410 -0.9714
   21SAPC  H15C 2704   3.739   2.309  11.106 -0.0501  0.3844  2.3254
   21SAPC   C11 2705   3.837   2.084  10.770 -0.1707  0.7014 -1.2153
   21SAPC  H11A 2706   3.945   2.065  10.755 -0.3191 -0.3902 -0.9655
   21SAPC  H11B 2707   3.795   2.114  10.672 -3.4925  1.4208  0.3562
   21SAPC     P 2708   3.653   1.902  10.749 -0.2953  0.0087 -0.5900
   21SAPC   O13 2709   3.671   1.756  10.742 -0.0353  0.1784 -0.3546
   21SAPC   O14 2710   3.541   1.951  10.836 -0.1802 -0.3998  0.1345
   21SAPC   O12 2711   3.781   1.958  10.804 -0.1774  0.1709 -0.3617
   21SAPC   O11 2712   3.640   1.953  10.606 -0.2181 -0.3106  0.4652
   21SAPC    C1 2713   3.514   2.025  10.583  0.8837  0.2641 -0.1641
   21SAPC    HA 2714   3.422   1.970  10.612  0.5892  1.2795  0.8293
   21SAPC    HB 2715   3.521   2.123  10.634  1.8075 -0.5225  1.2276
   21SAPC    C2 2716   3.489   2.055  10.437 -0.5431  0.6060 -0.2852
   21SAPC    HS 2717   3.384   2.088  10.424 -0.6740  0.8073  1.2618
   21SAPC   O21 2718   3.519   1.936  10.354 -0.2680  0.5963 -0.6358
   21SAPC   C21 2719   3.418   1.843  10.348  0.1480  0.2437  0.4561
   21SAPC   O22 2720   3.308   1.858  10.400  0.2639 -0.3166 -0.4617
   21SAPC   C22 2721   3.473   1.719  10.272 -0.0852  0.1859  0.5637
   21SAPC   H2R 2722   3.564   1.750  10.217  0.3050 -1.7924  0.0330
   21SAPC   H2S 2723   3.476   1.639  10.349 -0.3593 -0.1355  0.2435
   21SAPC    C3 2724   3.578   2.164  10.383 -0.0125 -0.3517 -0.1678
   21SAPC    HX 2725   3.685   2.133  10.381  0.0116 -0.2401 -0.5474
   21SAPC    HY 2726   3.561   2.245  10.458  0.5312  1.4968 -1.9780
   21SAPC   O31 2727   3.543   2.201  10.249  0.6915 -0.4166 -0.2489
   21SAPC   C31 2728   3.612   2.299  10.207  0.0627  0.5105 -0.0560
   21SAPC   O32 2729   3.703   2.355  10.271  0.3383 -0.3471  0.5354
   21SAPC   C32 2730   3.563   2.351  10.075  0.1060 -0.9842 -0.0537
   21SAPC   H2X 2731   3.455   2.377  10.073  0.2662 -0.3691 -1.2973
   21SAPC   H2Y 2732   3.572   2.270  10.000  0.4724 -2.0513  1.1309
   21SAPC   C23 2733   3.384   1.667  10.155  0.7445  0.8540 -0.3696
   21SAPC   H3R 2734   3.288   1.625  10.191  1.4637 -1.9794 -1.6200
   21SAPC   H3S 2735   3.444   1.585  10.111  1.6081  0.4755  1.4536
   21SAPC   C24 2736   3.362   1.762  10.037 -0.5012  0.1780 -0.9388
   21SAPC   H4R 2737   3.467   1.783  10.005 -0.1703  1.1442  0.7218
   21SAPC   H4S 2738   3.314   1.858  10.067  0.2058  0.8547 -1.9199
   21SAPC   C25 2739   3.277   1.706   9.924 -0.1421  0.4000  1.2882
   21SAPC   H5R 2740   3.171   1.696   9.949 -0.5019 -2.5102 -1.0549
   21SAPC   C26 2741   3.321   1.690   9.798  0.0166  0.4857 -0.5971
   21SAPC   H6R 2742   3.245   1.664   9.723  0.5893 -1.3978 -0.5611
   21SAPC   C27 2743   3.462   1.708   9.741  0.0788  0.2510 -0.2974
   21SAPC   H7R 2744   3.527   1.727   9.829 -2.3750  1.8388  1.2421
   21SAPC   H7S 2745   3.471   1.801   9.682  1.1818  1.1321  1.2150
   21SAPC   C28 2746   3.511   1.590   9.660  0.8021 -0.0267 -0.1090
   21SAPC   H8R 2747   3.568   1.508   9.706  1.6022 -0.7883 -2.3873
   21SAPC   C29 2748   3.485   1.578   9.532  0.1465 -0.0044  0.4356
   21SAPC   H9R 2749   3.509   1.483   9.482 -0.3286 -0.4806  1.0968
   21SAPC  C210 2750   3.401   1.668   9.446 -0.4362  0.1904  0.2503
   21SAPC  H10R 2751   3.453   1.662   9.348 -0.2784 -0.6155  0.3834
   21SAPC  H10S 2752   3.408   1.773   9.483  0.8176  0.0219  0.5168
   21SAPC  C211 2753   3.257   1.627   9.436 -0.3534  0.3424  0.0639
   21SAPC  H11R 2754   3.227   1.558   9.516  0.9943 -1.9897 -1.3950
   21SAPC  C212 2755   3.177   1.656   9.332 -0.5633 -0.3317 -1.0011
   21SAPC  H12R 2756   3.075   1.616   9.338  0.5694 -2.9627  2.6201
   21SAPC  C213 2757   3.213   1.745   9.214  0.3368  0.0868 -0.7865
   21SAPC  H13R 2758   3.298   1.812   9.239  1.8521 -1.2207 -2.3482
   21SAPC  H13S 2759   3.129   1.815   9.191 -0.3134 -0.1981  0.6761
   21SAPC  C214 2760   3.256   1.646   9.100  0.6504 -0.1834  0.8962
   21SAPC  H14R 2761   3.307   1.551   9.122  1.9706 -0.5947 -3.5760
   21SAPC  C215 2762   3.237   1.662   8.970 -0.5385  0.7919 -0.3729
   21SAPC  H15R 2763   3.279   1.584   8.905  2.0323  2.3951 -0.7300
   21SAPC  C216 2764   3.161   1.777   8.903  0.1932 -0.0064 -0.5578
   21SAPC  H16R 2765   3.201   1.797   8.801  1.7615 -0.8677 -0.1261
   21SAPC  H16S 2766   3.177   1.870   8.962 -0.4996  0.5069 -1.1640
   21SAPC  C217 2767   3.011   1.769   8.900 -0.4833  0.1292  0.6441
   21SAPC  H17R 2768   2.973   1.714   8.988 -1.3438  2.5743  1.8520
   21SAPC  H17S 2769   2.983   1.709   8.810  0.9081 -0.1908  0.4240
   21SAPC  C218 2770   2.946   1.912   8.909 -0.6588 -0.8672 -0.1665
   21SAPC  H18R 2771   3.023   1.974   8.857 -0.6790 -1.4778 -0.9362
   21SAPC  H18S 2772   2.937   1.939   9.016 -1.6354  0.3856 -0.5513
   21SAPC  C219 2773   2.810   1.933   8.836 -0.4542  0.0782  0.0310
   21SAPC  H19R 2774   2.825   1.911   8.728  0.2092  2.3376 -0.3437
   21SAPC  H19S 2775   2.782   2.040   8.848 -1.3398 -0.2238  0.7424
   21SAPC  C220 2776   2.695   1.854   8.903 -0.0712 -1.0796  0.2697
   21SAPC  H20R 2777   2.596   1.902   8.888 -0.3715 -1.1999  1.8507
   21SAPC  H20S 2778   2.704   1.848   9.013  0.8050 -1.5936  0.1778
   21SAPC  H20T 2779   2.694   1.747   8.874  0.9508 -0.9011 -0.4628
   21SAPC   C33 2780   3.641   2.481  10.026 -0.1970 -0.6397 -0.4234
   21SAPC   H3X 2781   3.695   2.528  10.110  0.9985 -1.4038 -0.7582
   21SAPC   H3Y 2782   3.564   2.558  10.001 -0.8254 -1.2515 -0.4092
   21SAPC   C34 2783   3.723   2.466   9.897  0.5911  0.1587 -0.3362
   21SAPC   H4X 2784   3.778   2.370   9.905 -0.2128 -0.2393  0.4850
   21SAPC   H4Y 2785   3.801   2.545   9.890  1.4389 -0.3315  2.9632
   21SAPC   C35 2786   3.625   2.470   9.781  0.3248  0.5299 -0.5032
   21SAPC   H5X 2787   3.571   2.567   9.783 -2.7630 -1.0886 -2.1018
   21SAPC   H5Y 2788   3.548   2.390   9.782  0.1274  0.7201  3.0906
   21SAPC   C36 2789   3.706   2.461   9.648  0.2211 -0.4618 -0.0846
   21SAPC   H6X 2790   3.769   2.370   9.651  1.1555  0.1111 -2.0020
   21SAPC   H6Y 2791   3.781   2.543   9.646  2.0406 -2.0980 -0.2875
   21SAPC   C37 2792   3.620   2.462   9.531 -0.0943 -0.9170 -1.1872
   21SAPC   H7X 2793   3.563   2.556   9.518  2.5620  0.8752 -0.3078
   21SAPC   H7Y 2794   3.526   2.407   9.554  0.0650  0.0378  1.8916
   21SAPC   C38 2795   3.679   2.422   9.397 -0.1810 -0.3067 -0.7224
   21SAPC   H8X 2796   3.699   2.313   9.404 -0.5256 -0.3821 -0.9390
   21SAPC   H8Y 2797   3.774   2.476   9.377 -0.3048 -0.2141 -1.0499
   21SAPC   C39 2798   3.590   2.447   9.279 -0.0360  0.2803  0.3371
   21SAPC   H9X 2799   3.551   2.550   9.294 -1.3458 -0.0065 -1.0067
   21SAPC   H9Y 2800   3.509   2.372   9.290  0.3427 -0.5197 -2.1022
   21SAPC  C310 2801   3.666   2.435   9.145  0.0884  0.2650 -0.5127
   21SAPC  H10X 2802   3.729   2.344   9.149 -1.2283 -0.6147  0.8890
   21SAPC  H10Y 2803   3.731   2.525   9.143  0.9301 -0.3233  0.1102
   21SAPC  C311 2804   3.572   2.440   9.025 -0.2915  0.1186 -0.2549
   21SAPC  H11X 2805   3.534   2.544   9.021 -2.5305 -0.7082 -1.2643
   21SAPC  H11Y 2806   3.484   2.374   9.039  0.5472 -0.9525  0.0332
   21SAPC  C312 2807   3.646   2.421   8.892  1.0693  0.8169  0.3737
   21SAPC  H12X 2808   3.571   2.429   8.811  0.5444 -3.2118  0.3552
   21SAPC  H12Y 2809   3.694   2.322   8.875  0.9305  0.4564  1.9467
   21SAPC  C313 2810   3.750   2.533   8.854  0.3298  0.4758 -0.2224
   21SAPC  H13X 2811   3.815   2.563   8.939  1.5776 -3.4929  0.3190
   21SAPC  H13Y 2812   3.691   2.624   8.831 -0.8277  0.0387  0.9257
   21SAPC  C314 2813   3.836   2.502   8.726  0.4670  0.1909 -0.0426
   21SAPC  H14X 2814   3.780   2.442   8.651  1.1278  1.1682 -1.3365
   21SAPC  H14Y 2815   3.924   2.439   8.750  1.8168  2.1320  0.1997
   21SAPC  C315 2816   3.893   2.620   8.653  0.3274  0.3628 -0.2495
   21SAPC  H15X 2817   3.969   2.579   8.583  1.2166  0.4933  0.6254
   21SAPC  H15Y 2818   3.952   2.684   8.723  0.3805  0.1574 -0.1075
   21SAPC  C316 2819   3.788   2.703   8.577 -0.3635 -0.5295  0.3233
   21SAPC  H16X 2820   3.726   2.758   8.651  1.6861 -1.4051  2.7792
   21SAPC  H16Y 2821   3.726   2.638   8.512  0.4730 -1.2646  0.2536
   21SAPC  C317 2822   3.847   2.805   8.484  0.1437  0.0702  0.5070
   21SAPC  H17X 2823   3.937   2.849   8.533 -0.4807  0.5472  1.2301
   21SAPC  H17Y 2824   3.768   2.883   8.474 -1.4094 -1.8064 -2.9758
   21SAPC  C318 2825   3.896   2.747   8.348 -0.1267 -0.8925 -0.0174
   21SAPC  H18X 2826   3.913   2.822   8.267  1.6690 -2.2101 -0.8783
   21SAPC  H18Y 2827   3.823   2.674   8.307 -1.5519 -0.0765  1.0233
   21SAPC  H18Z 2828   3.993   2.693   8.354 -0.5204 -1.4019  2.1310
   22SAPC     N 2829   2.398   6.674  11.135 -0.4590 -0.1365 -0.1932
   22SAPC   C12 2830   2.490   6.557  11.126  0.1751 -0.9728  0.4658
   22SAPC  H12A 2831   2.493   6.484  11.205  1.3930  0.2328  1.5638
   22SAPC  H12B 2832   2.588   6.603  11.126  0.0631 -0.7319  1.1041
   22SAPC   C13 2833   2.393   6.741  11.275  0.3773 -0.4332  0.0394
   22SAPC  H13A 2834   2.334   6.832  11.269 -2.2390 -2.0205  0.7204
   22SAPC  H13B 2835   2.371   6.673  11.355  3.9548 -3.3669 -1.3361
   22SAPC  H13C 2836   2.488   6.785  11.300  0.1608  0.3827 -0.5381
   22SAPC   C14 2837   2.437   6.780  11.033 -0.8931  0.9801 -0.2190
   22SAPC  H14A 2838   2.363   6.858  11.020 -0.2306  1.3426 -1.9287
   22SAPC  H14B 2839   2.538   6.811  11.054  0.2309 -1.7152 -1.4373
   22SAPC  H14C 2840   2.452   6.747  10.931 -1.2792  1.9803 -0.6072
   22SAPC   C15 2841   2.264   6.629  11.094 -0.4675 -0.3304 -0.2179
   22SAPC  H15A 2842   2.274   6.594  10.992  1.7395  1.5435 -0.6902
   22SAPC  H15B 2843   2.237   6.551  11.163  1.2744  1.0257  2.0629
   22SAPC  H15C 2844   2.193   6.711  11.101 -0.6591 -0.6688  2.1604
   22SAPC   C11 2845   2.478   6.467  10.997  0.0221 -0.0439  0.8951
   22SAPC  H11A 2846   2.378   6.417  10.998  0.8596 -1.7352  1.8002
   22SAPC  H11B 2847   2.544   6.378  10.999 -3.0978 -2.5115 -1.2096
   22SAPC     P 2848   2.378   6.548  10.759  0.0621  0.1600  0.2115
   22SAPC   O13 2849   2.234   6.545  10.812 -0.1422 -0.2265  0.7404
   22SAPC   O14 2850   2.410   6.667  10.678 -0.5202 -0.3474 -0.0272
   22SAPC   O12 2851   2.483   6.540  10.876  0.1503 -0.3351 -0.6304
   22SAPC   O11 2852   2.412   6.420  10.666 -0.4054  0.1230  0.1140
   22SAPC    C1 2853   2.545   6.387  10.625  0.2123  0.4901 -0.0569
   22SAPC    HA 2854   2.620   6.428  10.697  2.1361 -0.5072 -1.4619
   22SAPC    HB 2855   2.558   6.277  10.635 -1.7698  0.2949  0.6210
   22SAPC    C2 2856   2.580   6.413  10.469  0.0987  0.3563  0.3782
   22SAPC    HS 2857   2.596   6.522  10.455  2.0971 -0.1456 -1.4282
   22SAPC   O21 2858   2.466   6.368  10.385  0.0321  0.3894 -0.1473
   22SAPC   C21 2859   2.456   6.434  10.270  0.1976  1.2422  0.1753
   22SAPC   O22 2860   2.521   6.535  10.240 -0.8103  0.0782  0.0739
   22SAPC   C22 2861   2.352   6.368  10.186  0.1710 -0.3199  0.0426
   22SAPC   H2R 2862   2.380   6.264  10.157 -0.1888 -0.5790  0.6212
   22SAPC   H2S 2863   2.254   6.383  10.236 -0.2800 -0.7467 -0.6987
   22SAPC    C3 2864   2.718   6.341  10.438 -0.0033  0.2866  0.0608
   22SAPC    HX 2865   2.698   6.232  10.439 -0.3572  0.3551  0.8732
   22SAPC    HY 2866   2.783   6.363  10.525 -0.6048  3.0406 -0.1557
   22SAPC   O31 2867   2.778   6.376  10.313 -0.1738  0.4909 -0.2229
   22SAPC   C31 2868   2.864   6.475  10.311  0.3573  0.2114 -0.1138
   22SAPC   O32 2869   2.883   6.554  10.401 -0.0468 -0.4034 -0.6063
   22SAPC   C32 2870   2.914   6.492  10.170  0.1869  0.0372  0.4514
   22SAPC   H2X 2871   3.008   6.435  10.154 -1.1725 -2.5851  1.5347
   22SAPC   H2Y 2872   2.940   6.600  10.167 -1.5942  0.4595 -0.9830
   22SAPC   C23 2873   2.323   6.438  10.051  1.4512 -0.5998 -0.5443
   22SAPC   H3R 2874   2.336   6.548  10.061 -1.2163 -0.4319  1.8549
   22SAPC   H3S 2875   2.213   6.429  10.036  1.3714 -0.5084 -0.0301
   22SAPC   C24 2876   2.394   6.375   9.928 -0.5014 -0.3800  0.1928
   22SAPC   H4R 2877   2.497   6.345   9.958  0.4316  0.2325 -2.3281
   22SAPC   H4S 2878   2.393   6.454   9.850  0.0927 -0.2548  0.3133
   22SAPC   C25 2879   2.316   6.251   9.878 -0.4055 -0.2156  0.3776
   22SAPC   H5R 2880   2.296   6.172   9.951  1.6029 -1.3630 -0.2656
   22SAPC   C26 2881   2.264   6.242   9.750 -0.1006  1.0755  0.7184
   22SAPC   H6R 2882   2.211   6.149   9.726  0.9548  0.2333  1.6084
   22SAPC   C27 2883   2.267   6.339   9.630  0.2824 -0.5750 -0.3856
   22SAPC   H7R 2884   2.302   6.444   9.645  1.1745 -0.8708 -0.4016
   22SAPC   H7S 2885   2.163   6.363   9.598 -0.0042 -0.2095  0.7919
   22SAPC   C28 2886   2.336   6.264   9.519  0.8561 -0.2715 -0.5082
   22SAPC   H8R 2887   2.429   6.210   9.545  0.5404  0.1967  1.7125
   22SAPC   C29 2888   2.291   6.252   9.393 -1.0685 -0.2263 -0.2594
   22SAPC   H9R 2889   2.350   6.197   9.320  1.8781  1.2161  0.9410
   22SAPC  C210 2890   2.171   6.325   9.343  0.0851 -0.2689 -0.5672
   22SAPC  H10R 2891   2.187   6.430   9.376  0.6391 -0.2921 -0.7654
   22SAPC  H10S 2892   2.085   6.274   9.392  1.2469 -3.2908 -1.5674
   22SAPC  C211 2893   2.139   6.332   9.194  0.1181  0.2313  0.0884
   22SAPC  H11R 2894   2.215   6.388   9.137 -0.0542 -0.2197 -0.6006
   22SAPC  C212 2895   2.024   6.296   9.132  0.1424  0.1178  0.1319
   22SAPC  H12R 2896   2.024   6.321   9.025 -0.0030  1.9109  0.5477
   22SAPC  C213 2897   1.905   6.224   9.188  0.3305 -0.6689  0.2407
   22SAPC  H13R 2898   1.943   6.182   9.284 -0.7604 -1.4250  0.3495
   22SAPC  H13S 2899   1.870   6.139   9.124 -1.8613 -0.2760  0.8584
   22SAPC  C214 2900   1.794   6.322   9.189 -0.8239  0.4410 -0.5604
   22SAPC  H14R 2901   1.809   6.406   9.121  0.8363 -0.0389 -0.8213
   22SAPC  C215 2902   1.686   6.326   9.274 -0.0743 -0.0801  0.2003
   22SAPC  H15R 2903   1.617   6.409   9.256 -0.4709 -0.3860  0.2861
   22SAPC  C216 2904   1.659   6.234   9.388 -0.3758 -0.3221  0.1075
   22SAPC  H16R 2905   1.697   6.130   9.374  1.9530  0.7916 -2.1125
   22SAPC  H16S 2906   1.548   6.224   9.391 -0.3025 -1.1895  0.1188
   22SAPC  C217 2907   1.717   6.286   9.520 -0.1184 -0.5216 -0.2798
   22SAPC  H17R 2908   1.687   6.393   9.521  1.4729 -0.0397 -1.5664
   22SAPC  H17S 2909   1.828   6.283   9.515 -0.1046 -0.8836  0.2133
   22SAPC  C218 2910   1.662   6.214   9.642  0.1584  0.4116 -0.0277
   22SAPC  H18R 2911   1.672   6.103   9.644 -1.1652  0.2840  0.4971
   22SAPC  H18S 2912   1.554   6.234   9.658  0.6162  2.8583  0.2061
   22SAPC  C219 2913   1.746   6.263   9.764 -0.1907 -0.6922 -0.8492
   22SAPC  H19R 2914   1.721   6.193   9.846  2.2799 -0.6992 -0.0594
   22SAPC  H19S 2915   1.723   6.369   9.788  0.9559 -0.0880 -2.2941
   22SAPC  C220 2916   1.896   6.255   9.752  0.0501  0.3555 -1.2092
   22SAPC  H20R 2917   1.922   6.178   9.676  0.6677  1.2752 -1.9325
   22SAPC  H20S 2918   1.946   6.227   9.848 -2.2287 -1.9914 -0.6232
   22SAPC  H20T 2919   1.943   6.352   9.726  1.9554 -0.3413 -0.4508
   22SAPC   C33 2920   2.806   6.475  10.061  0.1911  0.2836 -0.2747
   22SAPC   H3X 2921   2.723   6.547  10.077  0.2880  0.4922 -0.7230
   22SAPC   H3Y 2922   2.767   6.371  10.069 -0.2025  0.4639  0.2120
   22SAPC   C34 2923   2.856   6.518   9.917  0.0227 -0.3313 -0.1218
   22SAPC   H4X 2924   2.932   6.447   9.880 -0.3210 -1.5277  1.4214
   22SAPC   H4Y 2925   2.867   6.628   9.902  0.9379 -0.1854  1.5312
   22SAPC   C35 2926   2.753   6.476   9.808 -0.5978 -0.0270  0.3879
   22SAPC   H5X 2927   2.654   6.518   9.836 -0.6924  0.2020 -0.3039
   22SAPC   H5Y 2928   2.740   6.367   9.828 -1.7293 -0.0548 -0.4666
   22SAPC   C36 2929   2.799   6.482   9.668 -0.5079  0.0559 -0.0115
   22SAPC   H6X 2930   2.900   6.444   9.645 -2.2698 -3.2270 -2.7299
   22SAPC   H6Y 2931   2.806   6.588   9.636 -0.1757 -0.7048 -2.5801
   22SAPC   C37 2932   2.718   6.407   9.560  0.4275 -0.0943  0.1447
   22SAPC   H7X 2933   2.612   6.437   9.576  0.7140  1.4948 -0.8118
   22SAPC   H7Y 2934   2.729   6.299   9.583  0.3715  0.0136  0.6964
   22SAPC   C38 2935   2.749   6.447   9.414 -0.3880  0.0287 -0.7081
   22SAPC   H8X 2936   2.844   6.402   9.379  0.1708  0.2921  0.4231
   22SAPC   H8Y 2937   2.770   6.556   9.413 -1.6738  0.3783  2.4987
   22SAPC   C39 2938   2.642   6.407   9.312 -0.1972  0.2906 -0.8733
   22SAPC   H9X 2939   2.564   6.485   9.325 -2.1010 -1.5336 -0.9729
   22SAPC   H9Y 2940   2.596   6.310   9.343 -2.1806  1.6480  0.5547
   22SAPC  C310 2941   2.682   6.386   9.171  0.4376 -0.1763  0.0303
   22SAPC  H10X 2942   2.728   6.285   9.171 -1.2371 -0.9510 -1.9674
   22SAPC  H10Y 2943   2.768   6.456   9.156  0.4954 -0.5787 -1.6191
   22SAPC  C311 2944   2.572   6.397   9.066 -0.0940 -0.5681 -0.3567
   22SAPC  H11X 2945   2.540   6.503   9.064 -1.6532 -0.9678  1.2090
   22SAPC  H11Y 2946   2.487   6.334   9.101 -0.1919 -0.9739 -1.3290
   22SAPC  C312 2947   2.596   6.348   8.926 -0.2461  0.7247 -0.2012
   22SAPC  H12X 2948   2.528   6.410   8.863 -0.0980  2.5140  1.3502
   22SAPC  H12Y 2949   2.576   6.239   8.920  0.9510  0.4458  0.7974
   22SAPC  C313 2950   2.739   6.356   8.870 -0.4568 -0.2395  0.9004
   22SAPC  H13X 2951   2.810   6.300   8.935 -0.7519  0.2018  1.6038
   22SAPC  H13Y 2952   2.777   6.460   8.869  0.7463 -0.6712  0.2099
   22SAPC  C314 2953   2.752   6.293   8.737  0.1240  0.5526  0.7064
   22SAPC  H14X 2954   2.681   6.346   8.669  0.0682 -0.6913 -0.2316
   22SAPC  H14Y 2955   2.722   6.186   8.739 -3.0636  1.3894  1.5998
   22SAPC  C315 2956   2.881   6.309   8.664  0.3134  0.4319  0.4762
   22SAPC  H15X 2957   2.953   6.256   8.730  0.4295  1.1044  0.8944
   22SAPC  H15Y 2958   2.929   6.408   8.648  1.6887 -0.1718  0.8110
   22SAPC  C316 2959   2.872   6.235   8.528  0.0459 -0.6410 -0.1215
   22SAPC  H16X 2960   2.784   6.275   8.472  0.9535  0.8728 -0.5035
   22SAPC  H16Y 2961   2.847   6.131   8.559  0.4320 -0.2902  1.4013
   22SAPC  C317 2962   3.004   6.261   8.455 -0.1144  0.3454 -0.4495
   22SAPC  H17X 2963   3.082   6.257   8.533 -1.7412  0.5084  1.2106
   22SAPC  H17Y 2964   3.006   6.369   8.430  0.9898  0.4816  0.2221
   22SAPC  C318 2965   3.035   6.171   8.337 -0.5972  0.3123 -0.5108
   22SAPC  H18X 2966   2.991   6.203   8.241 -1.8326 -0.2840 -0.1513
   22SAPC  H18Y 2967   3.019   6.062   8.353  4.1734 -0.3528  0.7318
   22SAPC  H18Z 2968   3.142   6.193   8.317 -0.4268  1.2896  1.3130
   23SAPC     N 2969   4.594   1.791  10.545 -0.9526  0.4492  0.3089
   23SAPC   C12 2970   4.527   1.695  10.643 -0.8919 -0.1538 -0.4387
   23SAPC  H12A 2971   4.541   1.737  10.741  3.7388 -0.4173 -0.8658
   23SAPC  H12B 2972   4.585   1.604  10.648  2.1557  1.8190  1.1833
   23SAPC   C13 2973   4.524   1.918  10.538 -0.5851 -0.3809 -0.3737
   23SAPC  H13A 2974   4.579   1.989  10.478  0.8638 -1.3189 -0.1840
   23SAPC  H13B 2975   4.425   1.903  10.497  0.1244 -3.0156 -1.2211
   23SAPC  H13C 2976   4.519   1.955  10.639  0.5583  0.5583 -0.6452
   23SAPC   C14 2977   4.742   1.815  10.570 -0.1625 -0.3611 -0.7714
   23SAPC  H14A 2978   4.804   1.727  10.566 -0.3879 -0.5348 -0.3790
   23SAPC  H14B 2979   4.783   1.882  10.495 -2.6176  1.1373 -0.8439
   23SAPC  H14C 2980   4.745   1.854  10.670 -3.3141 -0.7024 -0.4922
   23SAPC   C15 2981   4.590   1.722  10.411  0.1102 -0.3092 -0.0439
   23SAPC  H15A 2982   4.668   1.649  10.394  1.8271  1.6180 -0.6741
   23SAPC  H15B 2983   4.496   1.669  10.405 -1.4912  2.0667  2.6334
   23SAPC  H15C 2984   4.589   1.797  10.333  1.0893 -0.7565 -0.4911
   23SAPC   C11 2985   4.381   1.657  10.634  0.1858  1.0858  0.5634
   23SAPC  H11A 2986   4.324   1.749  10.660  0.7206  1.2551  1.1593
   23SAPC  H11B 2987   4.363   1.588  10.720  0.6171  1.5329  1.0127
   23SAPC     P 2988   4.293   1.447  10.512 -0.2076  0.0425 -0.2024
   23SAPC   O13 2989   4.369   1.370  10.612  0.4519 -0.1767  0.3808
   23SAPC   O14 2990   4.144   1.446  10.528 -0.2667 -0.2954 -0.1684
   23SAPC   O12 2991   4.351   1.591  10.506  0.6101  0.1310 -0.0762
   23SAPC   O11 2992   4.326   1.388  10.369  0.5109 -0.8823  0.0593
   23SAPC    C1 2993   4.455   1.341  10.326  0.6795  0.4106 -0.2428
   23SAPC    HA 2994   4.526   1.311  10.407  0.0088 -3.3864 -0.9483
   23SAPC    HB 2995   4.429   1.242  10.282  1.0919  0.1759  0.0361
   23SAPC    C2 2996   4.508   1.436  10.230 -1.2470  0.0311  0.3755
   23SAPC    HS 2997   4.505   1.541  10.264  1.3706  0.1012  0.4453
   23SAPC   O21 2998   4.445   1.412  10.109 -0.5612 -0.3351  0.7101
   23SAPC   C21 2999   4.354   1.499  10.075 -0.0784  0.1394 -0.0187
   23SAPC   O22 3000   4.326   1.601  10.134 -0.4633 -0.0795  0.3616
   23SAPC   C22 3001   4.284   1.461   9.946  0.2791 -0.4692 -0.0365
   23SAPC   H2R 3002   4.332   1.368   9.910 -0.6422 -0.9763  0.0532
   23SAPC   H2S 3003   4.179   1.438   9.971  0.7804 -1.1940  1.4889
   23SAPC    C3 3004   4.659   1.405  10.208 -0.2796  0.0523  0.3584
   23SAPC    HX 3005   4.675   1.300  10.176  0.0662 -0.7688  3.0513
   23SAPC    HY 3006   4.697   1.407  10.312 -0.2478  0.6064  0.3385
   23SAPC   O31 3007   4.724   1.505  10.122 -0.5997  0.3639  0.1411
   23SAPC   C31 3008   4.861   1.496  10.115 -0.0050  0.0192 -0.3617
   23SAPC   O32 3009   4.919   1.424  10.196  0.6169 -0.2662  0.2484
   23SAPC   C32 3010   4.924   1.576   9.994  0.2281 -0.6959 -0.0274
   23SAPC   H2X 3011   4.967   1.501   9.924 -0.7280 -0.9302 -0.3711
   23SAPC   H2Y 3012   5.010   1.632  10.036 -0.6679  1.1069 -0.5530
   23SAPC   C23 3013   4.299   1.566   9.836 -0.1362 -0.1676  0.1831
   23SAPC   H3R 3014   4.266   1.665   9.874  1.6786  0.4219  0.2705
   23SAPC   H3S 3015   4.221   1.534   9.764  1.2988 -3.1009 -0.1304
   23SAPC   C24 3016   4.441   1.595   9.776  0.0396 -0.4160 -0.8793
   23SAPC   H4R 3017   4.516   1.621   9.853 -0.9698  0.7769 -0.2832
   23SAPC   H4S 3018   4.432   1.681   9.707 -0.8384  0.7339  0.6227
   23SAPC   C25 3019   4.472   1.471   9.701 -0.1121  0.1594  0.1708
   23SAPC   H5R 3020   4.481   1.384   9.767 -1.0458 -0.7981 -0.9400
   23SAPC   C26 3021   4.449   1.453   9.574  0.0582  0.4239 -0.0126
   23SAPC   H6R 3022   4.459   1.351   9.533  2.3631  0.3363  0.6912
   23SAPC   C27 3023   4.418   1.558   9.478 -0.3498  0.1462 -0.1711
   23SAPC   H7R 3024   4.357   1.638   9.524 -0.2439 -2.0334  3.9793
   23SAPC   H7S 3025   4.355   1.508   9.401 -0.6854  0.9432 -0.4227
   23SAPC   C28 3026   4.542   1.627   9.422  0.7923  0.1186 -0.7022
   23SAPC   H8R 3027   4.612   1.657   9.501  0.8815  0.1665 -0.7994
   23SAPC   C29 3028   4.574   1.627   9.290 -0.0875  0.2862 -0.1106
   23SAPC   H9R 3029   4.676   1.659   9.266 -0.8339  1.2263 -2.2002
   23SAPC  C210 3030   4.488   1.574   9.173  0.7045  0.1333  0.7980
   23SAPC  H10R 3031   4.492   1.642   9.085 -0.0220 -0.9882 -0.1352
   23SAPC  H10S 3032   4.382   1.567   9.202  0.2469 -0.9148 -1.0175
   23SAPC  C211 3033   4.526   1.431   9.134  0.2657 -0.5161  0.1075
   23SAPC  H11R 3034   4.623   1.403   9.178  0.2936  0.5060  0.7107
   23SAPC  C212 3035   4.463   1.352   9.038 -0.0315 -0.0729 -0.2357
   23SAPC  H12R 3036   4.506   1.261   8.994  0.4186  0.2166 -0.3876
   23SAPC  C213 3037   4.332   1.384   8.970 -0.5222 -0.5678  0.4175
   23SAPC  H13R 3038   4.340   1.346   8.865 -0.0035 -0.4435  0.4104
   23SAPC  H13S 3039   4.318   1.492   8.948 -1.8293  0.0962  4.2817
   23SAPC  C214 3040   4.209   1.345   9.035 -1.1732 -0.5319 -0.5436
   23SAPC  H14R 3041   4.186   1.385   9.135 -0.5346 -1.0669 -0.1812
   23SAPC  C215 3042   4.123   1.247   8.996  0.0753 -0.1162  0.5512
   23SAPC  H15R 3043   4.033   1.221   9.055  0.2454  1.0995  1.3513
   23SAPC  C216 3044   4.129   1.168   8.865  0.0175  0.1051  0.3326
   23SAPC  H16R 3045   4.161   1.064   8.886  1.7680  0.2200 -1.6829
   23SAPC  H16S 3046   4.207   1.210   8.798  1.5775 -0.9282  1.4540
   23SAPC  C217 3047   3.991   1.166   8.792 -0.0477  0.1447  0.4273
   23SAPC  H17R 3048   3.950   1.269   8.788 -2.1884 -0.5733  2.5820
   23SAPC  H17S 3049   3.921   1.116   8.863  0.2321  1.3326  1.5709
   23SAPC  C218 3050   3.994   1.089   8.657  0.4386  0.2768  0.2114
   23SAPC  H18R 3051   3.892   1.105   8.616 -0.5344 -1.4597  1.8702
   23SAPC  H18S 3052   4.013   0.983   8.683  0.4160 -0.2545 -1.8233
   23SAPC  C219 3053   4.089   1.133   8.543 -0.6214 -0.4257  0.1269
   23SAPC  H19R 3054   4.190   1.121   8.589 -0.6697 -0.0204  0.3428
   23SAPC  H19S 3055   4.065   1.239   8.520 -0.3722 -0.7559 -1.7456
   23SAPC  C220 3056   4.098   1.043   8.419  0.3755  0.4860 -0.1744
   23SAPC  H20R 3057   4.108   1.103   8.326  0.4130  1.9608  0.7617
   23SAPC  H20S 3058   4.005   0.982   8.413 -0.4406  1.6855 -0.0657
   23SAPC  H20T 3059   4.182   0.971   8.422 -0.8507 -1.0584 -1.8219
   23SAPC   C33 3060   4.831   1.673   9.914 -0.3938 -0.5934  0.1805
   23SAPC   H3X 3061   4.797   1.763   9.970 -0.3244 -0.4849  0.0506
   23SAPC   H3Y 3062   4.749   1.605   9.882 -0.2485 -1.3608  1.4159
   23SAPC   C34 3063   4.898   1.730   9.790 -0.1898  0.4994  0.1291
   23SAPC   H4X 3064   5.002   1.749   9.824  1.0328 -3.8933 -0.7932
   23SAPC   H4Y 3065   4.843   1.823   9.765 -0.9794 -0.1435 -0.5651
   23SAPC   C35 3066   4.903   1.627   9.675  0.8316  1.1692  0.3211
   23SAPC   H5X 3067   4.800   1.589   9.660  1.2846  0.7476 -2.0054
   23SAPC   H5Y 3068   4.968   1.546   9.713 -0.7818  0.5794  1.8922
   23SAPC   C36 3069   4.976   1.662   9.549 -0.5568  0.7774  1.4105
   23SAPC   H6X 3070   5.086   1.664   9.564  0.0674 -2.4175 -2.0452
   23SAPC   H6Y 3071   4.940   1.761   9.516 -1.5787 -0.2305 -0.5657
   23SAPC   C37 3072   4.944   1.566   9.429  0.0914  0.6283 -0.1115
   23SAPC   H7X 3073   4.838   1.534   9.434  0.2338  0.2207  0.3257
   23SAPC   H7Y 3074   4.999   1.471   9.446 -1.6831 -0.4078 -0.0589
   23SAPC   C38 3075   4.968   1.624   9.292  0.0159  0.1706 -0.1474
   23SAPC   H8X 3076   5.077   1.646   9.300  0.0142 -0.6857  2.7892
   23SAPC   H8Y 3077   4.899   1.711   9.288 -2.1341 -1.5438 -1.6172
   23SAPC   C39 3078   4.926   1.522   9.181 -0.0483 -0.7964  0.7293
   23SAPC   H9X 3079   4.816   1.514   9.175 -0.1717  0.6273  0.9189
   23SAPC   H9Y 3080   4.970   1.426   9.215 -0.9908 -1.8949 -1.0975
   23SAPC  C310 3081   4.993   1.550   9.043  0.1322  0.7443 -0.3367
   23SAPC  H10X 3082   4.964   1.473   8.969 -0.5196  1.9651 -1.3800
   23SAPC  H10Y 3083   5.102   1.536   9.057  0.0852 -0.7291 -1.3792
   23SAPC  C311 3084   4.964   1.691   9.003 -0.1694  0.3059 -0.2801
   23SAPC  H11X 3085   5.010   1.764   9.074 -1.4339  0.6459  0.1964
   23SAPC  H11Y 3086   4.854   1.701   9.007 -0.1210  0.2820  2.1115
   23SAPC  C312 3087   5.026   1.727   8.865 -0.1440  0.3260  0.3519
   23SAPC  H12X 3088   4.960   1.686   8.785 -2.4476  1.0584  1.8172
   23SAPC  H12Y 3089   5.125   1.678   8.858 -0.0124  0.4635  1.2425
   23SAPC  C313 3090   5.046   1.876   8.853  0.4229 -0.4082  0.4160
   23SAPC  H13X 3091   5.138   1.913   8.901  0.8953 -1.7271  0.5377
   23SAPC  H13Y 3092   4.957   1.920   8.903  0.5838  0.8586 -0.3805
   23SAPC  C314 3093   5.041   1.916   8.705 -0.4589 -0.0015 -0.2217
   23SAPC  H14X 3094   4.951   1.871   8.657 -0.1058 -1.2003  0.2130
   23SAPC  H14Y 3095   5.129   1.869   8.655 -0.4414  0.6662 -0.8268
   23SAPC  C315 3096   5.052   2.068   8.678  1.4147 -0.8292  0.4116
   23SAPC  H15X 3097   5.053   2.070   8.567 -1.2269  1.6701  0.3784
   23SAPC  H15Y 3098   5.147   2.104   8.723  0.9638  0.6413  0.2055
   23SAPC  C316 3099   4.932   2.148   8.731  0.0292 -0.4366 -0.3163
   23SAPC  H16X 3100   4.969   2.249   8.760  1.4012 -1.3830  1.3015
   23SAPC  H16Y 3101   4.891   2.091   8.818 -2.3552  0.4882 -0.7846
   23SAPC  C317 3102   4.809   2.169   8.637 -0.1537  0.2712  0.0150
   23SAPC  H17X 3103   4.714   2.171   8.695 -0.9596 -1.4946 -1.2052
   23SAPC  H17Y 3104   4.794   2.071   8.587 -2.9268  1.2047 -1.0397
   23SAPC  C318 3105   4.814   2.290   8.542 -0.9758  0.9661  0.5892
   23SAPC  H18X 3106   4.794   2.387   8.592  2.2164  2.0635 -0.1654
   23SAPC  H18Y 3107   4.735   2.282   8.465  2.0232  0.0084 -2.5154
   23SAPC  H18Z 3108   4.916   2.290   8.497 -0.4982 -1.0746  1.6227
   24SAPC     N 3109   6.478   2.335  11.077 -0.2796  0.1303  0.3708
   24SAPC   C12 3110   6.540   2.344  10.936 -0.1138  0.0241 -0.8807
   24SAPC  H12A 3111   6.609   2.427  10.935  0.7410 -0.6650  0.0766
   24SAPC  H12B 3112   6.459   2.377  10.872 -1.1482  0.2615  0.5266
   24SAPC   C13 3113   6.586   2.295  11.179 -0.3974 -0.1225  0.5376
   24SAPC  H13A 3114   6.548   2.294  11.280  0.8107 -1.5352  0.9990
   24SAPC  H13B 3115   6.613   2.192  11.162  1.0010  0.2844  0.2415
   24SAPC  H13C 3116   6.669   2.364  11.178 -0.2037 -0.3573  0.5394
   24SAPC   C14 3117   6.417   2.469  11.113  0.2384  1.0717 -0.6976
   24SAPC  H14A 3118   6.324   2.475  11.058 -0.1618 -0.8273 -0.2635
   24SAPC  H14B 3119   6.395   2.468  11.218  0.9796  1.0453 -0.5454
   24SAPC  H14C 3120   6.466   2.561  11.086  1.4435  0.5783 -0.2402
   24SAPC   C15 3121   6.367   2.238  11.093 -0.3183 -0.0000 -0.0620
   24SAPC  H15A 3122   6.293   2.252  11.015 -0.8370 -3.6245 -0.3263
   24SAPC  H15B 3123   6.404   2.136  11.093 -0.6639 -0.1310 -1.1160
   24SAPC  H15C 3124   6.324   2.261  11.190  0.1151  1.4493 -0.2081
   24SAPC   C11 3125   6.586   2.202  10.869 -0.0965 -0.4433 -0.7428
   24SAPC  H11A 3126   6.592   2.226  10.761 -0.2530  0.1216 -0.6325
   24SAPC  H11B 3127   6.508   2.123  10.873  1.0077 -1.6683 -2.5006
   24SAPC     P 3128   6.844   2.226  10.875 -0.5387 -0.8767  0.0096
   24SAPC   O13 3129   6.836   2.374  10.859 -0.2905 -0.6609 -0.1663
   24SAPC   O14 3130   6.964   2.181  10.948 -0.3384  0.5743  0.2400
   24SAPC   O12 3131   6.710   2.157  10.936  0.4699  0.6522  0.1521
   24SAPC   O11 3132   6.850   2.156  10.727 -0.2425  0.0132 -0.7041
   24SAPC    C1 3133   6.844   2.016  10.717  0.0727  0.5907 -0.2077
   24SAPC    HA 3134   6.918   1.960  10.779 -2.0283  0.1443  1.9354
   24SAPC    HB 3135   6.751   1.970  10.756  1.1932 -0.9491  0.6877
   24SAPC    C2 3136   6.875   1.955  10.570 -0.3450 -0.7659  0.4828
   24SAPC    HS 3137   6.918   1.853  10.579 -0.2009 -0.7084  0.4370
   24SAPC   O21 3138   6.967   2.046  10.499 -0.2167  0.1762  0.4963
   24SAPC   C21 3139   7.087   2.046  10.549 -0.2670  0.5406  0.9397
   24SAPC   O22 3140   7.133   1.963  10.627  0.0719 -0.4047 -0.2719
   24SAPC   C22 3141   7.150   2.176  10.493 -0.0918  0.1047  0.4328
   24SAPC   H2R 3142   7.079   2.235  10.432 -0.5807  1.1910  1.9973
   24SAPC   H2S 3143   7.150   2.234  10.588  1.4418  0.0428  0.4827
   24SAPC    C3 3144   6.751   1.945  10.482  0.7142 -0.3070  0.0853
   24SAPC    HX 3145   6.722   2.052  10.493  0.7153 -0.3617  0.6543
   24SAPC    HY 3146   6.678   1.883  10.538  1.7505 -0.2663  1.5111
   24SAPC   O31 3147   6.777   1.911  10.343  0.0420  0.5358 -0.0070
   24SAPC   C31 3148   6.743   1.779  10.316  0.1421 -0.7474 -0.2379
   24SAPC   O32 3149   6.704   1.700  10.398 -0.3025  0.1374 -0.3406
   24SAPC   C32 3150   6.762   1.762  10.166 -0.5851 -0.2282 -0.5940
   24SAPC   H2X 3151   6.869   1.762  10.138 -0.5302  1.7335 -0.4287
   24SAPC   H2Y 3152   6.700   1.837  10.111  2.3786  1.2507 -2.0137
   24SAPC   C23 3153   7.293   2.160  10.429  0.5809 -0.2738  0.0827
   24SAPC   H3R 3154   7.363   2.117  10.503  1.3738  0.3389 -0.2955
   24SAPC   H3S 3155   7.337   2.262  10.422  0.3614 -0.2120 -0.3980
   24SAPC   C24 3156   7.279   2.083  10.295 -0.0203 -0.2523  0.6014
   24SAPC   H4R 3157   7.201   2.138  10.239  1.7183 -1.8386 -3.5275
   24SAPC   H4S 3158   7.243   1.981  10.320  2.8559 -1.0375  1.6767
   24SAPC   C25 3159   7.417   2.088  10.236 -0.8472 -0.6589  0.4432
   24SAPC   H5R 3160   7.497   2.069  10.308 -1.9990 -2.5703  1.2577
   24SAPC   C26 3161   7.443   2.133  10.111  0.1637  0.0835 -0.8310
   24SAPC   H6R 3162   7.538   2.108  10.061 -0.1206 -0.9750 -0.8608
   24SAPC   C27 3163   7.334   2.176  10.012  0.8004 -0.5663  0.1994
   24SAPC   H7R 3164   7.240   2.124  10.041  0.8631 -0.7874  0.0118
   24SAPC   H7S 3165   7.350   2.131   9.912  0.0449 -0.4035  0.0042
   24SAPC   C28 3166   7.295   2.324  10.010  0.3000 -0.5653  0.0536
   24SAPC   H8R 3167   7.236   2.350  10.099 -1.2679 -1.2674 -0.7643
   24SAPC   C29 3168   7.330   2.415   9.911  0.3862  0.1012  0.3532
   24SAPC   H9R 3169   7.315   2.522   9.931  0.0853  0.1009  0.1363
   24SAPC  C210 3170   7.406   2.391   9.784 -0.6198 -0.0187 -0.2244
   24SAPC  H10R 3171   7.486   2.316   9.799 -0.0690  1.1007  2.9301
   24SAPC  H10S 3172   7.459   2.485   9.756  0.1123 -0.2758  0.2784
   24SAPC  C211 3173   7.318   2.358   9.664 -0.5255 -0.6004  0.1580
   24SAPC  H11R 3174   7.221   2.410   9.663  0.6152  1.6052  2.0868
   24SAPC  C212 3175   7.350   2.284   9.552  0.2215 -0.3448 -0.2576
   24SAPC  H12R 3176   7.273   2.274   9.474  0.2701  1.7291 -0.5886
   24SAPC  C213 3177   7.468   2.195   9.521  0.4806  0.4300  0.9462
   24SAPC  H13R 3178   7.432   2.092   9.499  1.3834 -0.1028  1.9088
   24SAPC  H13S 3179   7.539   2.187   9.606  1.4857 -1.5098 -0.0540
   24SAPC  C214 3180   7.549   2.257   9.412  1.0896  0.0471  0.1340
   24SAPC  H14R 3181   7.620   2.329   9.454  2.8405 -2.5527  1.7891
   24SAPC  C215 3182   7.547   2.241   9.282 -0.3506  0.2048 -0.3722
   24SAPC  H15R 3183   7.616   2.302   9.221 -1.0823  0.7962 -0.6202
   24SAPC  C216 3184   7.464   2.140   9.216  0.2158  0.3998 -0.2514
   24SAPC  H16R 3185   7.383   2.199   9.169  1.1259  0.9252 -1.1876
   24SAPC  H16S 3186   7.414   2.063   9.279  3.6260 -0.6914  1.2312
   24SAPC  C217 3187   7.536   2.062   9.100  0.4409  0.3195 -0.3766
   24SAPC  H17R 3188   7.611   1.993   9.142  0.8234  2.1421  2.0852
   24SAPC  H17S 3189   7.589   2.131   9.031  0.4274  1.3756  0.6497
   24SAPC  C218 3190   7.446   1.979   9.012 -0.5622  0.4952 -0.3430
   24SAPC  H18R 3191   7.376   2.051   8.964 -0.1097  0.5349 -0.9449
   24SAPC  H18S 3192   7.382   1.913   9.075 -0.1079  1.6292  1.3229
   24SAPC  C219 3193   7.518   1.901   8.905 -0.1782 -0.4063  0.0681
   24SAPC  H19R 3194   7.604   1.836   8.934 -1.1075 -2.5981 -1.8564
   24SAPC  H19S 3195   7.566   1.981   8.843  2.3198 -1.4592  0.5599
   24SAPC  C220 3196   7.424   1.810   8.816 -0.2449 -0.2053  0.4736
   24SAPC  H20R 3197   7.471   1.766   8.726 -1.5396  1.1341 -0.8911
   24SAPC  H20S 3198   7.347   1.874   8.767  1.6062  0.2212 -1.9886
   24SAPC  H20T 3199   7.373   1.740   8.885 -1.2254  0.9170  0.9114
   24SAPC   C33 3200   6.724   1.624  10.117  0.1157 -0.6564 -0.3769
   24SAPC   H3X 3201   6.614   1.631  10.124 -0.0203 -0.3032 -2.3580
   24SAPC   H3Y 3202   6.764   1.547  10.186 -0.5553 -0.7015 -0.0394
   24SAPC   C34 3203   6.786   1.601   9.975 -0.1101 -0.7910  0.0939
   24SAPC   H4X 3204   6.895   1.581   9.990  0.0016 -1.7707 -1.8940
   24SAPC   H4Y 3205   6.779   1.704   9.933 -2.7077 -1.2864 -0.7547
   24SAPC   C35 3206   6.724   1.492   9.890  0.5604  0.2110 -0.1093
   24SAPC   H5X 3207   6.615   1.487   9.913  0.5602 -0.4503 -0.2546
   24SAPC   H5Y 3208   6.768   1.396   9.924  2.5065  2.1909  3.2832
   24SAPC   C36 3209   6.760   1.511   9.740 -0.5440  0.5723 -0.0205
   24SAPC   H6X 3210   6.867   1.492   9.715 -1.1665  0.1348 -2.4468
   24SAPC   H6Y 3211   6.739   1.618   9.718 -2.0641  0.2704 -0.0999
   24SAPC   C37 3212   6.674   1.425   9.649  0.7624  0.2793  0.1982
   24SAPC   H7X 3213   6.648   1.480   9.556 -1.4937 -1.2867 -0.1188
   24SAPC   H7Y 3214   6.582   1.394   9.702  0.8964  1.1317  0.9426
   24SAPC   C38 3215   6.741   1.292   9.600 -0.4669 -0.3794 -0.1399
   24SAPC   H8X 3216   6.757   1.216   9.680 -2.8841 -0.8907 -0.1113
   24SAPC   H8Y 3217   6.841   1.323   9.563  0.1298 -1.6194  0.4207
   24SAPC   C39 3218   6.669   1.238   9.468  0.4496 -0.4211  0.1535
   24SAPC   H9X 3219   6.666   1.327   9.403 -1.7808 -0.7790 -0.2972
   24SAPC   H9Y 3220   6.565   1.220   9.504 -0.0525  2.9118  0.4919
   24SAPC  C310 3221   6.734   1.121   9.404  0.5731 -0.1131 -0.1795
   24SAPC  H10X 3222   6.706   1.034   9.467  2.3964 -0.4892  0.1334
   24SAPC  H10Y 3223   6.844   1.132   9.396  0.4193  0.4192 -1.8762
   24SAPC  C311 3224   6.679   1.091   9.253 -0.5472  0.8409 -0.4255
   24SAPC  H11X 3225   6.568   1.092   9.254 -0.5793  0.6801 -2.3686
   24SAPC  H11Y 3226   6.708   0.987   9.226 -0.4769  1.2208 -1.8127
   24SAPC  C312 3227   6.724   1.176   9.140 -0.2822  0.1058  0.5458
   24SAPC  H12X 3228   6.829   1.211   9.150 -0.2083  0.1399 -0.2679
   24SAPC  H12Y 3229   6.667   1.271   9.126  2.8613  1.9041 -0.6129
   24SAPC  C313 3230   6.724   1.119   8.993 -0.2564 -0.4849 -0.1148
   24SAPC  H13X 3231   6.776   1.022   9.006  1.0477  0.4212  1.6662
   24SAPC  H13Y 3232   6.770   1.190   8.921  1.7630  0.5530  2.1058
   24SAPC  C314 3233   6.585   1.098   8.924  0.7210  0.8970 -0.2591
   24SAPC  H14X 3234   6.521   1.188   8.937  2.0858  1.7694  0.6235
   24SAPC  H14Y 3235   6.540   1.016   8.984 -0.0210  1.0339 -0.6307
   24SAPC  C315 3236   6.601   1.052   8.776 -0.1138 -0.7402 -0.4865
   24SAPC  H15X 3237   6.655   0.955   8.787 -0.8362 -0.9233  1.7399
   24SAPC  H15Y 3238   6.674   1.119   8.727  1.1983 -1.7954 -0.0159
   24SAPC  C316 3239   6.459   1.040   8.717  0.0678 -0.1392  0.1528
   24SAPC  H16X 3240   6.405   1.134   8.694  1.4514  0.3810 -1.0988
   24SAPC  H16Y 3241   6.396   0.996   8.797  1.9207  1.2318  2.4236
   24SAPC  C317 3242   6.449   0.940   8.595  0.2312 -0.1304  0.4860
   24SAPC  H17X 3243   6.451   0.836   8.633  0.6161 -0.6143 -0.8167
   24SAPC  H17Y 3244   6.543   0.967   8.542  1.6591 -2.3255  1.8551
   24SAPC  C318 3245   6.312   0.956   8.531 -0.5531  0.1333  0.0603
   24SAPC  H18X 3246   6.296   1.059   8.493  0.4043  0.9720  1.8384
   24SAPC  H18Y 3247   6.231   0.929   8.603 -1.0036  0.9234 -0.1500
   24SAPC  H18Z 3248   6.310   0.904   8.433  0.2758  0.0111  0.1052
   25SAPC     N 3249   3.600   6.152   6.024  0.0498  0.0229  0.8759
   25SAPC   C12 3250   3.636   6.089   6.151  0.7145  0.1975 -0.4571
   25SAPC  H12A 3251   3.659   5.989   6.117 -4.4157 -1.1565 -0.3410
   25SAPC  H12B 3252   3.553   6.067   6.217  2.4607 -1.4025  1.2674
   25SAPC   C13 3253   3.480   6.079   5.967 -0.3637  0.4759 -0.3421
   25SAPC  H13A 3254   3.403   6.077   6.042  0.2664  1.6864  0.3441
   25SAPC  H13B 3255   3.449   6.144   5.887 -0.5455  1.9631  0.9122
   25SAPC  H13C 3256   3.511   5.982   5.932  1.9790 -0.1518  3.2003
   25SAPC   C14 3257   3.556   6.297   6.050  0.4375  0.2474  0.7596
   25SAPC  H14A 3258   3.515   6.346   5.963 -1.3691 -0.8398  0.9699
   25SAPC  H14B 3259   3.479   6.293   6.125  1.1957 -0.0196  1.5305
   25SAPC  H14C 3260   3.635   6.358   6.091 -0.7768  1.7310  0.9149
   25SAPC   C15 3261   3.718   6.161   5.928 -0.9007 -0.0289 -0.5122
   25SAPC  H15A 3262   3.748   6.060   5.905 -1.4850  0.0539 -1.6292
   25SAPC  H15B 3263   3.695   6.202   5.831 -2.4635 -1.0598 -0.5846
   25SAPC  H15C 3264   3.790   6.227   5.975 -0.5964 -1.2088  0.7147
   25SAPC   C11 3265   3.751   6.140   6.234  0.3054 -0.6017  0.0089
   25SAPC  H11A 3266   3.740   6.086   6.330 -2.5808  1.7878  1.0837
   25SAPC  H11B 3267   3.725   6.246   6.255  0.6325 -0.4345 -0.4231
   25SAPC     P 3268   3.948   5.982   6.168 -0.0337 -0.3810 -0.0836
   25SAPC   O13 3269   3.849   5.886   6.126 -0.2208 -0.0323  0.6323
   25SAPC   O14 3270   4.071   6.000   6.086 -0.2295  0.0736  0.6118
   25SAPC   O12 3271   3.879   6.124   6.170  0.2555  0.1334  0.2041
   25SAPC   O11 3272   3.994   5.942   6.316 -0.9413 -0.6284  0.2427
   25SAPC    C1 3273   4.075   6.027   6.396 -0.2362 -0.9141  0.3353
   25SAPC    HA 3274   4.183   6.011   6.378  0.1658  1.5582  0.4030
   25SAPC    HB 3275   4.055   6.133   6.369  0.3125 -1.0308 -0.5525
   25SAPC    C2 3276   4.064   6.004   6.549  0.0619 -0.2737  0.2027
   25SAPC    HS 3277   4.154   6.048   6.598  0.0404  1.5829 -1.3489
   25SAPC   O21 3278   4.031   5.862   6.578 -0.3140 -0.1494 -0.1536
   25SAPC   C21 3279   4.143   5.794   6.581 -0.5144  0.2087  0.4307
   25SAPC   O22 3280   4.258   5.835   6.579 -0.9209 -0.6259  0.0972
   25SAPC   C22 3281   4.125   5.638   6.582 -0.7333  0.2171 -0.7137
   25SAPC   H2R 3282   4.017   5.616   6.597 -0.1031 -2.0850  0.6994
   25SAPC   H2S 3283   4.147   5.597   6.482 -1.8955 -0.5013 -0.6761
   25SAPC    C3 3284   3.949   6.086   6.610 -0.6623  0.0287 -0.3530
   25SAPC    HX 3285   3.852   6.048   6.570 -0.7432 -0.8696  0.7032
   25SAPC    HY 3286   3.960   6.193   6.580 -2.3856 -0.3109 -2.3758
   25SAPC   O31 3287   3.942   6.068   6.749 -0.8239  0.1069 -0.4546
   25SAPC   C31 3288   3.848   6.141   6.818  0.0765  0.5291 -0.0641
   25SAPC   O32 3289   3.778   6.219   6.762  0.6290  0.0468  0.4129
   25SAPC   C32 3290   3.862   6.130   6.968 -0.5266 -0.4668  0.0508
   25SAPC   H2X 3291   3.967   6.157   6.993 -0.2892  0.4294 -1.8195
   25SAPC   H2Y 3292   3.854   6.022   6.991 -0.2139  0.1677  3.3090
   25SAPC   C23 3293   4.197   5.552   6.687 -0.6643 -0.5757  0.0867
   25SAPC   H3R 3294   4.237   5.618   6.767  0.3349  0.8362 -1.5487
   25SAPC   H3S 3295   4.285   5.499   6.644 -1.4323 -1.9432  0.1592
   25SAPC   C24 3296   4.109   5.451   6.762  0.4689  0.1067 -0.0350
   25SAPC   H4R 3297   4.060   5.379   6.693  1.6976 -0.4882 -0.3122
   25SAPC   H4S 3298   4.033   5.515   6.811 -0.3159  0.2479 -1.4062
   25SAPC   C25 3299   4.180   5.369   6.861  0.0797  0.7581 -0.3048
   25SAPC   H5R 3300   4.272   5.323   6.823  0.1036  1.5260 -1.2087
   25SAPC   C26 3301   4.146   5.351   6.987  0.3057  0.1145  0.0972
   25SAPC   H6R 3302   4.189   5.267   7.043 -0.7074  1.4311  2.9519
   25SAPC   C27 3303   4.033   5.414   7.069  0.7157  0.2073  0.5551
   25SAPC   H7R 3304   3.970   5.337   7.120 -2.0726  2.3967  0.5291
   25SAPC   H7S 3305   3.963   5.451   6.991  0.2950  0.3572  0.9954
   25SAPC   C28 3306   4.087   5.527   7.158  1.2288 -0.6982 -0.1017
   25SAPC   H8R 3307   4.160   5.589   7.103 -0.6411  3.5867  1.9909
   25SAPC   C29 3308   4.059   5.567   7.285  0.2942  0.1922 -0.5801
   25SAPC   H9R 3309   4.103   5.658   7.328 -0.8581  0.8773 -0.8141
   25SAPC  C210 3310   3.968   5.493   7.373 -0.5343  0.2711  0.5962
   25SAPC  H10R 3311   3.908   5.428   7.306  1.5427  0.7130 -1.7694
   25SAPC  H10S 3312   3.895   5.563   7.418 -1.0164 -0.0258  0.2758
   25SAPC  C211 3313   4.039   5.415   7.481  0.7442  0.0702 -0.4891
   25SAPC  H11R 3314   4.071   5.317   7.442  1.0841  1.1795 -3.0950
   25SAPC  C212 3315   4.067   5.460   7.600  0.4161 -0.4770 -0.3555
   25SAPC  H12R 3316   4.122   5.395   7.670  0.2086 -1.6840 -1.3062
   25SAPC  C213 3317   4.031   5.594   7.666  0.6418 -0.4404 -0.0493
   25SAPC  H13R 3318   4.013   5.663   7.581  2.6436 -0.3418 -0.4164
   25SAPC  H13S 3319   4.121   5.645   7.706 -1.1543  2.7638  0.1251
   25SAPC  C214 3320   3.918   5.582   7.762 -0.1810 -0.0233  0.0537
   25SAPC  H14R 3321   3.817   5.562   7.724 -0.6039  0.0178  1.1287
   25SAPC  C215 3322   3.928   5.620   7.894  0.1619 -0.9170  0.3092
   25SAPC  H15R 3323   3.835   5.616   7.953 -0.2844  0.3973 -0.2809
   25SAPC  C216 3324   4.047   5.670   7.960  0.0432 -1.4982 -0.3370
   25SAPC  H16R 3325   4.084   5.761   7.908 -1.0072 -1.6753 -1.4099
   25SAPC  H16S 3326   4.130   5.596   7.953  0.8032 -0.8042  1.0344
   25SAPC  C217 3327   4.020   5.693   8.116 -0.0423  0.5577 -0.3327
   25SAPC  H17R 3328   4.108   5.679   8.183  1.1555  1.7708 -1.6302
   25SAPC  H17S 3329   3.941   5.620   8.146  1.0980 -0.3518  0.5227
   25SAPC  C218 3330   3.958   5.834   8.138 -0.1383  0.0111 -0.0056
   25SAPC  H18R 3331   3.879   5.846   8.061  1.1436 -0.1857 -1.3694
   25SAPC  H18S 3332   4.038   5.911   8.129  0.1835 -0.2302  0.7261
   25SAPC  C219 3333   3.898   5.832   8.279  0.3016 -0.6503  0.2923
   25SAPC  H19R 3334   3.963   5.785   8.356  3.5747 -0.3331 -2.1372
   25SAPC  H19S 3335   3.804   5.773   8.275 -2.0794  3.1120 -1.2612
   25SAPC  C220 3336   3.866   5.964   8.348  0.1258  0.7642  0.6166
   25SAPC  H20R 3337   3.956   6.026   8.335  0.4473  0.0538 -0.6266
   25SAPC  H20S 3338   3.852   5.951   8.458  2.0644  0.2612  0.8103
   25SAPC  H20T 3339   3.774   6.011   8.308 -0.2426 -0.9016 -0.5433
   25SAPC   C33 3340   3.748   6.206   7.039 -0.6384 -0.3405  0.3406
   25SAPC   H3X 3341   3.656   6.209   6.978 -0.2922  0.5499 -0.1554
   25SAPC   H3Y 3342   3.784   6.312   7.035  1.9178 -1.1355  0.9626
   25SAPC   C34 3343   3.739   6.165   7.181  0.2392  0.2323  0.3861
   25SAPC   H4X 3344   3.835   6.115   7.206 -0.5376 -1.1225  0.7206
   25SAPC   H4Y 3345   3.649   6.099   7.179  0.6624 -0.3285 -0.4592
   25SAPC   C35 3346   3.727   6.288   7.281 -0.3640  0.5953  0.3349
   25SAPC   H5X 3347   3.677   6.371   7.226  1.8158  0.1674 -2.3898
   25SAPC   H5Y 3348   3.827   6.336   7.295  1.3288 -2.2303 -1.6161
   25SAPC   C36 3349   3.667   6.255   7.418 -0.3198 -0.1901  0.9598
   25SAPC   H6X 3350   3.670   6.341   7.488  3.4618 -1.0022  1.8717
   25SAPC   H6Y 3351   3.731   6.181   7.470  0.2619  0.3147  0.9576
   25SAPC   C37 3352   3.523   6.193   7.420  0.3062  0.1251 -0.6395
   25SAPC   H7X 3353   3.531   6.108   7.491 -2.3465  1.3758  1.2647
   25SAPC   H7Y 3354   3.495   6.161   7.318  0.0257 -1.0429 -0.2113
   25SAPC   C38 3355   3.427   6.297   7.479  0.4908  0.4344 -0.4073
   25SAPC   H8X 3356   3.415   6.367   7.393  2.5050 -1.6749 -2.4598
   25SAPC   H8Y 3357   3.464   6.357   7.564 -0.1111  1.9643 -1.1921
   25SAPC   C39 3358   3.285   6.253   7.507 -0.1321  0.8787 -0.2554
   25SAPC   H9X 3359   3.250   6.212   7.409 -1.6037 -1.9705  1.3863
   25SAPC   H9Y 3360   3.220   6.326   7.560  1.2508  0.9888  1.3078
   25SAPC  C310 3361   3.270   6.124   7.593 -0.2840 -0.2033 -0.4280
   25SAPC  H10X 3362   3.354   6.051   7.590 -0.5103 -0.6910  3.1363
   25SAPC  H10Y 3363   3.175   6.071   7.573 -0.7960  0.1971  0.8623
   25SAPC  C311 3364   3.255   6.162   7.741 -0.0018  0.4121  0.0610
   25SAPC  H11X 3365   3.166   6.227   7.758  0.0367 -0.2498  3.0914
   25SAPC  H11Y 3366   3.346   6.212   7.778 -0.8659  1.2720  1.0515
   25SAPC  C312 3367   3.240   6.032   7.824 -0.0924  0.4150 -0.5003
   25SAPC  H12X 3368   3.317   5.959   7.793  1.0322  0.8137  1.2418
   25SAPC  H12Y 3369   3.138   5.993   7.807  0.0883 -0.2301 -0.1181
   25SAPC  C313 3370   3.256   6.052   7.976 -0.0456  0.1706  0.2500
   25SAPC  H13X 3371   3.156   6.083   8.014  0.2817  0.7036  0.6900
   25SAPC  H13Y 3372   3.328   6.135   7.995  0.1314 -0.2612  1.5766
   25SAPC  C314 3373   3.301   5.922   8.048 -0.0656 -0.4122  0.1376
   25SAPC  H14X 3374   3.406   5.895   8.024 -0.0088 -1.6272  1.6605
   25SAPC  H14Y 3375   3.244   5.838   8.004  1.7404 -0.2643 -2.6022
   25SAPC  C315 3376   3.269   5.923   8.201 -0.2351 -0.1464  0.5279
   25SAPC  H15X 3377   3.249   5.823   8.246  1.6090 -0.7723  0.0138
   25SAPC  H15Y 3378   3.181   5.988   8.219 -1.3788 -1.1169 -1.3459
   25SAPC  C316 3379   3.395   5.972   8.277  0.0745  0.4369 -0.5424
   25SAPC  H16X 3380   3.428   6.070   8.237  0.5519  0.0001 -1.2474
   25SAPC  H16Y 3381   3.477   5.900   8.255  0.6047  0.7710  0.3102
   25SAPC  C317 3382   3.380   5.984   8.433  0.1552  0.0340  0.0858
   25SAPC  H17X 3383   3.344   5.889   8.480  0.1201  1.2433  2.5774
   25SAPC  H17Y 3384   3.307   6.060   8.466 -1.2723 -0.7982 -1.1079
   25SAPC  C318 3385   3.511   6.020   8.499  0.6581  0.5906 -0.1293
   25SAPC  H18X 3386   3.564   6.095   8.437 -0.8431  0.6222 -1.4143
   25SAPC  H18Y 3387   3.578   5.931   8.503  0.9163  0.7153 -1.3625
   25SAPC  H18Z 3388   3.496   6.067   8.598 -2.7262 -0.4888 -0.0746
   26SAPC     N 3389   3.510   0.619   6.022 -0.2618 -0.7294 -0.0130
   26SAPC   C12 3390   3.477   0.547   6.154 -0.3615  0.0426 -0.1190
   26SAPC  H12A 3391   3.538   0.587   6.234  1.8743 -2.2590 -0.6038
   26SAPC  H12B 3392   3.519   0.448   6.154  0.3848  0.3222  2.0486
   26SAPC   C13 3393   3.437   0.564   5.911 -0.7173  0.4875  0.4621
   26SAPC  H13A 3394   3.456   0.459   5.894 -0.6496  0.4386  0.8448
   26SAPC  H13B 3395   3.332   0.577   5.929 -0.8117 -0.6410  0.7373
   26SAPC  H13C 3396   3.467   0.616   5.821 -1.2809 -2.2946 -1.3926
   26SAPC   C14 3397   3.471   0.765   6.038  0.3662 -0.6613  0.0087
   26SAPC  H14A 3398   3.365   0.772   6.057  0.3686 -1.0383  0.1676
   26SAPC  H14B 3399   3.519   0.825   6.113  0.1460 -0.1871 -0.2234
   26SAPC  H14C 3400   3.481   0.821   5.946 -2.7366 -0.5745 -0.3409
   26SAPC   C15 3401   3.655   0.605   6.002  0.1642 -0.0554 -0.8526
   26SAPC  H15A 3402   3.693   0.508   6.030 -1.6683 -0.0524  1.8511
   26SAPC  H15B 3403   3.678   0.617   5.897  1.6489 -1.3752 -0.6983
   26SAPC  H15C 3404   3.702   0.681   6.062 -1.4809 -3.9633  5.9261
   26SAPC   C11 3405   3.334   0.539   6.200  0.3243 -0.3954 -0.1627
   26SAPC  H11A 3406   3.327   0.512   6.307  0.7008  1.9889  0.4965
   26SAPC  H11B 3407   3.281   0.459   6.144  0.4782 -0.1545 -0.6642
   26SAPC     P 3408   3.111   0.693   6.203 -0.4481 -0.2776  0.0456
   26SAPC   O13 3409   3.063   0.703   6.060  0.0529  0.3406 -0.4987
   26SAPC   O14 3410   3.054   0.598   6.297  0.4173 -0.0049  0.2689
   26SAPC   O12 3411   3.268   0.665   6.195 -0.0991  0.5582  0.4702
   26SAPC   O11 3412   3.110   0.841   6.254 -0.3378 -0.1469 -0.4822
   26SAPC    C1 3413   3.191   0.950   6.215 -0.6697 -1.2803 -0.4494
   26SAPC    HA 3414   3.297   0.917   6.218  0.2467  1.6629  1.6764
   26SAPC    HB 3415   3.177   0.992   6.113  0.2932  0.3999  0.0941
   26SAPC    C2 3416   3.199   1.062   6.322 -0.2200 -0.4123  0.1775
   26SAPC    HS 3417   3.301   1.105   6.321 -0.2612 -0.2942  0.8627
   26SAPC   O21 3418   3.173   1.009   6.452 -0.0611  0.1406  0.6972
   26SAPC   C21 3419   3.257   0.919   6.484 -0.1852 -0.1993  0.3300
   26SAPC   O22 3420   3.375   0.904   6.440  0.0855 -0.8358  0.6230
   26SAPC   C22 3421   3.195   0.836   6.598  0.1939 -0.2528 -0.3221
   26SAPC   H2R 3422   3.087   0.825   6.573 -0.0856  2.4473 -0.4840
   26SAPC   H2S 3423   3.235   0.732   6.599  2.1733  0.5093  0.9383
   26SAPC    C3 3424   3.102   1.179   6.297 -0.1973  0.2488  0.0539
   26SAPC    HX 3425   2.997   1.151   6.316  0.4848 -1.6691  1.2072
   26SAPC    HY 3426   3.105   1.217   6.193  0.2755  0.7191  0.2341
   26SAPC   O31 3427   3.136   1.285   6.393 -0.0907 -0.3775  0.0350
   26SAPC   C31 3428   3.216   1.383   6.348  0.5516 -0.5818 -0.5407
   26SAPC   O32 3429   3.266   1.387   6.237  0.6510  0.1978  0.0896
   26SAPC   C32 3430   3.226   1.483   6.465  0.1819 -0.3657  0.0269
   26SAPC   H2X 3431   3.149   1.458   6.542  0.8425  2.3310  1.6542
   26SAPC   H2Y 3432   3.202   1.583   6.422  1.1582 -0.0054  0.2943
   26SAPC   C23 3433   3.203   0.904   6.732 -0.0412  0.6038 -0.2587
   26SAPC   H3R 3434   3.179   1.012   6.731  1.6838  1.0125  0.6701
   26SAPC   H3S 3435   3.305   0.910   6.775  0.0655  0.9388 -0.5584
   26SAPC   C24 3436   3.104   0.836   6.826 -0.2731 -0.8764 -0.2441
   26SAPC   H4R 3437   3.005   0.828   6.776 -0.5261 -1.6587  0.3693
   26SAPC   H4S 3438   3.073   0.896   6.914 -1.8703  0.2170 -1.5092
   26SAPC   C25 3439   3.152   0.697   6.863  0.2180 -0.2896 -0.5124
   26SAPC   H5R 3440   3.141   0.625   6.781  0.6102 -1.6489  0.5912
   26SAPC   C26 3441   3.226   0.667   6.979 -0.4354  1.0231  0.2272
   26SAPC   H6R 3442   3.259   0.562   6.987 -1.6483  0.4495 -1.9550
   26SAPC   C27 3443   3.260   0.753   7.099  0.1222 -0.2047  0.9611
   26SAPC   H7R 3444   3.182   0.733   7.176 -1.1561 -0.8689 -0.4755
   26SAPC   H7S 3445   3.234   0.860   7.082  0.7821  0.0570  1.5786
   26SAPC   C28 3446   3.401   0.728   7.145  0.5026  0.9245 -0.3645
   26SAPC   H8R 3447   3.471   0.721   7.060 -0.2188  1.3349 -1.0002
   26SAPC   C29 3448   3.444   0.728   7.271 -0.2071 -0.2849  0.2558
   26SAPC   H9R 3449   3.553   0.716   7.280 -0.2909  1.0429  3.5110
   26SAPC  C210 3450   3.370   0.749   7.399 -0.0044 -0.0989 -0.1453
   26SAPC  H10R 3451   3.260   0.745   7.386 -0.2007  1.6983  0.7848
   26SAPC  H10S 3452   3.396   0.846   7.448  1.4127 -0.1193 -0.8389
   26SAPC  C211 3453   3.395   0.628   7.487  0.6147  0.4356 -0.3222
   26SAPC  H11R 3454   3.378   0.527   7.448  0.9674 -0.7622  2.4688
   26SAPC  C212 3455   3.454   0.636   7.614 -0.2054 -0.7196  0.2995
   26SAPC  H12R 3456   3.459   0.544   7.675 -1.9573 -1.5546 -0.7814
   26SAPC  C213 3457   3.497   0.764   7.684  0.3167 -0.1083 -0.1680
   26SAPC  H13R 3458   3.435   0.804   7.767  2.5382  0.8154  1.0855
   26SAPC  H13S 3459   3.504   0.853   7.618 -1.4026  0.4121  0.3222
   26SAPC  C214 3460   3.633   0.736   7.731 -0.0526  0.6747 -0.0494
   26SAPC  H14R 3461   3.708   0.747   7.651  0.1798  0.8787  0.1943
   26SAPC  C215 3462   3.689   0.732   7.853  0.5010 -0.1802 -0.6356
   26SAPC  H15R 3463   3.793   0.701   7.867 -0.1503 -1.6229  1.2741
   26SAPC  C216 3464   3.599   0.739   7.978 -0.4016  0.2642 -0.8285
   26SAPC  H16R 3465   3.594   0.634   8.015 -2.2387  0.6757  0.1840
   26SAPC  H16S 3466   3.491   0.765   7.967  0.4415  4.3867 -0.2107
   26SAPC  C217 3467   3.669   0.821   8.091  0.2682  0.4653 -0.2828
   26SAPC  H17R 3468   3.680   0.925   8.053  1.9074 -0.4623 -2.4545
   26SAPC  H17S 3469   3.768   0.774   8.111 -0.4870 -1.9941 -2.1383
   26SAPC  C218 3470   3.586   0.840   8.221 -0.5736  0.6512  0.1705
   26SAPC  H18R 3471   3.557   0.735   8.244 -0.4193 -0.2510 -3.3856
   26SAPC  H18S 3472   3.498   0.902   8.194  0.4329  1.8194 -0.4479
   26SAPC  C219 3473   3.669   0.881   8.341  0.0044 -0.8339  0.3561
   26SAPC  H19R 3474   3.691   0.987   8.317  0.2625 -0.6028  1.5486
   26SAPC  H19S 3475   3.766   0.828   8.340  0.7595  0.5389 -0.1669
   26SAPC  C220 3476   3.601   0.859   8.478 -0.0621  0.1118 -0.0734
   26SAPC  H20R 3477   3.513   0.927   8.474  0.3848  0.8607  2.0288
   26SAPC  H20S 3478   3.659   0.894   8.566 -2.1193 -0.4670  1.5516
   26SAPC  H20T 3479   3.574   0.751   8.481  1.6019 -0.4265 -2.5527
   26SAPC   C33 3480   3.376   1.499   6.520  0.0237 -0.1148 -0.5181
   26SAPC   H3X 3481   3.378   1.563   6.610 -3.0921  1.4825 -1.5269
   26SAPC   H3Y 3482   3.441   1.552   6.446  2.4107 -2.6967 -0.3718
   26SAPC   C34 3483   3.454   1.368   6.556 -0.0598 -0.6073  0.4481
   26SAPC   H4X 3484   3.548   1.407   6.601 -1.3936  1.9556  1.1605
   26SAPC   H4Y 3485   3.487   1.304   6.471 -1.3909  2.1089 -2.2107
   26SAPC   C35 3486   3.381   1.274   6.653  0.0595 -0.0489  0.1040
   26SAPC   H5X 3487   3.439   1.179   6.659  0.1837  0.0657  0.7913
   26SAPC   H5Y 3488   3.284   1.243   6.609  0.8177  0.4487 -1.9957
   26SAPC   C36 3489   3.357   1.329   6.790  0.2452  0.5711 -0.9307
   26SAPC   H6X 3490   3.269   1.395   6.780 -0.6563 -0.3054  0.8971
   26SAPC   H6Y 3491   3.448   1.375   6.835 -1.1798  0.7546  1.8750
   26SAPC   C37 3492   3.306   1.219   6.891 -0.1973 -0.1144  0.1256
   26SAPC   H7X 3493   3.356   1.120   6.877 -0.1154  0.2040 -1.9142
   26SAPC   H7Y 3494   3.198   1.209   6.866 -0.0023  0.5089 -0.9883
   26SAPC   C38 3495   3.310   1.273   7.034  0.2022 -0.5364  0.0057
   26SAPC   H8X 3496   3.264   1.372   7.016 -1.8116 -1.2456  1.1245
   26SAPC   H8Y 3497   3.416   1.266   7.069 -0.6406  1.0892  3.0913
   26SAPC   C39 3498   3.226   1.196   7.138 -0.0055 -0.1697  0.6943
   26SAPC   H9X 3499   3.262   1.092   7.150  0.8400  0.0509  0.1236
   26SAPC   H9Y 3500   3.120   1.182   7.108 -0.5979  3.1805  1.0427
   26SAPC  C310 3501   3.229   1.264   7.282 -0.2514 -0.3094 -0.2356
   26SAPC  H10X 3502   3.147   1.336   7.300  0.6545  0.3615  1.3265
   26SAPC  H10Y 3503   3.318   1.330   7.292  0.2291 -1.1054  0.9362
   26SAPC  C311 3504   3.237   1.157   7.395 -0.8367 -0.7142  0.3273
   26SAPC  H11X 3505   3.331   1.098   7.387 -0.1664  0.4813 -0.7023
   26SAPC  H11Y 3506   3.159   1.080   7.374 -0.0585 -0.6186 -3.1655
   26SAPC  C312 3507   3.231   1.222   7.546  0.2208 -0.1144 -0.0698
   26SAPC  H12X 3508   3.134   1.273   7.558 -0.9256 -2.2827  0.2170
   26SAPC  H12Y 3509   3.317   1.287   7.571 -0.9094  1.5054 -0.3821
   26SAPC  C313 3510   3.242   1.105   7.645 -0.6883 -0.1850  0.7277
   26SAPC  H13X 3511   3.343   1.060   7.638 -1.4124 -1.6000 -1.2876
   26SAPC  H13Y 3512   3.171   1.023   7.619 -0.7125 -0.1851  0.7954
   26SAPC  C314 3513   3.212   1.153   7.792 -0.1475 -0.6334 -0.1481
   26SAPC  H14X 3514   3.196   1.069   7.863  0.9237 -0.1808  0.6389
   26SAPC  H14Y 3515   3.112   1.201   7.802 -0.1639 -1.0887  2.3251
   26SAPC  C315 3516   3.331   1.238   7.842  0.3149 -0.9936  0.5396
   26SAPC  H15X 3517   3.337   1.325   7.773  0.9867  0.0377  1.8839
   26SAPC  H15Y 3518   3.424   1.178   7.835 -0.7066 -2.4891 -0.3284
   26SAPC  C316 3519   3.316   1.297   7.987 -0.1650  0.3089  0.6755
   26SAPC  H16X 3520   3.214   1.339   8.000 -0.0348  0.3559  1.6230
   26SAPC  H16Y 3521   3.393   1.377   7.987  0.9322 -0.7367 -0.7462
   26SAPC  C317 3522   3.350   1.192   8.097  0.4709  0.1486  0.2459
   26SAPC  H17X 3523   3.455   1.158   8.092  0.7089  0.9161 -0.0392
   26SAPC  H17Y 3524   3.292   1.097   8.095 -1.0377  1.0674 -0.4783
   26SAPC  C318 3525   3.314   1.259   8.227  1.0457  0.0070 -0.2908
   26SAPC  H18X 3526   3.208   1.288   8.210  1.1185  0.0883 -0.5932
   26SAPC  H18Y 3527   3.375   1.351   8.239  1.4294 -0.3394  0.4973
   26SAPC  H18Z 3528   3.320   1.188   8.313  1.9184 -0.7578 -0.9656
   27SAPC     N 3529   1.456   1.054   6.484  0.4750 -0.6191  0.5461
   27SAPC   C12 3530   1.374   1.186   6.455 -0.7479 -0.2359  0.3867
   27SAPC  H12A 3531   1.268   1.172   6.440 -0.6389 -0.2656 -0.4044
   27SAPC  H12B 3532   1.404   1.219   6.356  1.4843 -0.2466  1.0209
   27SAPC   C13 3533   1.416   1.011   6.622 -0.0409  0.4486  0.3957
   27SAPC  H13A 3534   1.400   1.090   6.694  0.0297  0.5747  0.2728
   27SAPC  H13B 3535   1.322   0.958   6.617 -0.7218  1.5507  1.2782
   27SAPC  H13C 3536   1.501   0.957   6.661  0.1913 -0.0378 -0.7400
   27SAPC   C14 3537   1.413   0.954   6.377 -0.9370 -0.1499  1.1912
   27SAPC  H14A 3538   1.306   0.943   6.386 -0.9641 -0.0800  0.9544
   27SAPC  H14B 3539   1.432   0.991   6.278 -1.2405 -2.0655  0.3856
   27SAPC  H14C 3540   1.456   0.855   6.390 -2.0443 -0.6024  1.4907
   27SAPC   C15 3541   1.605   1.071   6.492  0.1318  0.0865  0.3232
   27SAPC  H15A 3542   1.655   0.975   6.502  0.3064  0.1569  0.1331
   27SAPC  H15B 3543   1.651   1.132   6.416 -0.8771 -0.0790 -0.4191
   27SAPC  H15C 3544   1.632   1.111   6.589  0.3152 -0.3301  0.4476
   27SAPC   C11 3545   1.387   1.298   6.559  0.3084  0.3779  0.1039
   27SAPC  H11A 3546   1.330   1.382   6.515 -1.1659 -0.5490  0.2147
   27SAPC  H11B 3547   1.493   1.330   6.556  0.3135  0.4038  0.5426
   27SAPC     P 3548   1.195   1.276   6.728  0.0819 -0.2135  0.4562
   27SAPC   O13 3549   1.137   1.410   6.700  0.1274  0.1513  0.0897
   27SAPC   O14 3550   1.137   1.161   6.648 -0.0154 -0.5460 -0.6636
   27SAPC   O12 3551   1.348   1.279   6.697 -0.7993 -0.7854  0.4968
   27SAPC   O11 3552   1.187   1.239   6.880 -0.0586 -0.0833 -0.3841
   27SAPC    C1 3553   1.152   1.109   6.935  0.9464 -0.0400  0.1570
   27SAPC    HA 3554   1.188   1.028   6.868 -1.1916  0.6166 -1.8506
   27SAPC    HB 3555   1.195   1.106   7.037 -0.3003 -0.6497  0.6779
   27SAPC    C2 3556   1.002   1.102   6.955  0.2504  0.7126 -0.4997
   27SAPC    HS 3557   0.967   1.098   6.849 -0.9858 -0.4817 -0.0586
   27SAPC   O21 3558   0.955   1.228   7.021  0.1396 -0.1428  0.1538
   27SAPC   C21 3559   0.822   1.240   7.020  0.2159 -0.2330  0.8719
   27SAPC   O22 3560   0.743   1.178   6.949 -0.4776  0.5483  0.1853
   27SAPC   C22 3561   0.787   1.340   7.125  0.0248 -0.4727  0.0769
   27SAPC   H2R 3562   0.864   1.338   7.206 -0.7298 -1.1727  0.7862
   27SAPC   H2S 3563   0.785   1.436   7.069 -1.6179  0.1272  1.1299
   27SAPC    C3 3564   0.959   0.971   7.030  0.0708  0.1986  0.2168
   27SAPC    HX 3565   0.986   0.882   6.969  0.6912  0.9303 -0.5972
   27SAPC    HY 3566   0.848   0.980   7.023 -0.0441  0.3457  1.9759
   27SAPC   O31 3567   1.020   0.959   7.161 -0.5222 -0.3337 -0.0489
   27SAPC   C31 3568   0.938   0.981   7.263 -0.4144 -0.5348  0.5362
   27SAPC   O32 3569   0.844   1.055   7.266  0.2354 -0.5338 -0.4400
   27SAPC   C32 3570   0.976   0.890   7.377 -0.6202 -0.5134 -0.2030
   27SAPC   H2X 3571   1.085   0.874   7.373 -0.7714 -1.4407 -0.9157
   27SAPC   H2Y 3572   0.926   0.796   7.344 -2.0578  0.5337 -1.0699
   27SAPC   C23 3573   0.648   1.312   7.192  0.3231 -0.5221 -0.5544
   27SAPC   H3R 3574   0.654   1.226   7.262 -2.6148  1.0928  1.7835
   27SAPC   H3S 3575   0.587   1.280   7.106  0.6677  2.7454 -2.1042
   27SAPC   C24 3576   0.588   1.440   7.257  0.8164 -0.3689  0.4302
   27SAPC   H4R 3577   0.590   1.517   7.177 -0.3289  0.3580  1.0661
   27SAPC   H4S 3578   0.669   1.470   7.328  0.6708 -0.5758  0.6851
   27SAPC   C25 3579   0.456   1.426   7.336 -0.3089  1.0019 -0.5661
   27SAPC   H5R 3580   0.361   1.450   7.286 -1.3167 -0.4667  0.6141
   27SAPC   C26 3581   0.451   1.390   7.468  0.0570  0.2133  0.8481
   27SAPC   H6R 3582   0.356   1.368   7.519 -0.0754 -2.9922 -0.6483
   27SAPC   C27 3583   0.574   1.347   7.558  0.4559 -0.6155  0.3283
   27SAPC   H7R 3584   0.669   1.372   7.505  0.8358  0.3518  1.4284
   27SAPC   H7S 3585   0.575   1.237   7.573 -0.2826 -0.6198  0.3309
   27SAPC   C28 3586   0.565   1.430   7.680  0.1809  0.1954  0.5522
   27SAPC   H8R 3587   0.559   1.539   7.666 -0.2307  0.2521  1.1546
   27SAPC   C29 3588   0.562   1.387   7.802 -0.6934 -0.3442 -0.7735
   27SAPC   H9R 3589   0.567   1.461   7.883  1.5626 -0.9233 -0.3603
   27SAPC  C210 3590   0.555   1.243   7.847  0.2986  0.1331 -0.7338
   27SAPC  H10R 3591   0.522   1.183   7.760 -0.0054  1.3789 -1.4733
   27SAPC  H10S 3592   0.470   1.243   7.919 -0.0143 -1.2109 -1.0881
   27SAPC  C211 3593   0.695   1.206   7.898  0.1058  0.3778  0.8604
   27SAPC  H11R 3594   0.783   1.228   7.836  0.4052 -0.1241  1.0961
   27SAPC  C212 3595   0.729   1.160   8.017 -0.3705  0.1960 -0.5716
   27SAPC  H12R 3596   0.832   1.128   8.038 -1.5000 -2.9100  0.5266
   27SAPC  C213 3597   0.632   1.138   8.139 -0.2400 -0.3985  0.3221
   27SAPC  H13R 3598   0.567   1.048   8.130  1.3607 -1.4309 -1.2765
   27SAPC  H13S 3599   0.556   1.220   8.138 -0.9375 -1.0294 -2.8124
   27SAPC  C214 3600   0.703   1.137   8.273  0.3130  0.3158 -0.6105
   27SAPC  H14R 3601   0.718   1.034   8.306 -1.2601  0.6152  1.1316
   27SAPC  C215 3602   0.731   1.245   8.352 -0.1202  0.1896  0.6515
   27SAPC  H15R 3603   0.766   1.225   8.455 -1.8600 -1.9831  0.8454
   27SAPC  C216 3604   0.701   1.390   8.323 -0.2387 -0.5644 -0.3214
   27SAPC  H16R 3605   0.592   1.395   8.303 -0.1419  2.5223 -0.3509
   27SAPC  H16S 3606   0.758   1.418   8.232 -0.7956 -1.2848 -0.9030
   27SAPC  C217 3607   0.732   1.494   8.434  0.3085  0.5021 -0.5741
   27SAPC  H17R 3608   0.704   1.458   8.535  0.5668  0.4901 -0.5077
   27SAPC  H17S 3609   0.680   1.591   8.417  0.4040  0.3078 -1.9756
   27SAPC  C218 3610   0.877   1.528   8.453 -0.4396  0.4903  0.0339
   27SAPC  H18R 3611   0.919   1.573   8.361  3.1907 -1.9080  0.4059
   27SAPC  H18S 3612   0.923   1.427   8.459  0.2657  0.9325  3.2862
   27SAPC  C219 3613   0.900   1.619   8.570 -0.0931  0.4622 -0.0416
   27SAPC  H19R 3614   0.849   1.567   8.653  0.8049 -1.8020 -0.8669
   27SAPC  H19S 3615   0.842   1.712   8.555  1.0306  0.7671 -2.8516
   27SAPC  C220 3616   1.045   1.647   8.605 -0.5256  0.4045  0.2556
   27SAPC  H20R 3617   1.057   1.709   8.697  0.9608 -1.8143  1.6071
   27SAPC  H20S 3618   1.107   1.700   8.530  0.7452 -2.1404 -0.5103
   27SAPC  H20T 3619   1.091   1.548   8.625 -1.4676 -0.0046  0.4451
   27SAPC   C33 3620   0.912   0.915   7.515 -0.1789  1.2217 -0.8401
   27SAPC   H3X 3621   0.802   0.904   7.507 -0.3864  1.7091  1.0245
   27SAPC   H3Y 3622   0.926   1.022   7.543  1.0443  0.9341 -0.3093
   27SAPC   C34 3623   0.961   0.833   7.635  0.4531 -0.1948 -0.2808
   27SAPC   H4X 3624   1.071   0.850   7.640  0.1992  1.3656  0.4199
   27SAPC   H4Y 3625   0.966   0.724   7.619  1.4634 -0.0418 -1.0642
   27SAPC   C35 3626   0.881   0.851   7.762  0.1759  0.1241  0.1056
   27SAPC   H5X 3627   0.804   0.772   7.774 -0.0075  0.1382 -0.8661
   27SAPC   H5Y 3628   0.815   0.941   7.761 -0.5532 -0.4052  0.1173
   27SAPC   C36 3629   0.958   0.860   7.891 -0.1590 -0.3794  0.5952
   27SAPC   H6X 3630   0.917   0.933   7.963 -0.1186  0.6092 -0.3624
   27SAPC   H6Y 3631   1.051   0.921   7.880  0.4641 -1.4309 -0.1839
   27SAPC   C37 3632   0.981   0.728   7.960 -0.1500 -0.3639  0.6062
   27SAPC   H7X 3633   1.034   0.655   7.895 -1.3055 -2.5393  2.0433
   27SAPC   H7Y 3634   0.897   0.681   8.015 -0.9886  0.0138 -0.3358
   27SAPC   C38 3635   1.086   0.750   8.071 -0.1849  0.0183 -0.0892
   27SAPC   H8X 3636   1.180   0.791   8.029  1.1238 -0.5557  2.2471
   27SAPC   H8Y 3637   1.108   0.654   8.122  1.5032  1.2606  1.5914
   27SAPC   C39 3638   1.041   0.858   8.175 -0.0042  0.2970 -0.4035
   27SAPC   H9X 3639   0.934   0.841   8.199 -0.1592  2.2126  0.3669
   27SAPC   H9Y 3640   1.034   0.965   8.147 -1.2906  0.3924  0.2593
   27SAPC  C310 3641   1.119   0.838   8.314  0.2700  0.1652 -0.3298
   27SAPC  H10X 3642   1.099   0.732   8.342 -2.5754  1.2172  1.9531
   27SAPC  H10Y 3643   1.070   0.905   8.389  0.5819 -0.7095  0.6811
   27SAPC  C311 3644   1.274   0.878   8.295 -0.2649 -0.1062 -0.1302
   27SAPC  H11X 3645   1.255   0.982   8.261 -0.2974 -0.7642 -2.1811
   27SAPC  H11Y 3646   1.324   0.817   8.217 -0.0289 -2.9284  2.1336
   27SAPC  C312 3647   1.363   0.891   8.422 -0.0184 -0.5341  0.6688
   27SAPC  H12X 3648   1.326   0.979   8.480 -1.5486 -0.4152 -0.4675
   27SAPC  H12Y 3649   1.468   0.917   8.397 -0.0579 -2.1049 -1.1642
   27SAPC  C313 3650   1.364   0.767   8.511 -0.5775  0.3409 -0.1219
   27SAPC  H13X 3651   1.260   0.730   8.527  0.2748 -1.7868  0.6449
   27SAPC  H13Y 3652   1.403   0.792   8.612  0.7859 -2.8484  0.2009
   27SAPC  C314 3653   1.471   0.661   8.464 -0.1019  0.5427  0.6378
   27SAPC  H14X 3654   1.568   0.715   8.462 -1.1540  2.6028  2.6562
   27SAPC  H14Y 3655   1.450   0.627   8.360  0.6354 -2.5959  1.4469
   27SAPC  C315 3656   1.489   0.536   8.552 -0.5066  0.2729 -0.3299
   27SAPC  H15X 3657   1.499   0.573   8.656 -0.3465  0.8418 -0.5439
   27SAPC  H15Y 3658   1.579   0.483   8.515 -0.4875  0.2199 -0.2071
   27SAPC  C316 3659   1.359   0.456   8.558  0.0144 -0.5719 -0.3960
   27SAPC  H16X 3660   1.319   0.422   8.460 -1.1589  0.4343 -0.2763
   27SAPC  H16Y 3661   1.282   0.518   8.607  1.2746  2.2277 -1.8425
   27SAPC  C317 3662   1.385   0.333   8.638 -0.3699  0.5329 -0.8047
   27SAPC  H17X 3663   1.382   0.361   8.746 -0.3464 -0.9672 -0.4028
   27SAPC  H17Y 3664   1.477   0.273   8.620 -0.4945  0.2922 -0.6484
   27SAPC  C318 3665   1.262   0.231   8.626 -0.3783 -0.5319  0.3417
   27SAPC  H18X 3666   1.203   0.256   8.535  1.4627  1.4742 -0.3505
   27SAPC  H18Y 3667   1.195   0.228   8.715 -3.0552  2.2128 -1.4795
   27SAPC  H18Z 3668   1.298   0.129   8.603 -2.1566 -0.8586 -1.1272
   28SAPC     N 3669   0.159   5.251   6.499 -0.3649 -0.2922 -0.2271
   28SAPC   C12 3670   0.154   5.110   6.527  0.5797  0.3171  0.1307
   28SAPC  H12A 3671   0.154   5.050   6.437 -0.5169  1.3875 -0.5986
   28SAPC  H12B 3672   0.063   5.093   6.582 -0.6803  5.0699 -0.2247
   28SAPC   C13 3673   0.286   5.298   6.436 -0.0727  0.5608  0.1855
   28SAPC  H13A 3674   0.297   5.405   6.426  0.4493  0.8216  3.0858
   28SAPC  H13B 3675   0.362   5.278   6.510 -0.4822  2.5487  1.1531
   28SAPC  H13C 3676   0.302   5.253   6.338  0.7906  3.1742 -0.9116
   28SAPC   C14 3677   0.050   5.293   6.404  0.4345  0.2181 -0.2334
   28SAPC  H14A 3678   0.067   5.398   6.384 -1.7787  0.4097 -1.3486
   28SAPC  H14B 3679   0.046   5.242   6.309 -0.8516 -0.2915  0.0752
   28SAPC  H14C 3680  -0.047   5.279   6.451  0.5377  1.0295  0.2320
   28SAPC   C15 3681   0.148   5.318   6.636 -0.7114 -0.2608  0.3902
   28SAPC  H15A 3682   0.059   5.279   6.685 -2.0262 -0.5084 -2.0858
   28SAPC  H15B 3683   0.233   5.293   6.698  0.1849 -0.9669 -1.1104
   28SAPC  H15C 3684   0.137   5.424   6.622 -2.9018 -0.1278  2.5429
   28SAPC   C11 3685   0.267   5.044   6.611  0.2758 -1.2192 -0.6851
   28SAPC  H11A 3686   0.230   4.947   6.649  0.4830  0.3594  3.8904
   28SAPC  H11B 3687   0.279   5.109   6.700 -2.3979 -0.6990 -0.6549
   28SAPC     P 3688   0.395   4.905   6.441 -0.2640 -0.0362 -0.1111
   28SAPC   O13 3689   0.268   4.893   6.358 -0.3012 -0.0614  0.0353
   28SAPC   O14 3690   0.526   4.891   6.378 -0.2648 -0.3011  0.5775
   28SAPC   O12 3691   0.385   5.032   6.528 -0.4773 -0.5744 -0.9959
   28SAPC   O11 3692   0.381   4.799   6.550  0.0444 -0.6899 -0.3221
   28SAPC    C1 3693   0.373   4.662   6.519 -0.2698 -0.1631  1.1168
   28SAPC    HA 3694   0.290   4.631   6.451 -1.6772  0.3486  2.5839
   28SAPC    HB 3695   0.468   4.623   6.478 -0.9522 -1.3764  0.6536
   28SAPC    C2 3696   0.345   4.581   6.651 -0.4245 -0.6750  0.7051
   28SAPC    HS 3697   0.306   4.477   6.639 -0.3757 -0.7697  1.3462
   28SAPC   O21 3698   0.247   4.648   6.735  0.0348 -0.1342  0.2654
   28SAPC   C21 3699   0.122   4.637   6.704  0.1376  0.4256 -0.0720
   28SAPC   O22 3700   0.083   4.566   6.613  0.9549  0.1504 -0.3212
   28SAPC   C22 3701   0.035   4.722   6.800  0.3029  0.2844  0.2748
   28SAPC   H2R 3702   0.029   4.659   6.891  0.7504 -1.2584 -0.7516
   28SAPC   H2S 3703   0.098   4.812   6.816  0.9103  0.4917 -2.9739
   28SAPC    C3 3704   0.481   4.577   6.727  0.3489  0.1589  0.8117
   28SAPC    HX 3705   0.513   4.682   6.739 -0.6757  0.3978  1.5728
   28SAPC    HY 3706   0.549   4.510   6.671 -1.1832  0.8052 -1.8787
   28SAPC   O31 3707   0.462   4.525   6.860  0.4658 -0.2434  0.1674
   28SAPC   C31 3708   0.571   4.529   6.934 -0.0253 -0.6400  0.1581
   28SAPC   O32 3709   0.684   4.557   6.891 -0.2694 -0.0869  0.6386
   28SAPC   C32 3710   0.543   4.483   7.069  0.5702  0.0901 -0.8329
   28SAPC   H2X 3711   0.576   4.378   7.082  0.8353  0.1050 -1.3622
   28SAPC   H2Y 3712   0.435   4.507   7.081  0.5267 -0.3615 -0.2922
   28SAPC   C23 3713  -0.106   4.757   6.745 -0.3335 -0.3115 -0.2098
   28SAPC   H3R 3714  -0.113   4.766   6.634  2.0913 -0.2516 -0.3766
   28SAPC   H3S 3715  -0.135   4.856   6.785 -2.5918 -1.3039  0.7165
   28SAPC   C24 3716  -0.211   4.660   6.792 -0.6111 -0.2081 -0.0025
   28SAPC   H4R 3717  -0.184   4.559   6.756 -0.2865  0.0325 -0.4496
   28SAPC   H4S 3718  -0.213   4.661   6.903 -1.3962 -1.1726  0.0003
   28SAPC   C25 3719  -0.347   4.694   6.741 -0.1654  0.0759  0.3683
   28SAPC   H5R 3720  -0.372   4.713   6.635 -0.5923 -2.0840  0.0561
   28SAPC   C26 3721  -0.452   4.688   6.828 -0.0190 -0.0075  0.8690
   28SAPC   H6R 3722  -0.553   4.713   6.792 -0.4595  0.3935  2.3537
   28SAPC   C27 3723  -0.452   4.654   6.974  0.1481  0.0530 -0.3822
   28SAPC   H7R 3724  -0.546   4.695   7.015  0.1588  2.2073 -2.4106
   28SAPC   H7S 3725  -0.361   4.700   7.019  0.4639 -1.5209  0.6489
   28SAPC   C28 3726  -0.452   4.503   6.991  0.3802  0.7830  0.3349
   28SAPC   H8R 3727  -0.514   4.444   6.923 -0.2159  1.0490  0.6465
   28SAPC   C29 3728  -0.385   4.441   7.092 -0.1361  0.4812 -0.0631
   28SAPC   H9R 3729  -0.418   4.338   7.112  1.7816 -0.5577 -2.0182
   28SAPC  C210 3730  -0.296   4.506   7.194  0.2831  0.4529  0.6119
   28SAPC  H10R 3731  -0.357   4.580   7.251  1.6223  1.4315  0.7912
   28SAPC  H10S 3732  -0.215   4.562   7.143  1.3960  0.2752  2.1593
   28SAPC  C211 3733  -0.223   4.411   7.291 -0.5836 -0.1229  0.1320
   28SAPC  H11R 3734  -0.148   4.350   7.239 -0.0549  0.3731  0.3030
   28SAPC  C212 3735  -0.224   4.406   7.426 -0.1675  0.5732  0.2252
   28SAPC  H12R 3736  -0.170   4.332   7.488 -1.3077  0.0919  0.6535
   28SAPC  C213 3737  -0.318   4.484   7.512  0.2014  0.9414  0.7092
   28SAPC  H13R 3738  -0.357   4.575   7.461  1.2254 -0.2640 -2.4101
   28SAPC  H13S 3739  -0.267   4.538   7.595  1.5262  2.7560 -1.2265
   28SAPC  C214 3740  -0.437   4.398   7.549  0.3290 -0.2469 -0.4698
   28SAPC  H14R 3741  -0.452   4.297   7.509 -0.1791 -1.0238  1.6111
   28SAPC  C215 3742  -0.530   4.434   7.640 -0.5003 -0.1534 -0.1215
   28SAPC  H15R 3743  -0.613   4.369   7.673 -0.9851  0.2813 -0.4758
   28SAPC  C216 3744  -0.532   4.572   7.712 -0.8838 -1.3325 -0.6440
   28SAPC  H16R 3745  -0.604   4.631   7.653  0.4904 -0.9535 -1.9873
   28SAPC  H16S 3746  -0.434   4.624   7.708 -1.9113  0.6029 -0.7473
   28SAPC  C217 3747  -0.597   4.542   7.849 -0.5443  0.1565  0.4062
   28SAPC  H17R 3748  -0.536   4.468   7.905 -1.1503 -0.9391 -0.3488
   28SAPC  H17S 3749  -0.693   4.487   7.842 -0.1429 -0.5969  0.7814
   28SAPC  C218 3750  -0.625   4.665   7.940 -0.1997  0.2234 -0.0265
   28SAPC  H18R 3751  -0.677   4.742   7.879 -0.5914 -1.8498 -2.3570
   28SAPC  H18S 3752  -0.535   4.723   7.972 -1.4002  2.6609 -0.9237
   28SAPC  C219 3753  -0.716   4.632   8.058  0.0123  0.4484 -0.0845
   28SAPC  H19R 3754  -0.662   4.565   8.128  1.3238  0.5937 -0.9510
   28SAPC  H19S 3755  -0.806   4.579   8.019  0.7343  0.6264 -2.0229
   28SAPC  C220 3756  -0.763   4.756   8.136 -0.5878  0.6454 -0.1829
   28SAPC  H20R 3757  -0.853   4.732   8.198 -2.3159  0.1534 -2.7912
   28SAPC  H20S 3758  -0.798   4.840   8.072 -0.0924 -1.1384 -2.8688
   28SAPC  H20T 3759  -0.674   4.782   8.197  0.0709  0.0508 -0.8811
   28SAPC   C33 3760   0.623   4.560   7.172  0.3686 -0.6272  0.0156
   28SAPC   H3X 3761   0.619   4.671   7.159  0.4325 -0.6062  0.1736
   28SAPC   H3Y 3762   0.730   4.532   7.178  0.5485 -0.3167 -1.6589
   28SAPC   C34 3763   0.565   4.532   7.309  1.1229  0.7968 -0.0574
   28SAPC   H4X 3764   0.576   4.426   7.342 -1.6347  0.6261  0.4387
   28SAPC   H4Y 3765   0.455   4.547   7.320  1.1051 -0.4579  1.6170
   28SAPC   C35 3766   0.644   4.613   7.413 -0.2050  0.6471 -0.1523
   28SAPC   H5X 3767   0.628   4.723   7.403  1.2808  0.7689 -1.3788
   28SAPC   H5Y 3768   0.754   4.610   7.402 -0.2202  0.2740 -0.2024
   28SAPC   C36 3769   0.608   4.559   7.555  0.5971 -0.0202  0.6153
   28SAPC   H6X 3770   0.628   4.453   7.580 -2.4730 -0.9180 -0.4658
   28SAPC   H6Y 3771   0.497   4.570   7.559  0.7238  1.3130  0.8885
   28SAPC   C37 3772   0.667   4.651   7.666 -0.5305  0.3207 -0.6473
   28SAPC   H7X 3773   0.661   4.753   7.623 -0.2018  1.7542  2.5340
   28SAPC   H7Y 3774   0.773   4.623   7.685 -0.8025 -0.9758 -0.9777
   28SAPC   C38 3775   0.583   4.657   7.798  0.2852  0.7451  0.0116
   28SAPC   H8X 3776   0.556   4.551   7.818 -0.6549  0.6370 -1.7144
   28SAPC   H8Y 3777   0.488   4.712   7.783 -0.0644  0.2145  0.2413
   28SAPC   C39 3778   0.654   4.706   7.924 -0.2391  0.3986 -0.1122
   28SAPC   H9X 3779   0.664   4.817   7.918  0.0704  0.5168  2.3139
   28SAPC   H9Y 3780   0.756   4.663   7.921  0.3912  1.7515  1.5890
   28SAPC  C310 3781   0.583   4.679   8.059 -0.0726 -0.3124 -0.2357
   28SAPC  H10X 3782   0.563   4.570   8.072  2.1887 -0.9170 -1.4816
   28SAPC  H10Y 3783   0.483   4.724   8.040  0.5605  0.7559 -1.0527
   28SAPC  C311 3784   0.649   4.750   8.183 -0.7787 -0.3183 -0.2210
   28SAPC  H11X 3785   0.755   4.767   8.155 -0.7429  0.6683  0.5164
   28SAPC  H11Y 3786   0.630   4.690   8.275  0.9482 -1.1861 -0.4102
   28SAPC  C312 3787   0.594   4.888   8.207 -0.0922  0.4091 -0.7426
   28SAPC  H12X 3788   0.505   4.897   8.140 -0.5112 -1.4104 -0.4557
   28SAPC  H12Y 3789   0.667   4.965   8.175  0.8755  0.0444  0.5726
   28SAPC  C313 3790   0.526   4.918   8.342 -0.4250 -0.0550 -0.3219
   28SAPC  H13X 3791   0.450   4.843   8.372 -0.8435 -0.4670 -2.3782
   28SAPC  H13Y 3792   0.478   5.017   8.344 -0.5027 -0.0618 -1.5175
   28SAPC  C314 3793   0.622   4.906   8.460  0.3594 -0.7505  0.5624
   28SAPC  H14X 3794   0.692   4.992   8.456 -0.4399 -0.0707  0.9836
   28SAPC  H14Y 3795   0.667   4.805   8.448  1.6107  0.0369 -1.6765
   28SAPC  C315 3796   0.549   4.925   8.597 -0.3365 -0.0686  1.3253
   28SAPC  H15X 3797   0.482   4.837   8.607  0.7652 -0.8404  1.9836
   28SAPC  H15Y 3798   0.491   5.020   8.600 -1.8843 -0.9222 -0.7097
   28SAPC  C316 3799   0.660   4.940   8.706 -0.0993  0.5867 -0.1319
   28SAPC  H16X 3800   0.614   4.941   8.808  0.3528  4.3983  0.1211
   28SAPC  H16Y 3801   0.711   5.037   8.689 -0.2308  0.2581 -2.5576
   28SAPC  C317 3802   0.767   4.828   8.707 -0.4936 -0.0399  0.4565
   28SAPC  H17X 3803   0.852   4.872   8.763 -2.1138  0.3459  2.7263
   28SAPC  H17Y 3804   0.798   4.809   8.602  1.6191  0.6837  0.9379
   28SAPC  C318 3805   0.716   4.699   8.773  0.5637  0.4924  0.2764
   28SAPC  H18X 3806   0.668   4.712   8.872 -1.6381 -1.4707 -0.4769
   28SAPC  H18Y 3807   0.795   4.621   8.778  0.3372  0.2611  0.2659
   28SAPC  H18Z 3808   0.640   4.646   8.710  0.5865  0.9392 -0.1292
   29SAPC     N 3809   2.349   1.139   6.354  0.4181 -0.1478  0.1246
   29SAPC   C12 3810   2.431   1.265   6.388 -0.1815  0.7495  0.3463
   29SAPC  H12A 3811   2.517   1.224   6.437 -0.5636 -0.0422  0.3701
   29SAPC  H12B 3812   2.379   1.329   6.458  2.0868  0.9092  1.9171
   29SAPC   C13 3813   2.427   1.047   6.263 -0.9277 -0.6610  0.4460
   29SAPC  H13A 3814   2.503   1.091   6.199  0.8480 -0.1803  2.8008
   29SAPC  H13B 3815   2.475   0.964   6.313  0.5712 -0.5389 -0.7319
   29SAPC  H13C 3816   2.357   0.987   6.207 -0.4789  0.9568 -1.9534
   29SAPC   C14 3817   2.305   1.069   6.480  0.1116  0.5920 -0.0822
   29SAPC  H14A 3818   2.253   1.139   6.544  0.2866  0.5741  0.0794
   29SAPC  H14B 3819   2.232   0.993   6.456 -1.4074  1.4038  1.8077
   29SAPC  H14C 3820   2.389   1.024   6.530 -1.6667 -1.5824  1.0017
   29SAPC   C15 3821   2.222   1.178   6.288  0.2659  0.8137  0.1535
   29SAPC  H15A 3822   2.153   1.213   6.363 -0.1776 -0.7560  0.4949
   29SAPC  H15B 3823   2.241   1.257   6.217 -2.3044  0.9466 -0.4596
   29SAPC  H15C 3824   2.184   1.090   6.236  2.5770 -0.1651  0.0766
   29SAPC   C11 3825   2.498   1.360   6.280 -0.2476 -0.4380  0.3066
   29SAPC  H11A 3826   2.530   1.450   6.337 -0.8623 -0.1042  0.1261
   29SAPC  H11B 3827   2.422   1.400   6.209 -0.3003 -3.3190 -1.3491
   29SAPC     P 3828   2.742   1.265   6.280  0.0687  0.1116 -0.2835
   29SAPC   O13 3829   2.778   1.125   6.244  0.4956  0.5347 -0.3172
   29SAPC   O14 3830   2.834   1.376   6.247  0.6783 -0.1832  0.0750
   29SAPC   O12 3831   2.605   1.296   6.211  0.1902  0.2758  0.1917
   29SAPC   O11 3832   2.708   1.281   6.430  0.1102 -0.2595 -0.3550
   29SAPC    C1 3833   2.757   1.182   6.528 -0.0269  0.1808  0.7265
   29SAPC    HA 3834   2.694   1.090   6.527  0.6176 -0.2708  0.0371
   29SAPC    HB 3835   2.861   1.159   6.494 -0.6295  1.8406 -2.4612
   29SAPC    C2 3836   2.764   1.232   6.675 -0.2309  0.3816 -0.3882
   29SAPC    HS 3837   2.663   1.241   6.721  0.3994  1.6336  0.7837
   29SAPC   O21 3838   2.825   1.362   6.682  0.9792  0.7029  0.0124
   29SAPC   C21 3839   2.740   1.465   6.669 -0.1355 -0.1929  0.1530
   29SAPC   O22 3840   2.619   1.461   6.670 -0.5910  0.1166 -0.7978
   29SAPC   C22 3841   2.817   1.594   6.681 -0.0740  0.0889  0.3960
   29SAPC   H2R 3842   2.892   1.604   6.600 -2.5737 -2.2665 -2.3154
   29SAPC   H2S 3843   2.752   1.682   6.661  2.0996  1.3962 -1.2334
   29SAPC    C3 3844   2.849   1.131   6.748  0.0990  0.1714  0.2886
   29SAPC    HX 3845   2.937   1.113   6.682  0.6962  1.7252  0.6525
   29SAPC    HY 3846   2.791   1.042   6.780 -1.0923  0.9198  0.2205
   29SAPC   O31 3847   2.891   1.181   6.879 -0.6434  0.1569 -0.4451
   29SAPC   C31 3848   2.795   1.218   6.962  0.1880 -0.7489 -0.7538
   29SAPC   O32 3849   2.675   1.195   6.946  0.1399 -0.4494 -0.1433
   29SAPC   C32 3850   2.853   1.296   7.077 -0.0029  0.2775 -0.0445
   29SAPC   H2X 3851   2.953   1.337   7.053 -0.4119  2.0487  1.1717
   29SAPC   H2Y 3852   2.866   1.226   7.162  0.3986  0.4147  0.0060
   29SAPC   C23 3853   2.895   1.627   6.815  0.1734 -0.0121  0.2627
   29SAPC   H3R 3854   2.838   1.596   6.905 -1.3878  0.4099 -0.5667
   29SAPC   H3S 3855   2.904   1.737   6.823  1.0797 -0.0335 -0.3225
   29SAPC   C24 3856   3.031   1.558   6.831  0.0352  0.5862  0.4002
   29SAPC   H4R 3857   3.042   1.523   6.726  2.3213 -1.0718  1.1451
   29SAPC   H4S 3858   3.028   1.464   6.889 -0.3898  0.4057  0.0900
   29SAPC   C25 3859   3.144   1.644   6.882  0.5963 -0.0425  0.7875
   29SAPC   H5R 3860   3.219   1.678   6.809  0.2987  0.1076  0.5528
   29SAPC   C26 3861   3.164   1.678   7.015  0.2380  0.0446  0.1130
   29SAPC   H6R 3862   3.246   1.747   7.039  0.0741  0.1950  0.2393
   29SAPC   C27 3863   3.077   1.636   7.128  0.0661  0.9006 -0.6510
   29SAPC   H7R 3864   3.132   1.577   7.205 -0.5407 -1.5718 -2.0555
   29SAPC   H7S 3865   3.005   1.555   7.104 -1.8866  1.8493  1.7801
   29SAPC   C28 3866   2.986   1.736   7.190 -0.3563 -0.3597 -0.1196
   29SAPC   H8R 3867   2.907   1.767   7.120  0.7227  2.3184 -0.2061
   29SAPC   C29 3868   2.970   1.762   7.329  0.5759  0.1147 -0.1100
   29SAPC   H9R 3869   2.901   1.839   7.366 -1.3544 -1.2041 -0.8992
   29SAPC  C210 3870   3.048   1.690   7.438  0.0421  0.2929  0.1037
   29SAPC  H10R 3871   3.118   1.609   7.408 -0.0089  0.6794 -1.0953
   29SAPC  H10S 3872   2.979   1.641   7.509 -0.6765  0.8236 -0.2194
   29SAPC  C211 3873   3.138   1.790   7.500 -0.2719 -0.3681  0.8974
   29SAPC  H11R 3874   3.201   1.842   7.425 -1.3690  1.0899  0.9665
   29SAPC  C212 3875   3.148   1.844   7.626 -0.1529 -0.1614 -0.9282
   29SAPC  H12R 3876   3.218   1.925   7.651 -1.0776 -0.1431  1.8024
   29SAPC  C213 3877   3.057   1.800   7.744 -0.3382  0.9212  0.6073
   29SAPC  H13R 3878   2.953   1.773   7.718  0.1918 -0.2020 -0.3899
   29SAPC  H13S 3879   3.048   1.883   7.818 -1.5712  0.5459  0.8869
   29SAPC  C214 3880   3.125   1.675   7.808  0.3833 -0.5173  0.1926
   29SAPC  H14R 3881   3.155   1.603   7.731 -1.2327 -0.9740 -0.0251
   29SAPC  C215 3882   3.128   1.641   7.938  0.2835 -0.3750 -0.0324
   29SAPC  H15R 3883   3.183   1.549   7.961 -0.6129 -1.3240 -1.5828
   29SAPC  C216 3884   3.080   1.707   8.063  0.3359  0.7809 -0.2687
   29SAPC  H16R 3885   3.030   1.630   8.124  1.3996  0.1769 -0.1497
   29SAPC  H16S 3886   3.008   1.789   8.045 -0.8071  0.3766  2.2457
   29SAPC  C217 3887   3.193   1.762   8.156  0.3086 -0.5843  0.4581
   29SAPC  H17R 3888   3.252   1.838   8.100  0.3078  0.3961  1.7637
   29SAPC  H17S 3889   3.259   1.677   8.182  0.7686 -0.2784  0.2899
   29SAPC  C218 3890   3.139   1.822   8.283 -0.4059  0.6774  0.3371
   29SAPC  H18R 3891   3.087   1.915   8.251  1.1919  1.2761 -0.5740
   29SAPC  H18S 3892   3.218   1.855   8.354  0.3105 -2.2579  0.9413
   29SAPC  C219 3893   3.048   1.723   8.364 -0.2791  0.7325 -0.7905
   29SAPC  H19R 3894   3.091   1.621   8.374  1.2286  1.4708  0.5458
   29SAPC  H19S 3895   2.944   1.714   8.325 -1.4903  0.7116  2.2726
   29SAPC  C220 3896   3.017   1.767   8.508  0.1373 -0.6822  0.8412
   29SAPC  H20R 3897   2.940   1.707   8.560 -3.5342  1.7416 -1.5630
   29SAPC  H20S 3898   2.972   1.869   8.513  1.7515  0.1376 -1.0524
   29SAPC  H20T 3899   3.108   1.773   8.572 -0.9240 -2.5512  2.5913
   29SAPC   C33 3900   2.748   1.413   7.117  0.6856  0.2440 -0.3975
   29SAPC   H3X 3901   2.667   1.429   7.043 -1.2976 -0.5480  1.5472
   29SAPC   H3Y 3902   2.814   1.502   7.132  0.7848 -0.1890  2.0025
   29SAPC   C34 3903   2.684   1.395   7.259 -0.0741  0.0042 -0.4289
   29SAPC   H4X 3904   2.636   1.295   7.262  1.2076 -0.5876  1.0686
   29SAPC   H4Y 3905   2.603   1.470   7.268  0.5048  0.9216 -2.5522
   29SAPC   C35 3906   2.786   1.406   7.374  0.0325 -0.3097  0.2027
   29SAPC   H5X 3907   2.833   1.506   7.370 -0.6750  0.0588  1.1204
   29SAPC   H5Y 3908   2.868   1.333   7.352 -0.4269 -1.2539  1.5871
   29SAPC   C36 3909   2.731   1.380   7.510  0.2917  0.0404 -0.3132
   29SAPC   H6X 3910   2.711   1.271   7.524 -3.3988  0.8123  1.1431
   29SAPC   H6Y 3911   2.634   1.434   7.510  1.4846  2.2042 -0.6392
   29SAPC   C37 3912   2.816   1.444   7.632  0.1068  0.7013 -0.5146
   29SAPC   H7X 3913   2.817   1.555   7.624 -2.3966  0.6328 -2.4656
   29SAPC   H7Y 3914   2.916   1.401   7.615 -1.4298 -2.2761 -2.3985
   29SAPC   C38 3915   2.767   1.382   7.758 -0.0696  0.3889 -0.2506
   29SAPC   H8X 3916   2.788   1.272   7.753 -1.1652  0.1791 -0.4064
   29SAPC   H8Y 3917   2.661   1.413   7.756  0.0092  0.6552 -0.2485
   29SAPC   C39 3918   2.820   1.449   7.891  0.4167  0.5001  0.6005
   29SAPC   H9X 3919   2.822   1.559   7.874  1.1884  0.6356  1.5569
   29SAPC   H9Y 3920   2.923   1.413   7.909  0.6772 -0.1248 -1.9266
   29SAPC  C310 3921   2.743   1.402   8.015  0.8325  0.1837 -0.2357
   29SAPC  H10X 3922   2.637   1.421   7.986  1.0298  0.3299 -0.8468
   29SAPC  H10Y 3923   2.772   1.466   8.102 -1.0115  1.9821 -0.9110
   29SAPC  C311 3924   2.756   1.252   8.039 -0.4341  0.2154  0.2247
   29SAPC  H11X 3925   2.864   1.229   8.048 -0.5644 -0.4499  0.1022
   29SAPC  H11Y 3926   2.730   1.192   7.949 -0.2157 -0.1656  0.4125
   29SAPC  C312 3927   2.677   1.212   8.163 -0.1307  0.4621  0.0876
   29SAPC  H12X 3928   2.579   1.265   8.161  0.6981  1.9880 -0.6810
   29SAPC  H12Y 3929   2.736   1.245   8.252  0.4958  0.0175 -0.1638
   29SAPC  C313 3930   2.640   1.064   8.170  0.6469  0.2329  0.5655
   29SAPC  H13X 3931   2.599   1.047   8.068 -0.0618  0.6510  0.7785
   29SAPC  H13Y 3932   2.565   1.037   8.247  1.0146 -1.1451  0.4466
   29SAPC  C314 3933   2.766   0.971   8.182  0.2455 -0.8275  1.1914
   29SAPC  H14X 3934   2.837   0.992   8.099 -2.2627  0.2325 -0.7551
   29SAPC  H14Y 3935   2.717   0.871   8.174 -1.0762 -0.0502 -1.2037
   29SAPC  C315 3936   2.844   0.975   8.314 -0.0970  0.8941  0.4127
   29SAPC  H15X 3937   2.888   1.077   8.319 -2.9118  2.3133 -2.1136
   29SAPC  H15Y 3938   2.917   0.893   8.300  1.1132  1.9151  0.7276
   29SAPC  C316 3939   2.757   0.945   8.443 -0.7160 -0.4516  0.6664
   29SAPC  H16X 3940   2.695   0.855   8.424 -0.5216 -0.0565 -2.1642
   29SAPC  H16Y 3941   2.699   1.037   8.464  2.9242  2.3672 -0.9138
   29SAPC  C317 3942   2.840   0.915   8.571 -0.1139 -0.1935  0.1759
   29SAPC  H17X 3943   2.908   1.000   8.591 -0.1262 -0.2935  0.6314
   29SAPC  H17Y 3944   2.906   0.828   8.553 -0.7012 -0.4837 -0.6252
   29SAPC  C318 3945   2.760   0.885   8.696 -0.1223 -0.0098 -0.0615
   29SAPC  H18X 3946   2.724   0.780   8.692 -1.6660  0.4696  0.8170
   29SAPC  H18Y 3947   2.666   0.942   8.710 -1.0669 -1.0503 -1.8689
   29SAPC  H18Z 3948   2.830   0.883   8.782 -1.1364 -1.0264  0.7527
   30SAPC     N 3949   4.555   1.467   5.853 -0.2557  0.0003  0.0739
   30SAPC   C12 3950   4.560   1.447   6.004 -0.1135 -0.0172  0.1666
   30SAPC  H12A 3951   4.627   1.513   6.057 -0.6696 -0.5557  1.5791
   30SAPC  H12B 3952   4.614   1.356   6.026  0.4622  0.4460  0.7166
   30SAPC   C13 3953   4.461   1.363   5.787 -0.5527 -0.8449  0.0179
   30SAPC  H13A 3954   4.373   1.369   5.848  1.0090  0.3103  2.1992
   30SAPC  H13B 3955   4.432   1.380   5.684 -1.7492  0.2502  0.5241
   30SAPC  H13C 3956   4.509   1.267   5.804 -0.3875 -0.8719 -0.5613
   30SAPC   C14 3957   4.513   1.604   5.823  0.0514  0.4818 -0.6554
   30SAPC  H14A 3958   4.571   1.667   5.889  1.2887 -2.0226  0.7353
   30SAPC  H14B 3959   4.541   1.629   5.722  0.5975  1.4182 -0.2797
   30SAPC  H14C 3960   4.406   1.619   5.830 -0.3921 -2.3780 -0.6548
   30SAPC   C15 3961   4.702   1.456   5.806  0.2028  0.5435 -0.2830
   30SAPC  H15A 3962   4.718   1.463   5.700 -0.9444  0.1549 -0.4845
   30SAPC  H15B 3963   4.761   1.534   5.851  0.0423 -0.5944  1.9982
   30SAPC  H15C 3964   4.747   1.360   5.830 -3.3914 -1.1857 -0.1213
   30SAPC   C11 3965   4.425   1.466   6.087  0.1020 -0.4618  0.0266
   30SAPC  H11A 3966   4.377   1.562   6.059  1.9040  0.3296 -0.4078
   30SAPC  H11B 3967   4.454   1.463   6.194  0.3943  0.9029 -0.0078
   30SAPC     P 3968   4.188   1.367   6.096 -0.1710  0.1354 -0.3214
   30SAPC   O13 3969   4.124   1.485   6.037  0.5171 -0.3571 -0.0737
   30SAPC   O14 3970   4.129   1.236   6.070 -0.5849 -0.2294  0.2217
   30SAPC   O12 3971   4.340   1.356   6.047 -0.5525  0.3300 -0.3907
   30SAPC   O11 3972   4.191   1.377   6.257  0.0445 -0.0665  0.5301
   30SAPC    C1 3973   4.246   1.285   6.337  0.0531  0.0800 -0.3891
   30SAPC    HA 3974   4.210   1.182   6.316  1.3529 -0.3368 -0.6117
   30SAPC    HB 3975   4.357   1.283   6.326  0.2765 -0.6075  1.6586
   30SAPC    C2 3976   4.213   1.327   6.485  1.0588  0.4906 -0.2022
   30SAPC    HS 3977   4.272   1.277   6.565 -1.5908 -0.4028  1.2597
   30SAPC   O21 3978   4.067   1.305   6.510 -0.5179 -0.1119  0.2184
   30SAPC   C21 3979   4.038   1.180   6.522  0.4343 -0.8367 -0.3053
   30SAPC   O22 3980   4.119   1.085   6.520 -0.3172 -0.0240 -0.3969
   30SAPC   C22 3981   3.890   1.175   6.560 -0.1418  0.4455  0.4407
   30SAPC   H2R 3982   3.879   1.257   6.634  3.2721  3.0821 -1.8303
   30SAPC   H2S 3983   3.834   1.212   6.471  1.1874  0.3301 -0.4573
   30SAPC    C3 3984   4.238   1.480   6.521 -0.5322  0.1359 -0.0311
   30SAPC    HX 3985   4.154   1.530   6.469 -0.5847  1.4957  1.3531
   30SAPC    HY 3986   4.328   1.517   6.466 -1.0140  1.1443 -0.1578
   30SAPC   O31 3987   4.235   1.517   6.659  0.2833  0.4396 -0.4086
   30SAPC   C31 3988   4.347   1.511   6.729  0.3487  0.2918  0.3378
   30SAPC   O32 3989   4.453   1.470   6.685 -0.4287 -0.0334 -0.4917
   30SAPC   C32 3990   4.333   1.575   6.871 -0.0197 -0.3102 -0.5583
   30SAPC   H2X 3991   4.330   1.685   6.860 -1.6949 -0.5280 -2.4962
   30SAPC   H2Y 3992   4.426   1.543   6.924  0.0704  0.9794  0.0790
   30SAPC   C23 3993   3.838   1.045   6.613 -0.4557  0.4303 -0.1784
   30SAPC   H3R 3994   3.906   0.992   6.683  0.3586  2.0007  0.2351
   30SAPC   H3S 3995   3.838   0.976   6.525 -0.1839 -2.1580  1.7717
   30SAPC   C24 3996   3.691   1.058   6.666  0.2361 -0.0667 -0.9176
   30SAPC   H4R 3997   3.624   1.074   6.579 -1.1273  0.5357  0.2180
   30SAPC   H4S 3998   3.688   1.148   6.731  2.3922 -0.7155  0.1338
   30SAPC   C25 3999   3.639   0.941   6.748  0.0113  0.3025 -0.4734
   30SAPC   H5R 4000   3.580   0.870   6.689  0.3849 -0.4485  0.0362
   30SAPC   C26 4001   3.669   0.922   6.883  0.1548  0.4222  0.4908
   30SAPC   H6R 4002   3.619   0.842   6.938  1.9634 -1.3542 -0.3746
   30SAPC   C27 4003   3.755   1.013   6.967  0.5771 -0.2339 -0.0959
   30SAPC   H7R 4004   3.811   1.090   6.908  0.4860 -1.6926 -2.1470
   30SAPC   H7S 4005   3.826   0.942   7.014  0.1882  0.5397  1.6831
   30SAPC   C28 4006   3.657   1.083   7.061 -0.0997  0.0241  0.0780
   30SAPC   H8R 4007   3.584   1.150   7.014 -0.5296  1.2940  2.5041
   30SAPC   C29 4008   3.654   1.073   7.194 -0.0059 -0.4657 -0.2071
   30SAPC   H9R 4009   3.575   1.123   7.253 -0.2194  0.2529 -1.0956
   30SAPC  C210 4010   3.756   0.988   7.266  0.0075 -0.0337 -0.1265
   30SAPC  H10R 4011   3.848   1.051   7.265 -0.4967  0.7453  1.3343
   30SAPC  H10S 4012   3.779   0.892   7.217  0.5409 -1.2242  2.3732
   30SAPC  C211 4013   3.718   0.943   7.407  0.3344  0.0215 -0.0026
   30SAPC  H11R 4014   3.645   0.861   7.411 -0.5079  0.7599 -0.0700
   30SAPC  C212 4015   3.762   0.998   7.522 -0.2565  0.1518  0.2409
   30SAPC  H12R 4016   3.731   0.943   7.612  0.2746 -1.6956 -0.6891
   30SAPC  C213 4017   3.865   1.114   7.541  0.5882 -0.0755  0.0377
   30SAPC  H13R 4018   3.808   1.209   7.539 -0.4847 -0.7008  0.4564
   30SAPC  H13S 4019   3.941   1.129   7.461  1.6550  1.8231  1.3960
   30SAPC  C214 4020   3.922   1.109   7.681  0.3698  0.3087  0.1662
   30SAPC  H14R 4021   4.029   1.081   7.679  0.0458 -0.9903 -2.9019
   30SAPC  C215 4022   3.873   1.150   7.796 -0.6595  0.0265  0.2573
   30SAPC  H15R 4023   3.941   1.150   7.882 -1.1142 -0.7393  0.6209
   30SAPC  C216 4024   3.729   1.199   7.820 -0.4692  0.4317  0.0082
   30SAPC  H16R 4025   3.672   1.134   7.890 -1.4472 -0.0613 -1.2125
   30SAPC  H16S 4026   3.668   1.205   7.727 -1.2057  0.0557  0.4640
   30SAPC  C217 4027   3.741   1.345   7.883 -0.3187 -0.4557  0.5050
   30SAPC  H17R 4028   3.639   1.378   7.913 -1.1761 -3.0458  0.5548
   30SAPC  H17S 4029   3.792   1.414   7.813  0.1854 -2.0979 -0.7961
   30SAPC  C218 4030   3.821   1.342   8.022 -0.3152  0.1820 -0.1720
   30SAPC  H18R 4031   3.804   1.442   8.067 -1.0662  1.1882 -2.5875
   30SAPC  H18S 4032   3.926   1.339   7.986 -0.6458  1.9424 -1.3767
   30SAPC  C219 4033   3.783   1.235   8.130 -0.0369  0.5315 -0.1342
   30SAPC  H19R 4034   3.803   1.132   8.093 -1.1895  0.2046  0.1135
   30SAPC  H19S 4035   3.672   1.240   8.128  0.0166  1.4296 -1.6516
   30SAPC  C220 4036   3.834   1.259   8.269  0.0384  0.7167 -0.4543
   30SAPC  H20R 4037   3.798   1.360   8.299  0.9505  1.4642 -1.8428
   30SAPC  H20S 4038   3.945   1.264   8.273  0.1701 -0.1965 -2.4618
   30SAPC  H20T 4039   3.797   1.181   8.338  1.9028  0.0875 -0.1373
   30SAPC   C33 4040   4.222   1.511   6.962  0.1120 -0.8861  0.5200
   30SAPC   H3X 4041   4.237   1.401   6.948 -0.3697 -1.0287  1.1185
   30SAPC   H3Y 4042   4.116   1.535   6.938 -0.6196 -4.1935  0.1327
   30SAPC   C34 4043   4.226   1.535   7.117 -0.5413 -0.3003  0.3497
   30SAPC   H4X 4044   4.215   1.646   7.121 -2.1179 -0.4225 -0.2466
   30SAPC   H4Y 4045   4.330   1.526   7.156  0.0304 -1.0785 -1.3148
   30SAPC   C35 4046   4.128   1.457   7.197  0.3099  0.0151 -0.0068
   30SAPC   H5X 4047   4.165   1.354   7.212 -1.0005 -0.5713 -0.8255
   30SAPC   H5Y 4048   4.030   1.456   7.146  0.8101  1.5773 -1.0480
   30SAPC   C36 4049   4.128   1.509   7.339  0.6548 -0.2873 -0.4544
   30SAPC   H6X 4050   4.106   1.618   7.334  3.6863  0.3518 -0.7830
   30SAPC   H6Y 4051   4.228   1.499   7.386  0.3610  0.5745  0.3608
   30SAPC   C37 4052   4.016   1.452   7.424  0.0710  0.1826 -0.2607
   30SAPC   H7X 4053   4.017   1.341   7.423  0.6493  0.1791  0.4862
   30SAPC   H7Y 4054   3.920   1.476   7.373  0.6174  1.6063 -0.6305
   30SAPC   C38 4055   4.032   1.498   7.567  0.1050 -0.3495  0.1117
   30SAPC   H8X 4056   4.120   1.453   7.617 -0.6595  1.1918  2.9306
   30SAPC   H8Y 4057   3.947   1.443   7.613 -0.3944  1.3743  1.2913
   30SAPC   C39 4058   4.018   1.646   7.591 -0.2299 -0.2750  0.3596
   30SAPC   H9X 4059   3.949   1.687   7.515 -2.6149 -3.2804  0.8001
   30SAPC   H9Y 4060   4.112   1.702   7.571  0.0438 -0.6940  0.4602
   30SAPC  C310 4061   3.969   1.682   7.735 -0.2764  1.0717  0.2990
   30SAPC  H10X 4062   3.860   1.665   7.737  0.0550 -1.1331  1.8699
   30SAPC  H10Y 4063   3.987   1.791   7.746  0.4042  0.7529  2.7659
   30SAPC  C311 4064   4.056   1.608   7.845  0.6004  0.3977  0.5456
   30SAPC  H11X 4065   4.161   1.631   7.816 -0.1700  1.8429 -1.2382
   30SAPC  H11Y 4066   4.043   1.499   7.827 -1.6365  0.6859  0.1993
   30SAPC  C312 4067   4.036   1.653   7.985 -0.5830  0.0264 -0.5735
   30SAPC  H12X 4068   3.929   1.646   8.012 -0.0811 -0.6678  1.3412
   30SAPC  H12Y 4069   4.071   1.758   8.002  0.2892 -0.3162 -0.2319
   30SAPC  C313 4070   4.130   1.575   8.084 -0.0915 -0.0030  0.7485
   30SAPC  H13X 4071   4.237   1.604   8.079 -0.2181  0.5386  1.1119
   30SAPC  H13Y 4072   4.131   1.470   8.048 -0.1196  0.3137 -0.1867
   30SAPC  C314 4073   4.091   1.580   8.233 -0.2256  0.1803  0.0616
   30SAPC  H14X 4074   3.993   1.529   8.239  0.9658 -2.2969 -1.0343
   30SAPC  H14Y 4075   4.077   1.687   8.262 -0.8784  0.3659 -0.9230
   30SAPC  C315 4076   4.191   1.509   8.326 -1.1699 -0.0192  0.0207
   30SAPC  H15X 4077   4.282   1.570   8.309 -0.8146 -0.2692  1.0139
   30SAPC  H15Y 4078   4.201   1.403   8.296  0.6959 -0.0259  0.6056
   30SAPC  C316 4079   4.146   1.519   8.481  0.1724  0.9458  0.7289
   30SAPC  H16X 4080   4.220   1.459   8.538  1.6946  2.1213 -0.0016
   30SAPC  H16Y 4081   4.051   1.461   8.488 -0.0736  1.5470  2.8269
   30SAPC  C317 4082   4.139   1.661   8.542 -0.2611 -0.2197  0.3602
   30SAPC  H17X 4083   4.081   1.732   8.478  2.0879  0.3309 -1.2278
   30SAPC  H17Y 4084   4.243   1.695   8.561 -0.7529 -0.3810  3.6602
   30SAPC  C318 4085   4.073   1.662   8.684 -0.0945  0.4365 -0.1285
   30SAPC  H18X 4086   4.055   1.771   8.696 -0.1813  0.2362  1.7040
   30SAPC  H18Y 4087   4.128   1.604   8.762 -0.3041  1.9618  1.1744
   30SAPC  H18Z 4088   3.972   1.617   8.678 -0.7316  1.7267  0.6108
   31SAPC     N 4089   5.174   2.189   6.184  0.4025 -0.2795 -0.6665
   31SAPC   C12 4090   5.154   2.339   6.182 -0.2364  0.1575  0.5006
   31SAPC  H12A 4091   5.091   2.352   6.268 -0.7973 -0.2706  0.1557
   31SAPC  H12B 4092   5.101   2.356   6.090 -1.3973 -0.2556  1.0879
   31SAPC   C13 4093   5.304   2.150   6.110 -0.8513 -0.1451 -0.0655
   31SAPC  H13A 4094   5.328   2.044   6.112 -0.9752 -0.2101 -1.3049
   31SAPC  H13B 4095   5.317   2.202   6.016  0.4167  3.0267  1.7734
   31SAPC  H13C 4096   5.390   2.185   6.165 -1.1631  0.4343  0.0571
   31SAPC   C14 4097   5.182   2.147   6.330  0.3203  0.3347 -0.2572
   31SAPC  H14A 4098   5.126   2.206   6.400 -2.0045 -1.1567 -0.8087
   31SAPC  H14B 4099   5.148   2.045   6.339  1.6888 -0.0405  0.8289
   31SAPC  H14C 4100   5.287   2.137   6.355  0.2239  0.0983  0.0591
   31SAPC   C15 4101   5.054   2.128   6.131 -0.2564  0.0991  0.6657
   31SAPC  H15A 4102   5.043   2.025   6.163 -0.7369  0.8932  3.1343
   31SAPC  H15B 4103   4.957   2.169   6.153 -1.0443 -0.4785 -1.5827
   31SAPC  H15C 4104   5.065   2.122   6.023  0.6919  0.7149  0.7225
   31SAPC   C11 4105   5.276   2.429   6.198 -0.1675 -0.7794 -0.1779
   31SAPC  H11A 4106   5.252   2.536   6.217 -0.4484 -0.7435 -0.7270
   31SAPC  H11B 4107   5.338   2.420   6.107  0.6648 -0.5441  0.3583
   31SAPC     P 4108   5.504   2.397   6.306  0.4798 -0.4733  0.2197
   31SAPC   O13 4109   5.555   2.292   6.205  0.4123  0.4481  0.5691
   31SAPC   O14 4110   5.537   2.542   6.273 -0.5168  0.0104 -0.0502
   31SAPC   O12 4111   5.344   2.380   6.317 -0.6394 -1.3409 -0.1224
   31SAPC   O11 4112   5.561   2.367   6.451  0.3088  0.3590 -0.1415
   31SAPC    C1 4113   5.536   2.462   6.557  0.5785 -0.3749  0.1920
   31SAPC    HA 4114   5.453   2.533   6.537  1.7765  1.1688  0.5645
   31SAPC    HB 4115   5.497   2.421   6.652 -1.2418  0.3908 -0.2060
   31SAPC    C2 4116   5.658   2.546   6.596 -0.4409 -0.8317  0.0275
   31SAPC    HS 4117   5.695   2.598   6.504 -0.5782  0.3575  0.6329
   31SAPC   O21 4118   5.755   2.451   6.641  0.8188  0.3596  0.2796
   31SAPC   C21 4119   5.875   2.461   6.586  0.2423 -0.7118 -0.3343
   31SAPC   O22 4120   5.906   2.551   6.504  0.4508 -0.0831  0.1041
   31SAPC   C22 4121   5.981   2.364   6.639  0.3619 -0.4440  0.4873
   31SAPC   H2R 4122   5.935   2.263   6.633  2.2279 -1.2683 -0.4787
   31SAPC   H2S 4123   6.061   2.380   6.563 -0.4455  0.7189 -0.1258
   31SAPC    C3 4124   5.649   2.666   6.696 -0.1145  0.2973  0.2855
   31SAPC    HX 4125   5.582   2.733   6.638  2.0719  2.8077  0.5475
   31SAPC    HY 4126   5.742   2.726   6.703  0.6553 -1.1585  2.9503
   31SAPC   O31 4127   5.584   2.636   6.819 -0.2149  0.7484  0.0814
   31SAPC   C31 4128   5.668   2.659   6.926  0.4270 -0.5823 -0.1789
   31SAPC   O32 4129   5.778   2.708   6.920 -0.2830  0.1231  0.0535
   31SAPC   C32 4130   5.610   2.586   7.044 -0.5205 -0.8640  0.6207
   31SAPC   H2X 4131   5.689   2.584   7.123  0.0274 -0.6923  0.0828
   31SAPC   H2Y 4132   5.601   2.480   7.013 -1.7450 -0.2209 -1.2377
   31SAPC   C23 4133   6.013   2.395   6.789 -0.3691 -0.4645  0.5882
   31SAPC   H3R 4134   5.997   2.502   6.816  0.3623  0.1012 -1.1998
   31SAPC   H3S 4135   6.120   2.377   6.811 -0.4329 -2.1738 -0.4409
   31SAPC   C24 4136   5.954   2.290   6.877  0.3347 -0.8576  1.2963
   31SAPC   H4R 4137   6.016   2.299   6.969  0.5001 -1.2311  1.2226
   31SAPC   H4S 4138   5.982   2.188   6.841 -1.0986 -0.3676 -1.3232
   31SAPC   C25 4139   5.809   2.286   6.919  0.3035  0.3586 -0.4158
   31SAPC   H5R 4140   5.734   2.282   6.839 -0.9123  3.7533  0.5079
   31SAPC   C26 4141   5.769   2.281   7.046 -0.0062  0.0043 -0.2368
   31SAPC   H6R 4142   5.659   2.280   7.054  0.0193  2.0417  0.4943
   31SAPC   C27 4143   5.840   2.291   7.180 -0.3984 -0.7803  0.8929
   31SAPC   H7R 4144   5.841   2.392   7.226 -0.5993 -1.7997  3.1885
   31SAPC   H7S 4145   5.948   2.275   7.156 -0.5897  1.1930 -1.4518
   31SAPC   C28 4146   5.810   2.202   7.295 -0.4975  0.5869  0.0953
   31SAPC   H8R 4147   5.785   2.103   7.254  1.6602  0.8936 -2.0823
   31SAPC   C29 4148   5.804   2.221   7.429 -0.2120  0.4128 -0.5769
   31SAPC   H9R 4149   5.762   2.139   7.489 -2.3411  1.9209  0.0644
   31SAPC  C210 4150   5.837   2.351   7.492 -0.4807  0.2683  0.4794
   31SAPC  H10R 4151   5.918   2.404   7.438  0.1159 -1.2268 -0.0955
   31SAPC  H10S 4152   5.879   2.322   7.591  1.5543  0.4971 -0.3114
   31SAPC  C211 4153   5.715   2.438   7.500 -0.1068  0.2070 -0.1549
   31SAPC  H11R 4154   5.668   2.465   7.404 -1.3255 -0.2014  0.3261
   31SAPC  C212 4155   5.653   2.478   7.612 -0.0243 -0.5317 -0.0111
   31SAPC  H12R 4156   5.556   2.531   7.612  1.0091  1.4238 -0.5184
   31SAPC  C213 4157   5.691   2.442   7.759  0.3177 -0.6097 -0.2209
   31SAPC  H13R 4158   5.673   2.534   7.819  1.5001 -0.8308  0.5061
   31SAPC  H13S 4159   5.800   2.422   7.764  0.6688  1.5034  1.1125
   31SAPC  C214 4160   5.623   2.325   7.826 -0.3063 -0.2614  0.7188
   31SAPC  H14R 4161   5.609   2.233   7.768 -0.1197  0.8383 -1.0997
   31SAPC  C215 4162   5.575   2.321   7.948  0.1849  0.3475 -0.7927
   31SAPC  H15R 4163   5.548   2.224   7.991 -0.6036  0.1054 -1.8031
   31SAPC  C216 4164   5.574   2.436   8.049 -0.3229 -0.4315 -1.1243
   31SAPC  H16R 4165   5.483   2.435   8.112 -0.0286  1.9404 -0.6228
   31SAPC  H16S 4166   5.570   2.535   8.000 -0.0476  0.2268  0.1691
   31SAPC  C217 4167   5.699   2.431   8.140  0.0103  0.0837 -0.0727
   31SAPC  H17R 4168   5.703   2.524   8.200  1.1936  0.7721 -1.1848
   31SAPC  H17S 4169   5.788   2.446   8.074  0.0830  1.2240  0.2744
   31SAPC  C218 4170   5.718   2.295   8.209  0.1589 -0.0086  0.0062
   31SAPC  H18R 4171   5.823   2.278   8.243 -0.6592  0.0308  2.7052
   31SAPC  H18S 4172   5.700   2.208   8.142 -0.9068 -0.0598  0.3402
   31SAPC  C219 4173   5.622   2.270   8.328 -0.8558 -0.2087 -0.4639
   31SAPC  H19R 4174   5.522   2.297   8.288  1.3253  2.8872 -4.2015
   31SAPC  H19S 4175   5.650   2.344   8.407 -1.2148 -4.1270  3.5572
   31SAPC  C220 4176   5.624   2.139   8.396  0.0230 -1.1894  0.2402
   31SAPC  H20R 4177   5.612   2.056   8.323  0.4645 -0.2233 -0.9382
   31SAPC  H20S 4178   5.546   2.123   8.474  0.2245  0.5099  0.7962
   31SAPC  H20T 4179   5.722   2.123   8.447  1.4195  2.4879 -1.1293
   31SAPC   C33 4180   5.483   2.655   7.087  0.4789  0.0089 -0.3120
   31SAPC   H3X 4181   5.405   2.644   7.009  0.1274  1.0715 -0.1156
   31SAPC   H3Y 4182   5.492   2.765   7.089  2.0741 -0.1166  0.2190
   31SAPC   C34 4183   5.432   2.609   7.223  0.5437  0.3409 -0.6754
   31SAPC   H4X 4184   5.518   2.613   7.293 -0.0666  1.3267  0.0368
   31SAPC   H4Y 4185   5.400   2.504   7.211  2.0727 -0.0338 -1.7254
   31SAPC   C35 4186   5.323   2.691   7.293  0.0996  0.5738  0.8100
   31SAPC   H5X 4187   5.226   2.645   7.264  1.6998 -2.7073  0.5274
   31SAPC   H5Y 4188   5.339   2.798   7.265  1.0150  0.6095  1.4359
   31SAPC   C36 4189   5.333   2.673   7.449 -0.3072 -0.0600 -1.2181
   31SAPC   H6X 4190   5.441   2.688   7.470 -1.1801  4.0768  0.6745
   31SAPC   H6Y 4191   5.303   2.569   7.474 -0.0415  0.7532  2.9635
   31SAPC   C37 4192   5.261   2.787   7.533  0.1725 -0.1483  0.6635
   31SAPC   H7X 4193   5.155   2.755   7.517  0.9172 -2.5794  0.2684
   31SAPC   H7Y 4194   5.292   2.887   7.497 -3.4048  0.0815 -2.1070
   31SAPC   C38 4195   5.292   2.784   7.681  0.3721 -0.0489  0.4215
   31SAPC   H8X 4196   5.282   2.888   7.719  3.5272  0.5886 -0.3004
   31SAPC   H8Y 4197   5.400   2.760   7.695  0.1640  0.1308  2.4676
   31SAPC   C39 4198   5.210   2.691   7.773  0.3261 -0.6970 -0.0572
   31SAPC   H9X 4199   5.208   2.588   7.733 -1.7823 -0.3963 -0.7743
   31SAPC   H9Y 4200   5.106   2.731   7.772  0.8292  0.7133  1.7534
   31SAPC  C310 4201   5.261   2.699   7.917 -0.1999 -0.6043  0.0666
   31SAPC  H10X 4202   5.263   2.807   7.942 -0.8712 -0.8657  1.3189
   31SAPC  H10Y 4203   5.367   2.667   7.920 -0.7907 -2.6037  0.5270
   31SAPC  C311 4204   5.159   2.630   8.020  0.3489 -0.5232  0.1653
   31SAPC  H11X 4205   5.157   2.523   7.989  0.9893  0.6900 -4.3405
   31SAPC  H11Y 4206   5.063   2.675   7.990 -0.0067 -0.6834  1.0448
   31SAPC  C312 4207   5.186   2.657   8.165 -0.0364  0.0690  1.0346
   31SAPC  H12X 4208   5.177   2.765   8.190 -1.9377 -0.2204  1.6356
   31SAPC  H12Y 4209   5.287   2.622   8.195  0.3362 -0.6216 -0.9046
   31SAPC  C313 4210   5.079   2.576   8.249 -0.1150  0.4232  0.5340
   31SAPC  H13X 4211   5.084   2.469   8.219  3.3242  1.1434 -1.7829
   31SAPC  H13Y 4212   4.976   2.606   8.220  0.6381  2.1996 -0.3764
   31SAPC  C314 4213   5.087   2.581   8.397 -0.0112  0.0111 -0.6371
   31SAPC  H14X 4214   4.988   2.563   8.445  0.9099  0.7462  1.6088
   31SAPC  H14Y 4215   5.114   2.683   8.432 -0.4348  0.1931 -0.8362
   31SAPC  C315 4216   5.195   2.491   8.458 -0.1314  0.5051 -0.2223
   31SAPC  H15X 4217   5.286   2.509   8.397 -0.4181  0.0523 -0.7864
   31SAPC  H15Y 4218   5.163   2.386   8.472  0.4815  0.4832  1.1714
   31SAPC  C316 4219   5.221   2.530   8.606 -0.4562 -0.0633  0.3404
   31SAPC  H16X 4220   5.125   2.518   8.662 -0.0587  0.7916  1.2191
   31SAPC  H16Y 4221   5.239   2.639   8.599 -0.6060 -0.0182  0.6102
   31SAPC  C317 4222   5.342   2.450   8.665 -0.1763  0.8983 -0.7702
   31SAPC  H17X 4223   5.425   2.474   8.595  2.6168 -3.0786  0.9978
   31SAPC  H17Y 4224   5.334   2.340   8.660  2.0837  0.5229  2.3222
   31SAPC  C318 4225   5.379   2.488   8.810  0.9621  0.2686  0.2524
   31SAPC  H18X 4226   5.296   2.458   8.877 -0.2548 -1.0682 -1.8043
   31SAPC  H18Y 4227   5.415   2.593   8.816  0.3316  0.6254 -1.8133
   31SAPC  H18Z 4228   5.470   2.429   8.836  2.0690  2.6394  1.9298
   32SAPC     N 4229   0.764   3.660   6.250  0.0822  0.2500  0.3868
   32SAPC   C12 4230   0.729   3.723   6.386 -1.0453 -0.5300  0.5354
   32SAPC  H12A 4231   0.817   3.746   6.444 -1.9914  0.8028  1.4671
   32SAPC  H12B 4232   0.678   3.647   6.443 -0.4687 -1.0908  0.3075
   32SAPC   C13 4233   0.787   3.760   6.147 -0.0539 -0.4346  1.0692
   32SAPC  H13A 4234   0.820   3.717   6.054 -0.6940 -0.2294  0.7400
   32SAPC  H13B 4235   0.697   3.814   6.122 -1.6652 -2.3646  2.5008
   32SAPC  H13C 4236   0.859   3.833   6.181 -0.2424  1.0879 -1.7016
   32SAPC   C14 4237   0.889   3.581   6.258 -0.7781  0.3838 -0.3082
   32SAPC  H14A 4238   0.862   3.482   6.291 -2.1426  1.3743  1.6214
   32SAPC  H14B 4239   0.940   3.574   6.163  1.8318  0.6491  1.0518
   32SAPC  H14C 4240   0.965   3.615   6.326 -2.0695  3.0434 -0.1136
   32SAPC   C15 4241   0.659   3.557   6.210  0.9046  0.2436 -0.8996
   32SAPC  H15A 4242   0.685   3.514   6.114  1.6476 -1.7439  0.1700
   32SAPC  H15B 4243   0.647   3.476   6.281  0.1429  0.2898 -0.9676
   32SAPC  H15C 4244   0.566   3.610   6.199  1.0764  0.7145 -0.1206
   32SAPC   C11 4245   0.623   3.840   6.391  0.0207 -0.4721 -0.2136
   32SAPC  H11A 4246   0.564   3.848   6.297 -0.5936 -0.4229  0.1735
   32SAPC  H11B 4247   0.669   3.940   6.404 -0.2978 -0.5624  1.6371
   32SAPC     P 4248   0.415   3.719   6.485  0.0133 -0.2518  0.2217
   32SAPC   O13 4249   0.306   3.764   6.394  0.6940 -0.2541 -0.1269
   32SAPC   O14 4250   0.483   3.591   6.467  0.0770  0.3436 -0.7554
   32SAPC   O12 4251   0.531   3.827   6.500 -0.3828 -0.4975 -0.2434
   32SAPC   O11 4252   0.347   3.719   6.634 -0.1545  0.4037 -0.0387
   32SAPC    C1 4253   0.302   3.838   6.693 -0.2912 -0.4300 -0.4928
   32SAPC    HA 4254   0.386   3.899   6.731  1.2574 -2.0136 -1.2868
   32SAPC    HB 4255   0.245   3.893   6.615  1.8181  0.8694 -1.1487
   32SAPC    C2 4256   0.202   3.808   6.807 -0.3697  0.6228  0.0543
   32SAPC    HS 4257   0.151   3.900   6.841 -1.8082 -0.0347 -0.2992
   32SAPC   O21 4258   0.275   3.740   6.914  0.2474  0.5935  0.8947
   32SAPC   C21 4259   0.349   3.823   6.983  0.4082 -0.5421  0.3528
   32SAPC   O22 4260   0.373   3.942   6.968  0.4429 -0.1376  0.1526
   32SAPC   C22 4261   0.404   3.747   7.096  0.9436 -0.2316 -0.8812
   32SAPC   H2R 4262   0.478   3.677   7.052  1.5970 -0.2888  0.2717
   32SAPC   H2S 4263   0.472   3.801   7.166  0.9305 -1.5120  0.1400
   32SAPC    C3 4264   0.092   3.711   6.751  0.3150 -0.0530  0.1598
   32SAPC    HX 4265   0.143   3.629   6.696 -1.0832 -0.8863  0.1111
   32SAPC    HY 4266   0.034   3.767   6.675  1.6124  0.0625 -0.7569
   32SAPC   O31 4267   0.007   3.664   6.857 -0.5422 -0.0048  0.4828
   32SAPC   C31 4268  -0.017   3.534   6.853  0.3101  0.4142  1.0651
   32SAPC   O32 4269  -0.034   3.466   6.752  0.1950 -0.2705 -0.5913
   32SAPC   C32 4270  -0.046   3.488   6.989 -0.1504 -0.2071 -0.4565
   32SAPC   H2X 4271   0.042   3.506   7.055  0.2403  0.1621 -1.0823
   32SAPC   H2Y 4272  -0.040   3.377   6.983 -1.7691 -0.3072 -0.5564
   32SAPC   C23 4273   0.296   3.690   7.185 -0.2272  0.1324 -1.0679
   32SAPC   H3R 4274   0.224   3.621   7.136 -1.7452  0.0664  1.1657
   32SAPC   H3S 4275   0.233   3.768   7.233  3.0862  2.1623  0.1077
   32SAPC   C24 4276   0.364   3.613   7.303 -0.0779  0.7732  0.1389
   32SAPC   H4R 4277   0.441   3.678   7.350  0.5852 -0.5363  0.8865
   32SAPC   H4S 4278   0.431   3.546   7.245  0.9937  3.1065 -1.3970
   32SAPC   C25 4279   0.268   3.546   7.400 -1.4655 -0.4142  0.0632
   32SAPC   H5R 4280   0.164   3.553   7.363 -2.0815  0.2379  1.8914
   32SAPC   C26 4281   0.289   3.513   7.530 -0.8485  0.2166  0.5500
   32SAPC   H6R 4282   0.206   3.466   7.586 -1.0903  1.5603  1.3292
   32SAPC   C27 4283   0.422   3.516   7.603  0.2317  0.0438 -0.2751
   32SAPC   H7R 4284   0.419   3.601   7.675 -0.3988  0.7105 -1.0694
   32SAPC   H7S 4285   0.504   3.545   7.533  0.2515  1.5107  0.3429
   32SAPC   C28 4286   0.448   3.389   7.674  0.3151 -0.0363  0.1565
   32SAPC   H8R 4287   0.442   3.295   7.619  0.6325 -1.3481  2.2918
   32SAPC   C29 4288   0.460   3.364   7.802 -0.4578  0.1163 -0.4479
   32SAPC   H9R 4289   0.475   3.261   7.836 -0.2555  0.6471  1.1353
   32SAPC  C210 4290   0.468   3.472   7.902 -0.1211  0.1553 -0.3727
   32SAPC  H10R 4291   0.475   3.573   7.857 -0.4745  0.5867  0.5410
   32SAPC  H10S 4292   0.573   3.464   7.935 -0.3310  0.3915  0.3591
   32SAPC  C211 4293   0.375   3.481   8.024 -0.6197 -0.6445 -0.3219
   32SAPC  H11R 4294   0.273   3.469   7.986 -0.5129 -1.4246 -0.3703
   32SAPC  C212 4295   0.396   3.513   8.155  0.9248  0.6471 -0.5703
   32SAPC  H12R 4296   0.318   3.522   8.232 -1.6324 -1.4737 -2.8410
   32SAPC  C213 4297   0.524   3.548   8.219 -0.4297 -0.0304  0.2883
   32SAPC  H13R 4298   0.584   3.618   8.157 -0.1146  1.1258  1.8640
   32SAPC  H13S 4299   0.592   3.463   8.240  0.3684  0.7449  0.9134
   32SAPC  C214 4300   0.504   3.613   8.357 -0.6763  1.0191  0.1909
   32SAPC  H14R 4301   0.421   3.572   8.416 -0.9428  0.2751 -0.6999
   32SAPC  C215 4302   0.576   3.713   8.405 -0.5061  0.4119  0.0570
   32SAPC  H15R 4303   0.551   3.748   8.506  1.1925 -2.3291  1.4866
   32SAPC  C216 4304   0.699   3.784   8.343  0.6040  0.4880  0.0212
   32SAPC  H16R 4305   0.670   3.867   8.275 -2.3032 -1.3346 -1.0286
   32SAPC  H16S 4306   0.753   3.707   8.285  0.4269 -1.9495  2.9725
   32SAPC  C217 4307   0.793   3.850   8.446 -0.5679  0.0982  0.3419
   32SAPC  H17R 4308   0.882   3.860   8.381 -0.4845  0.2051  0.4735
   32SAPC  H17S 4309   0.827   3.784   8.529  1.4288  0.7289  0.0505
   32SAPC  C218 4310   0.747   3.993   8.483  0.1528 -0.1211  0.2899
   32SAPC  H18R 4311   0.641   3.993   8.514  0.4422  1.2375  1.3233
   32SAPC  H18S 4312   0.747   4.064   8.397  2.2885 -1.0410 -0.5220
   32SAPC  C219 4313   0.834   4.046   8.597  0.7462 -0.0848  0.1280
   32SAPC  H19R 4314   0.939   4.010   8.591  0.9951 -0.3172  4.3272
   32SAPC  H19S 4315   0.786   4.010   8.690 -1.6141 -2.1729 -1.8474
   32SAPC  C220 4316   0.833   4.200   8.592 -0.2772 -0.8599 -0.4227
   32SAPC  H20R 4317   0.733   4.243   8.612 -0.9186 -1.1424 -2.8603
   32SAPC  H20S 4318   0.857   4.244   8.492  0.4031  1.0694  0.5752
   32SAPC  H20T 4319   0.899   4.232   8.676 -1.9512  0.9572  0.2402
   32SAPC   C33 4320  -0.173   3.535   7.062  0.0648 -0.4938  0.5869
   32SAPC   H3X 4321  -0.264   3.507   7.005  1.2096 -0.0438 -1.5263
   32SAPC   H3Y 4322  -0.169   3.646   7.063  2.5218 -0.5649  0.6584
   32SAPC   C34 4323  -0.181   3.481   7.203 -0.0109 -0.5043  0.5465
   32SAPC   H4X 4324  -0.099   3.521   7.266  0.7090 -3.0734  1.3015
   32SAPC   H4Y 4325  -0.171   3.371   7.208  0.1887 -0.5191 -0.0865
   32SAPC   C35 4326  -0.311   3.524   7.274 -0.0898 -0.1724  0.0974
   32SAPC   H5X 4327  -0.395   3.466   7.231 -0.8151  1.3281 -0.5724
   32SAPC   H5Y 4328  -0.328   3.632   7.253 -2.8071 -0.6627 -0.3634
   32SAPC   C36 4329  -0.303   3.504   7.428  0.2454  1.0949 -0.5357
   32SAPC   H6X 4330  -0.244   3.582   7.480 -0.0315  0.9516 -0.0066
   32SAPC   H6Y 4331  -0.260   3.406   7.457 -0.6785 -0.1037 -3.0361
   32SAPC   C37 4332  -0.453   3.511   7.487 -0.4608  0.4740 -0.2122
   32SAPC   H7X 4333  -0.515   3.429   7.444 -0.5919  0.6531 -0.3666
   32SAPC   H7Y 4334  -0.505   3.594   7.436  0.5791 -0.1145 -2.3077
   32SAPC   C38 4335  -0.470   3.532   7.639 -0.4210  0.2534 -0.2059
   32SAPC   H8X 4336  -0.580   3.527   7.657 -0.4782 -0.1651 -0.6618
   32SAPC   H8Y 4337  -0.425   3.629   7.669 -1.7301  0.8621 -0.1892
   32SAPC   C39 4338  -0.397   3.437   7.732 -0.0976 -0.5438  0.2346
   32SAPC   H9X 4339  -0.293   3.419   7.697 -0.3406  0.4069 -1.0051
   32SAPC   H9Y 4340  -0.438   3.334   7.727  0.9722 -0.9884  0.3821
   32SAPC  C310 4341  -0.385   3.490   7.873  0.2407  0.0880 -0.2552
   32SAPC  H10X 4342  -0.481   3.530   7.912 -0.5595  0.4204 -2.4979
   32SAPC  H10Y 4343  -0.305   3.567   7.880  0.6822 -0.1929 -2.1492
   32SAPC  C311 4344  -0.329   3.378   7.964 -0.0230 -0.3695 -0.0898
   32SAPC  H11X 4345  -0.227   3.355   7.926  0.5603  0.2703  1.0436
   32SAPC  H11Y 4346  -0.393   3.288   7.964  1.1083 -1.1905  0.4907
   32SAPC  C312 4347  -0.323   3.429   8.104 -0.2462 -0.6292  0.7869
   32SAPC  H12X 4348  -0.428   3.441   8.140 -0.2147  1.7335  0.1874
   32SAPC  H12Y 4349  -0.298   3.537   8.097 -2.2294  0.0295  3.0746
   32SAPC  C313 4350  -0.248   3.338   8.212 -0.5203  0.0822 -0.7258
   32SAPC  H13X 4351  -0.147   3.320   8.171 -2.2281 -1.3397 -4.5795
   32SAPC  H13Y 4352  -0.310   3.246   8.229  2.5662 -1.5063  2.6012
   32SAPC  C314 4353  -0.223   3.424   8.343 -0.6246  0.2504 -0.2855
   32SAPC  H14X 4354  -0.322   3.467   8.371 -0.1829  2.2862 -1.7414
   32SAPC  H14Y 4355  -0.157   3.502   8.301  0.2117 -0.0903  0.3965
   32SAPC  C315 4356  -0.162   3.362   8.467  0.3161  0.2732 -0.3445
   32SAPC  H15X 4357  -0.130   3.440   8.540  0.0432  0.7169 -0.6984
   32SAPC  H15Y 4358  -0.076   3.298   8.437 -0.9582 -0.5025 -2.4849
   32SAPC  C316 4359  -0.259   3.274   8.544 -0.3613 -0.1906  0.4092
   32SAPC  H16X 4360  -0.324   3.216   8.476  0.2486 -1.5833  0.9994
   32SAPC  H16Y 4361  -0.337   3.328   8.602 -1.2401 -0.4573 -0.5170
   32SAPC  C317 4362  -0.188   3.178   8.639 -0.3924  0.2032  0.1089
   32SAPC  H17X 4363  -0.122   3.247   8.696 -2.3270  0.8967  1.5764
   32SAPC  H17Y 4364  -0.122   3.107   8.584 -0.8672  0.1558 -0.4060
   32SAPC  C318 4365  -0.288   3.109   8.735  0.2056 -0.0257  0.1411
   32SAPC  H18X 4366  -0.353   3.031   8.689 -0.5316  1.8587 -2.1048
   32SAPC  H18Y 4367  -0.340   3.191   8.790  1.6848  1.5068 -0.7111
   32SAPC  H18Z 4368  -0.231   3.056   8.814  1.4367  1.1702  0.0726
   33POPC     N 4369   4.068   4.564  10.529 -0.5714  0.4712 -0.5399
   33POPC   C12 4370   3.921   4.558  10.507  0.2203 -1.1032  0.0804
   33POPC  H12A 4371   3.878   4.500  10.587 -0.4442 -0.6345  0.0697
   33POPC  H12B 4372   3.903   4.502  10.416 -1.6732 -0.6391  0.1386
   33POPC   C13 4373   4.140   4.643  10.415  0.1285 -0.8401  0.7100
   33POPC  H13A 4374   4.246   4.651  10.432  0.3568 -1.5370 -0.2998
   33POPC  H13B 4375   4.138   4.600  10.315  0.1612 -2.4325  1.3859
   33POPC  H13C 4376   4.096   4.741  10.416 -3.0672 -2.1484 -1.1174
   33POPC   C14 4377   4.097   4.640  10.653  0.1575 -0.3171 -0.5641
   33POPC  H14A 4378   4.063   4.742  10.661 -2.0459 -1.1367  0.9710
   33POPC  H14B 4379   4.049   4.587  10.734 -1.1523 -0.0723 -1.1696
   33POPC  H14C 4380   4.202   4.644  10.679  0.2302  3.1083 -1.2398
   33POPC   C15 4381   4.137   4.431  10.530 -0.2328 -0.7431  0.5743
   33POPC  H15A 4382   4.240   4.436  10.562 -0.7818  1.5330  2.1381
   33POPC  H15B 4383   4.141   4.395  10.428  2.0517  2.1364 -0.4360
   33POPC  H15C 4384   4.090   4.358  10.595 -0.6805 -0.1027  0.9760
   33POPC   C11 4385   3.848   4.693  10.500 -1.1423  0.3423  0.7376
   33POPC  H11A 4386   3.872   4.728  10.397  2.6482 -0.3318  1.3205
   33POPC  H11B 4387   3.894   4.765  10.571  1.4804 -1.8958  1.4072
   33POPC     P 4388   3.619   4.779  10.578  0.0123 -0.0177  0.2560
   33POPC   O13 4389   3.620   4.886  10.479  0.4108  0.1998 -0.3641
   33POPC   O14 4390   3.657   4.812  10.714 -0.5373  0.3355  0.6388
   33POPC   O12 4391   3.713   4.664  10.523  0.1350  0.7747 -0.1724
   33POPC   O11 4392   3.476   4.707  10.582  0.3267 -0.4606 -0.2477
   33POPC    C1 4393   3.436   4.591  10.509 -0.8550 -0.3095  0.2504
   33POPC    HA 4394   3.526   4.543  10.466 -0.3498  1.8058 -1.1205
   33POPC    HB 4395   3.386   4.526  10.584 -1.7916 -1.4485 -1.3248
   33POPC    C2 4396   3.331   4.622  10.399  0.6658  0.1542  0.4120
   33POPC    HS 4397   3.307   4.520  10.363 -0.7027 -0.2359  2.3439
   33POPC   O21 4398   3.394   4.707  10.302  0.0602  0.4059 -0.0376
   33POPC   C21 4399   3.457   4.644  10.207 -0.5650  0.0526 -0.0599
   33POPC   O22 4400   3.476   4.522  10.202  0.2385  0.3871  0.1983
   33POPC   C22 4401   3.493   4.741  10.094  0.4346 -0.2057 -0.0249
   33POPC   H2R 4402   3.604   4.737  10.091  0.4689 -1.6224  1.6673
   33POPC   H2S 4403   3.452   4.840  10.123 -1.7976 -1.1833  0.2910
   33POPC    C3 4404   3.199   4.693  10.450  0.1501  0.2803 -0.0776
   33POPC    HX 4405   3.236   4.794  10.479 -4.0709  1.6492  1.0085
   33POPC    HY 4406   3.150   4.656  10.543 -1.2937  0.6728 -0.6620
   33POPC   O31 4407   3.104   4.695  10.341 -0.1721  0.4105  0.6392
   33POPC   C31 4408   3.009   4.785  10.349  0.1712 -0.6528  0.5502
   33POPC   O32 4409   3.009   4.871  10.433 -0.6433  0.4178 -0.0711
   33POPC   C32 4410   2.903   4.767  10.245  0.3022  0.6352  0.8274
   33POPC   H2X 4411   2.823   4.842  10.262 -0.3001 -0.0696  1.1416
   33POPC   H2Y 4412   2.870   4.661  10.245  0.3631  0.6086 -0.7802
   33POPC   C23 4413   3.444   4.698   9.954 -0.4675 -0.4033 -0.1734
   33POPC   H3R 4414   3.489   4.605   9.914  1.2842 -0.8974  2.8000
   33POPC   H3S 4415   3.479   4.773   9.879 -2.5190 -0.4783 -1.2537
   33POPC   C24 4416   3.292   4.686   9.939  0.3902 -0.8059 -0.3223
   33POPC   H4R 4417   3.236   4.779   9.967  0.4177 -0.7400 -0.4861
   33POPC   H4S 4418   3.253   4.612  10.012 -0.9522  0.9947  0.8423
   33POPC   C25 4419   3.262   4.627   9.802 -0.1789 -0.2950 -0.3963
   33POPC   H5R 4420   3.324   4.537   9.780 -1.3117 -0.8000 -1.6157
   33POPC   H5S 4421   3.306   4.700   9.731  1.7047  0.2176  1.2440
   33POPC   C26 4422   3.110   4.597   9.776  0.0016 -1.0233  0.0746
   33POPC   H6R 4423   3.087   4.599   9.667 -0.1757 -1.1303  0.1091
   33POPC   H6S 4424   3.053   4.683   9.818 -1.0162 -1.4318 -0.4280
   33POPC   C27 4425   3.059   4.464   9.832 -0.5362 -0.3394  0.1070
   33POPC   H7R 4426   3.095   4.467   9.937 -0.9238 -0.7064  0.2535
   33POPC   H7S 4427   3.106   4.381   9.775 -1.3723 -0.1803 -0.8188
   33POPC   C28 4428   2.902   4.452   9.826 -0.2237 -0.0935  0.0043
   33POPC   H8R 4429   2.867   4.542   9.882 -3.0196 -0.1388 -1.5713
   33POPC   H8S 4430   2.874   4.360   9.884 -0.1242 -0.2772 -0.2419
   33POPC   C29 4431   2.856   4.436   9.684 -0.0565  0.3579  0.2247
   33POPC   H91 4432   2.871   4.332   9.650 -0.0367  0.2614  0.5207
   33POPC  C210 4433   2.802   4.525   9.601 -0.9511 -0.3032 -0.3570
   33POPC  H101 4434   2.775   4.499   9.498 -2.6221  1.6699 -0.4534
   33POPC  C211 4435   2.790   4.669   9.633  0.0999  0.0784 -0.1209
   33POPC  H11R 4436   2.877   4.708   9.577 -1.7810  2.3255 -1.5420
   33POPC  H11S 4437   2.821   4.682   9.739  1.4254 -0.6882 -0.4041
   33POPC  C212 4438   2.659   4.728   9.594  0.3630 -0.6986  0.3345
   33POPC  H12R 4439   2.638   4.709   9.487  0.8955 -0.2261  0.1449
   33POPC  H12S 4440   2.663   4.839   9.605 -0.8116 -0.5745 -0.3938
   33POPC  C213 4441   2.536   4.660   9.660 -0.3768 -0.3224 -0.1139
   33POPC  H13R 4442   2.539   4.557   9.618 -3.2377 -0.7263  0.5223
   33POPC  H13S 4443   2.443   4.706   9.621 -1.5712 -2.7147 -0.2002
   33POPC  C214 4444   2.550   4.660   9.810  0.1273 -0.2023 -0.4278
   33POPC  H14R 4445   2.585   4.760   9.842  2.2256 -0.8779 -0.5158
   33POPC  H14S 4446   2.628   4.585   9.839 -0.9351 -1.7959 -1.5971
   33POPC  C215 4447   2.423   4.617   9.887  0.8918  0.4944  0.1675
   33POPC  H15R 4448   2.379   4.526   9.842 -1.8896  1.3229  1.0797
   33POPC  H15S 4449   2.345   4.695   9.870  0.9876  0.7927  1.0402
   33POPC  C216 4450   2.437   4.622  10.042  0.1052 -0.4841  0.4059
   33POPC  H16R 4451   2.340   4.592  10.087 -1.1070 -1.5322 -2.7027
   33POPC  H16S 4452   2.447   4.729  10.068 -1.6419  0.0573 -1.0362
   33POPC  C217 4453   2.562   4.543  10.101  0.5393 -0.6038  0.1041
   33POPC  H17R 4454   2.651   4.601  10.068  1.2722 -1.5955  0.2934
   33POPC  H17S 4455   2.559   4.437  10.065  0.3339 -0.0744 -1.4730
   33POPC  C218 4456   2.570   4.534  10.251 -0.2456  0.3027  0.3379
   33POPC  H18R 4457   2.656   4.468  10.272  0.7122  1.5971  0.5712
   33POPC  H18S 4458   2.477   4.499  10.301 -0.8852 -0.1338 -1.1269
   33POPC  H18T 4459   2.593   4.629  10.305  1.6759 -1.0384  1.9278
   33POPC   C33 4460   2.940   4.794  10.092  0.3270 -0.7519 -0.4521
   33POPC   H3X 4461   2.862   4.744  10.031  0.5775  0.6519 -1.9526
   33POPC   H3Y 4462   3.037   4.743  10.078 -0.6125 -3.3462  1.9684
   33POPC   C34 4463   2.967   4.942  10.065 -0.0038 -0.6193 -0.7049
   33POPC   H4X 4464   3.010   4.963   9.965 -0.7766  0.5987 -0.7850
   33POPC   H4Y 4465   3.046   4.978  10.133  0.7922 -0.5151 -1.6764
   33POPC   C35 4466   2.846   5.038  10.087  0.5264 -0.3602  0.2978
   33POPC   H5X 4467   2.883   5.135  10.047  0.9602 -0.1981  1.0734
   33POPC   H5Y 4468   2.810   5.058  10.190 -2.7025 -2.3145 -0.3679
   33POPC   C36 4469   2.711   4.997  10.017  0.2271 -0.1723 -0.8344
   33POPC   H6X 4470   2.643   5.079  10.047  0.0162 -0.9821  0.9703
   33POPC   H6Y 4471   2.661   4.905  10.055 -0.9812  0.6645 -0.3949
   33POPC   C37 4472   2.724   4.982   9.863 -0.2621  0.6159 -0.1668
   33POPC   H7X 4473   2.629   4.963   9.809 -0.8328  0.8878  0.7273
   33POPC   H7Y 4474   2.780   4.888   9.844  1.0544  1.3784 -0.0960
   33POPC   C38 4475   2.785   5.105   9.788  0.4620  0.3856 -0.2733
   33POPC   H8X 4476   2.894   5.088   9.773  0.7183 -0.2598  2.1990
   33POPC   H8Y 4477   2.771   5.191   9.857  0.0558 -1.5291  2.0812
   33POPC   C39 4478   2.722   5.146   9.657  0.0139 -0.2254  0.3060
   33POPC   H9X 4479   2.612   5.159   9.666 -0.0033 -0.2775  0.1776
   33POPC   H9Y 4480   2.741   5.057   9.592 -1.3101 -0.8198  0.7226
   33POPC  C310 4481   2.779   5.270   9.590 -0.6763 -0.3277 -0.0452
   33POPC  H10X 4482   2.890   5.266   9.592 -0.5548  2.1285  0.4810
   33POPC  H10Y 4483   2.753   5.366   9.639 -0.8670 -0.8012  0.7844
   33POPC  C311 4484   2.723   5.274   9.448  0.0672 -0.0438 -0.1768
   33POPC  H11X 4485   2.613   5.280   9.459 -0.2176 -0.3276 -2.5639
   33POPC  H11Y 4486   2.760   5.185   9.393  0.9381  0.8541 -1.0775
   33POPC  C312 4487   2.758   5.408   9.376  0.2550  0.5331  1.0585
   33POPC  H12X 4488   2.865   5.428   9.401  0.4958 -1.2163  1.4649
   33POPC  H12Y 4489   2.693   5.492   9.408  0.2653  1.0671 -0.3021
   33POPC  C313 4490   2.733   5.396   9.226 -0.5684  0.5723 -0.0253
   33POPC  H13X 4491   2.625   5.371   9.216 -0.7940  1.5257 -0.0497
   33POPC  H13Y 4492   2.784   5.305   9.188 -1.9067 -0.9840  1.8031
   33POPC  C314 4493   2.760   5.518   9.140  0.3775 -0.0049 -0.7066
   33POPC  H14X 4494   2.870   5.530   9.146  0.4226 -0.6569 -0.0689
   33POPC  H14Y 4495   2.723   5.613   9.183 -1.7705  0.1966 -2.8608
   33POPC  C315 4496   2.720   5.504   8.991 -0.2045 -0.7998  0.7182
   33POPC  H15X 4497   2.610   5.509   8.974 -0.0242 -1.8820 -0.8598
   33POPC  H15Y 4498   2.760   5.408   8.954 -0.0386 -0.7864  0.8644
   33POPC  C316 4499   2.766   5.616   8.895  0.5920  0.0954 -0.1690
   33POPC  H16X 4500   2.717   5.593   8.798 -0.0193  1.2810 -0.1556
   33POPC  H16Y 4501   2.876   5.611   8.885  0.7655  0.2631  1.5297
   33POPC  H16Z 4502   2.736   5.717   8.931 -1.2008 -1.1817  2.0496
   34POPC     N 4503   2.483   5.919  10.951 -0.9075 -0.1829 -0.7762
   34POPC   C12 4504   2.415   5.814  10.866 -0.2767 -0.0555  0.0663
   34POPC  H12A 4505   2.343   5.875  10.813 -0.1598 -0.0475 -0.0829
   34POPC  H12B 4506   2.358   5.743  10.924 -1.4286  0.5157 -0.3528
   34POPC   C13 4507   2.568   6.006  10.876 -0.0094  0.3683  0.1702
   34POPC  H13A 4508   2.606   6.094  10.927 -0.7446  1.6472 -1.4661
   34POPC  H13B 4509   2.653   5.944  10.849 -0.8053  0.0147 -1.5755
   34POPC  H13C 4510   2.519   6.028  10.783 -0.6653 -2.3762 -0.1673
   34POPC   C14 4511   2.375   6.005  11.007 -0.3116  0.1458 -0.3838
   34POPC  H14A 4512   2.316   6.058  10.934 -2.2578  3.5100  3.4240
   34POPC  H14B 4513   2.302   5.945  11.060 -0.4433  1.5609  1.0475
   34POPC  H14C 4514   2.418   6.070  11.082 -0.7030 -1.4943  1.3115
   34POPC   C15 4515   2.562   5.846  11.057 -0.0563 -0.2419  0.3443
   34POPC  H15A 4516   2.494   5.781  11.110  0.8041 -0.8137  0.7499
   34POPC  H15B 4517   2.611   5.920  11.118  0.8078  1.5492 -2.4186
   34POPC  H15C 4518   2.634   5.780  11.012  0.7854 -1.7992  3.8335
   34POPC   C11 4519   2.512   5.729  10.775  0.3990 -0.3857 -0.4032
   34POPC  H11A 4520   2.601   5.787  10.743 -0.0110  2.1689  2.8696
   34POPC  H11B 4521   2.449   5.711  10.684  1.6497 -0.0986 -1.3405
   34POPC     P 4522   2.483   5.475  10.810  0.4205 -0.1300  0.1818
   34POPC   O13 4523   2.338   5.482  10.811 -0.0491  0.1572  0.7686
   34POPC   O14 4524   2.551   5.376  10.893 -0.2196 -0.0609  0.5353
   34POPC   O12 4525   2.543   5.615  10.853 -0.1893  0.2196 -0.0554
   34POPC   O11 4526   2.523   5.463  10.661  0.1482 -0.0838 -0.5096
   34POPC    C1 4527   2.471   5.351  10.583  0.0100  0.1010  0.1731
   34POPC    HA 4528   2.373   5.310  10.616 -0.9459  1.9545 -0.3459
   34POPC    HB 4529   2.548   5.271  10.584 -3.4933 -3.4479  0.6990
   34POPC    C2 4530   2.446   5.395  10.435  0.1177  0.7902  1.0437
   34POPC    HS 4531   2.401   5.307  10.385  1.6651  0.7525 -0.3460
   34POPC   O21 4532   2.563   5.434  10.368  0.6365 -0.0800 -0.4938
   34POPC   C21 4533   2.638   5.334  10.329  0.3496  0.8486  0.8862
   34POPC   O22 4534   2.615   5.216  10.339 -0.0263  0.0637  0.6109
   34POPC   C22 4535   2.761   5.392  10.254  0.3740 -0.3522  0.2731
   34POPC   H2R 4536   2.850   5.326  10.256  1.0942  0.6366  1.9829
   34POPC   H2S 4537   2.783   5.485  10.311  0.0729  0.1337 -0.3923
   34POPC    C3 4538   2.357   5.520  10.430 -0.5237 -0.5232 -0.2373
   34POPC    HX 4539   2.390   5.596  10.505 -1.5993 -0.1447 -0.1459
   34POPC    HY 4540   2.256   5.491  10.466 -2.3016  2.3426 -2.7036
   34POPC   O31 4541   2.339   5.571  10.294 -0.2540 -0.5674 -0.3080
   34POPC   C31 4542   2.397   5.680  10.258  0.1619 -0.2961 -0.2958
   34POPC   O32 4543   2.495   5.736  10.315 -0.7085  0.2339 -0.0283
   34POPC   C32 4544   2.327   5.726  10.131  0.8635 -0.3462  0.4111
   34POPC   H2X 4545   2.314   5.836  10.136 -0.6196 -0.5465  1.1930
   34POPC   H2Y 4546   2.235   5.667  10.112  1.6192 -0.4613 -3.2821
   34POPC   C23 4547   2.733   5.415  10.096  0.5568  0.8942  0.1765
   34POPC   H3R 4548   2.633   5.463  10.091 -1.4939 -3.0539  1.0163
   34POPC   H3S 4549   2.716   5.321  10.038  0.1356  1.5742 -0.8038
   34POPC   C24 4550   2.847   5.496  10.029 -0.9491  0.4723 -0.1766
   34POPC   H4R 4551   2.941   5.439  10.046 -0.2884  1.6599  0.2158
   34POPC   H4S 4552   2.857   5.591  10.087 -0.7307 -0.0286  0.6153
   34POPC   C25 4553   2.833   5.513   9.874  0.0969  0.1670  0.5750
   34POPC   H5R 4554   2.750   5.574   9.832 -0.6735 -0.9081  0.5093
   34POPC   H5S 4555   2.824   5.410   9.834  0.9107  0.2241  0.2493
   34POPC   C26 4556   2.970   5.564   9.825 -0.4673 -0.0969  0.4368
   34POPC   H6R 4557   3.064   5.512   9.854  0.5175  1.2698 -0.2626
   34POPC   H6S 4558   2.978   5.659   9.882  1.9445  0.4752 -0.7792
   34POPC   C27 4559   2.981   5.603   9.676  0.0183 -0.3322 -0.5126
   34POPC   H7R 4560   2.893   5.663   9.640 -0.6650 -1.7117 -1.1721
   34POPC   H7S 4561   2.978   5.515   9.609  1.8659  0.3791 -1.5616
   34POPC   C28 4562   3.111   5.696   9.660 -0.3987 -0.1084  0.2934
   34POPC   H8R 4563   3.193   5.624   9.682 -0.0304 -0.4355 -1.9964
   34POPC   H8S 4564   3.103   5.772   9.739 -1.3351 -1.3688  1.4311
   34POPC   C29 4565   3.137   5.781   9.538 -0.3769  0.4707 -0.4222
   34POPC   H91 4566   3.054   5.848   9.513 -0.6328  0.8451  1.4107
   34POPC  C210 4567   3.252   5.779   9.458  0.4782 -0.6281  0.8281
   34POPC  H101 4568   3.252   5.858   9.382 -1.2387  2.0517  3.4833
   34POPC  C211 4569   3.374   5.697   9.479 -0.0642  0.4846  0.1064
   34POPC  H11R 4570   3.351   5.589   9.493 -0.7941  0.3949 -1.6645
   34POPC  H11S 4571   3.421   5.726   9.575  1.6070 -0.7672 -0.3080
   34POPC  C212 4572   3.465   5.718   9.351  0.2132  0.4377 -0.5050
   34POPC  H12R 4573   3.567   5.692   9.385  0.6457  1.8877 -0.6708
   34POPC  H12S 4574   3.481   5.824   9.321 -0.3750  0.6344 -0.1495
   34POPC  C213 4575   3.428   5.645   9.221 -0.1942  0.3603  0.0697
   34POPC  H13R 4576   3.318   5.653   9.213 -0.2877  2.0021  2.5321
   34POPC  H13S 4577   3.460   5.539   9.233  0.7751  0.4413 -1.5882
   34POPC  C214 4578   3.503   5.706   9.102  0.4027  0.0275  0.7624
   34POPC  H14R 4579   3.614   5.706   9.116  0.2955 -0.0526  1.6480
   34POPC  H14S 4580   3.468   5.809   9.079 -1.1818 -0.7187 -0.1935
   34POPC  C215 4581   3.488   5.624   8.972  0.1080  0.3851 -0.5231
   34POPC  H15R 4582   3.553   5.670   8.895 -1.1587 -0.3846 -2.0613
   34POPC  H15S 4583   3.382   5.639   8.944 -0.1292 -0.1756  0.0730
   34POPC  C216 4584   3.526   5.475   8.984 -0.0017  0.9248  0.3840
   34POPC  H16R 4585   3.456   5.417   9.049  0.6017 -0.9439 -0.5781
   34POPC  H16S 4586   3.626   5.463   9.031 -0.4605 -1.8832  0.7542
   34POPC  C217 4587   3.540   5.398   8.846 -0.4896 -0.2657 -0.1923
   34POPC  H17R 4588   3.628   5.448   8.800 -0.2641 -2.2944 -2.0490
   34POPC  H17S 4589   3.452   5.415   8.781 -0.1599  2.4737  0.0131
   34POPC  C218 4590   3.591   5.256   8.857  0.9154  0.8180 -0.1097
   34POPC  H18R 4591   3.546   5.210   8.948 -1.6136  1.0528 -1.2038
   34POPC  H18S 4592   3.701   5.256   8.868  1.0780  0.8119 -1.5873
   34POPC  H18T 4593   3.568   5.198   8.765 -0.2917 -0.9569  1.2856
   34POPC   C33 4594   2.422   5.702  10.005 -0.1205 -0.4206 -0.0551
   34POPC   H3X 4595   2.441   5.595   9.981  1.6938  0.1100 -1.0202
   34POPC   H3Y 4596   2.524   5.736  10.034 -0.3567 -0.1469  0.4699
   34POPC   C34 4597   2.386   5.786   9.882 -0.4543  1.0207  0.1188
   34POPC   H4X 4598   2.454   5.762   9.797  0.5903  0.7693  1.0226
   34POPC   H4Y 4599   2.408   5.891   9.911 -3.1315  1.1148  1.9564
   34POPC   C35 4600   2.241   5.772   9.826  0.3954 -0.4436 -0.2360
   34POPC   H5X 4601   2.161   5.800   9.898  0.5496 -1.6322  0.4169
   34POPC   H5Y 4602   2.220   5.664   9.809 -0.3826 -0.4076  0.4499
   34POPC   C36 4603   2.223   5.855   9.703  0.7391 -0.4350 -0.8212
   34POPC   H6X 4604   2.272   5.797   9.623 -0.3495  0.7683 -2.3843
   34POPC   H6Y 4605   2.278   5.949   9.723 -0.8356  0.7314 -1.8562
   34POPC   C37 4606   2.076   5.894   9.669  0.5389 -0.0005 -0.0079
   34POPC   H7X 4607   2.052   5.986   9.725  1.6591 -0.4425  1.2313
   34POPC   H7Y 4608   2.020   5.813   9.721  0.1670  1.8529  2.5388
   34POPC   C38 4609   2.035   5.894   9.524 -0.5563  0.1359 -0.5775
   34POPC   H8X 4610   2.105   5.951   9.460 -0.2508 -1.1268 -1.3885
   34POPC   H8Y 4611   1.933   5.935   9.509 -0.1761  1.0632 -0.6247
   34POPC   C39 4612   2.046   5.760   9.453 -0.0246 -0.1427 -0.3383
   34POPC   H9X 4613   1.949   5.712   9.481 -0.5763  0.9329 -0.4010
   34POPC   H9Y 4614   2.135   5.696   9.471  1.3836  0.8343 -3.5221
   34POPC  C310 4615   2.040   5.773   9.300 -0.4172  0.2103  0.2030
   34POPC  H10X 4616   2.065   5.679   9.246 -1.7106  0.1877 -0.3838
   34POPC  H10Y 4617   2.102   5.857   9.261  1.6786 -1.5057 -0.2525
   34POPC  C311 4618   1.897   5.806   9.249 -0.7233 -0.1643 -0.7103
   34POPC  H11X 4619   1.896   5.917   9.246  1.1630 -0.0866  1.0148
   34POPC  H11Y 4620   1.820   5.770   9.320 -0.7308 -0.3872 -0.8290
   34POPC  C312 4621   1.862   5.754   9.110 -0.4066  0.9817 -0.0236
   34POPC  H12X 4622   1.764   5.807   9.101 -0.5731  0.9013  1.2327
   34POPC  H12Y 4623   1.860   5.643   9.108  0.2876  0.9565  0.5360
   34POPC  C313 4624   1.958   5.791   9.002  0.6736  0.4828  0.5923
   34POPC  H13X 4625   2.061   5.777   9.041  0.7246  0.8592  0.6009
   34POPC  H13Y 4626   1.951   5.901   8.983 -0.1290  0.4018  0.4211
   34POPC  C314 4627   1.931   5.717   8.873  0.0889 -0.2917 -0.3775
   34POPC  H14X 4628   1.938   5.609   8.896  1.0931  0.3238  2.3326
   34POPC  H14Y 4629   2.012   5.734   8.799 -0.4554  0.8111 -0.7428
   34POPC  C315 4630   1.802   5.753   8.796 -0.9259  0.0677 -0.3599
   34POPC  H15X 4631   1.817   5.860   8.769 -0.8638  0.0585 -0.3609
   34POPC  H15Y 4632   1.720   5.763   8.871  1.4667  1.0131  2.1963
   34POPC  C316 4633   1.769   5.667   8.676  0.1030 -0.0333 -0.2847
   34POPC  H16X 4634   1.755   5.560   8.700  1.6826 -0.1825 -0.0214
   34POPC  H16Y 4635   1.853   5.674   8.604  3.3996  0.4109  3.4271
   34POPC  H16Z 4636   1.667   5.685   8.634  0.2991 -0.0752 -0.7817
   35POPC     N 4637   1.694   2.445  11.314  0.5174 -0.3655 -0.1157
   35POPC   C12 4638   1.761   2.406  11.181 -0.0821 -0.5858 -0.4298
   35POPC  H12A 4639   1.688   2.392  11.103 -1.1332 -1.1318  0.6293
   35POPC  H12B 4640   1.801   2.306  11.189 -2.8768 -1.7462 -0.2951
   35POPC   C13 4641   1.590   2.348  11.364  0.0443 -0.2905  0.5375
   35POPC  H13A 4642   1.502   2.346  11.301  1.7749  1.4223 -2.0401
   35POPC  H13B 4643   1.634   2.250  11.378 -0.3595 -0.5130  0.2573
   35POPC  H13C 4644   1.539   2.386  11.451 -2.2214 -0.9902 -0.4412
   35POPC   C14 4645   1.798   2.448  11.428 -0.5817  0.0182  0.8791
   35POPC  H14A 4646   1.769   2.517  11.505 -1.3298  0.4431  0.2330
   35POPC  H14B 4647   1.800   2.346  11.464  1.3038  0.1976  1.3051
   35POPC  H14C 4648   1.891   2.481  11.385 -0.1983  0.1538  1.8273
   35POPC   C15 4649   1.630   2.577  11.304 -0.3726 -0.5108  0.2920
   35POPC  H15A 4650   1.599   2.612  11.401 -2.1652  1.2531 -0.8959
   35POPC  H15B 4651   1.547   2.571  11.235 -2.6464  2.1065  2.7185
   35POPC  H15C 4652   1.698   2.647  11.258 -0.7261  0.2114  0.8801
   35POPC   C11 4653   1.866   2.502  11.120  0.0827 -0.2330  0.5367
   35POPC  H11A 4654   1.815   2.598  11.096  0.0842 -0.4846 -0.5253
   35POPC  H11B 4655   1.894   2.467  11.018 -0.5401 -0.0275  0.2942
   35POPC     P 4656   2.093   2.630  11.164  0.0027  0.2251 -0.1298
   35POPC   O13 4657   2.230   2.577  11.184  0.1502  0.1678  0.2325
   35POPC   O14 4658   2.059   2.746  11.243  0.2278 -0.3682 -0.4100
   35POPC   O12 4659   1.980   2.520  11.200  0.4141 -0.2270 -0.4210
   35POPC   O11 4660   2.065   2.659  11.011  0.0820 -0.1466  0.0131
   35POPC    C1 4661   2.068   2.786  10.958  0.2878  0.1367  0.3139
   35POPC    HA 4662   2.172   2.825  10.960 -0.0047  1.3060 -3.7550
   35POPC    HB 4663   2.004   2.848  11.025  1.5340  1.0097  0.7277
   35POPC    C2 4664   2.017   2.804  10.812 -0.2783 -0.5630  0.9195
   35POPC    HS 4665   1.919   2.753  10.806 -0.3295 -0.3987  0.3918
   35POPC   O21 4666   2.108   2.734  10.734 -0.5300  0.2886 -0.9530
   35POPC   C21 4667   2.065   2.703  10.610 -0.2032  0.2194 -0.3716
   35POPC   O22 4668   1.953   2.716  10.564  0.2365  0.0267 -0.5941
   35POPC   C22 4669   2.190   2.641  10.537  0.2366 -0.4289 -0.2392
   35POPC   H2R 4670   2.216   2.551  10.596 -0.0215  0.2482  0.9191
   35POPC   H2S 4671   2.277   2.710  10.534 -0.1898  0.1229 -0.0244
   35POPC    C3 4672   2.003   2.954  10.772 -0.6423 -0.8078 -0.2375
   35POPC    HX 4673   2.104   2.999  10.775 -0.1128 -1.8628 -1.5744
   35POPC    HY 4674   1.955   3.003  10.859  0.8105 -0.3679  0.3206
   35POPC   O31 4675   1.931   2.980  10.650 -0.0851  0.1651  0.4483
   35POPC   C31 4676   2.014   3.020  10.545  0.2293  0.2228  0.4003
   35POPC   O32 4677   2.128   3.053  10.558  0.4441 -0.1224  0.8136
   35POPC   C32 4678   1.931   3.022  10.421  0.3280 -0.0424 -0.0415
   35POPC   H2X 4679   1.889   3.123  10.407 -0.8550 -0.5716 -0.3518
   35POPC   H2Y 4680   1.851   2.945  10.430 -0.6489  0.6292 -2.5456
   35POPC   C23 4681   2.149   2.614  10.386  0.2447 -0.6025  0.3758
   35POPC   H3R 4682   2.167   2.705  10.325 -1.0800  0.8066  2.0301
   35POPC   H3S 4683   2.042   2.586  10.388  0.0164  0.1961  3.8560
   35POPC   C24 4684   2.239   2.504  10.327 -0.5828  1.1568 -0.0006
   35POPC   H4R 4685   2.260   2.425  10.402  1.1835  0.8888 -0.7670
   35POPC   H4S 4686   2.342   2.541  10.306 -0.7211  0.8732 -1.2304
   35POPC   C25 4687   2.171   2.431  10.217  0.9745  0.1361 -0.1853
   35POPC   H5R 4688   2.098   2.355  10.249  0.4105  0.6012 -0.3614
   35POPC   H5S 4689   2.248   2.363  10.174 -0.8454 -0.3979 -2.6654
   35POPC   C26 4690   2.108   2.526  10.121  0.2315 -0.3507  0.6105
   35POPC   H6R 4691   2.186   2.593  10.079  0.0258 -0.4985 -0.0233
   35POPC   H6S 4692   2.033   2.585  10.177  1.3784  1.7785 -0.0501
   35POPC   C27 4693   2.036   2.455  10.001  0.6857 -0.0494 -0.1157
   35POPC   H7R 4694   1.969   2.374  10.038  3.9800 -2.3163  1.1455
   35POPC   H7S 4695   2.111   2.414   9.930  0.8611  0.9180 -0.4911
   35POPC   C28 4696   1.961   2.562   9.921 -0.0392  1.0455 -0.0120
   35POPC   H8R 4697   1.921   2.637   9.993 -0.0622 -1.1679  2.3298
   35POPC   H8S 4698   1.872   2.510   9.881 -0.6161  0.5405  1.9071
   35POPC   C29 4699   2.052   2.637   9.823  0.1940  0.1184 -0.4634
   35POPC   H91 4700   2.141   2.680   9.871  0.2071  0.3017 -0.6542
   35POPC  C210 4701   2.042   2.645   9.686 -0.2002  0.3644  0.2668
   35POPC  H101 4702   2.114   2.699   9.622 -0.9450 -1.7386 -2.3906
   35POPC  C211 4703   1.926   2.587   9.612 -0.4085  0.3717  0.4258
   35POPC  H11R 4704   1.853   2.664   9.577  1.1527  1.4168 -0.5941
   35POPC  H11S 4705   1.870   2.507   9.664  1.0478 -0.4513  0.7597
   35POPC  C212 4706   1.979   2.513   9.489  0.2488 -0.1266 -0.2271
   35POPC  H12R 4707   1.897   2.447   9.453 -0.4084  0.1172  0.8031
   35POPC  H12S 4708   2.071   2.455   9.512 -2.1369 -2.9577  2.5877
   35POPC  C213 4709   1.999   2.617   9.377  0.5278  0.7876  0.0239
   35POPC  H13R 4710   2.076   2.689   9.412 -0.4552  1.5281  0.7234
   35POPC  H13S 4711   1.907   2.681   9.378 -1.1388 -1.5548 -0.3057
   35POPC  C214 4712   2.017   2.569   9.237 -0.2047  0.3306  0.0157
   35POPC  H14R 4713   1.931   2.510   9.201  0.6176 -0.9373  0.1121
   35POPC  H14S 4714   2.107   2.505   9.235  0.9701  1.9536 -0.9755
   35POPC  C215 4715   2.043   2.682   9.132 -0.5405  0.6941  0.0879
   35POPC  H15R 4716   2.133   2.741   9.161 -0.2679  0.5503 -0.4751
   35POPC  H15S 4717   1.949   2.742   9.130 -0.5297  0.6649 -1.4447
   35POPC  C216 4718   2.059   2.628   8.992 -0.2356  0.2905 -0.8078
   35POPC  H16R 4719   1.972   2.562   8.969  1.2070 -2.2500  0.7908
   35POPC  H16S 4720   2.154   2.570   8.992 -0.9912 -1.0672  2.4662
   35POPC  C217 4721   2.070   2.743   8.881 -0.0488  0.3142 -0.1364
   35POPC  H17R 4722   1.984   2.811   8.902 -1.9747 -2.1967  0.2306
   35POPC  H17S 4723   2.086   2.697   8.782  0.1607 -1.8814  0.9011
   35POPC  C218 4724   2.195   2.827   8.899  0.2054 -0.1719  0.2781
   35POPC  H18R 4725   2.281   2.760   8.875 -0.9174 -0.8375 -2.0244
   35POPC  H18S 4726   2.207   2.860   9.004  1.8195 -1.2937  0.4742
   35POPC  H18T 4727   2.180   2.915   8.833 -1.5923  1.2034  2.4412
   35POPC   C33 4728   2.006   2.976  10.285  0.3879 -0.1314 -0.1980
   35POPC   H3X 4729   2.074   2.889  10.293  0.3167 -0.5164 -3.2444
   35POPC   H3Y 4730   2.085   3.053  10.267  1.1612 -0.4047  1.9184
   35POPC   C34 4731   1.912   2.968  10.166 -0.1485  0.9597  0.3135
   35POPC   H4X 4732   1.837   3.050  10.168  0.1645  1.3024 -1.4464
   35POPC   H4Y 4733   1.849   2.877  10.167 -0.2073  0.9961  1.2359
   35POPC   C35 4734   1.989   2.971  10.035  0.7447 -0.2108  0.2062
   35POPC   H5X 4735   2.049   2.881  10.010  2.0826  0.6103  0.3611
   35POPC   H5Y 4736   2.060   3.056  10.037 -0.0203  0.4876 -1.7960
   35POPC   C36 4737   1.900   2.987   9.911  0.3428 -0.2977 -0.0328
   35POPC   H6X 4738   1.823   3.064   9.934  0.9228  0.0855  0.6499
   35POPC   H6Y 4739   1.847   2.892   9.891  1.9125 -0.8653 -1.6641
   35POPC   C37 4740   1.984   3.019   9.786  0.0269 -0.6183 -0.0875
   35POPC   H7X 4741   2.068   2.947   9.789  1.0417  0.5590  0.3131
   35POPC   H7Y 4742   2.026   3.122   9.798 -3.3976  0.9285 -0.8022
   35POPC   C38 4743   1.906   3.004   9.655  0.3530  0.0976  0.0122
   35POPC   H8X 4744   1.808   3.053   9.672 -0.2667 -0.9910 -0.3906
   35POPC   H8Y 4745   1.889   2.897   9.635  1.3315  0.1540 -1.2017
   35POPC   C39 4746   1.972   3.048   9.520  0.4981 -0.4556 -0.0896
   35POPC   H9X 4747   2.069   2.995   9.511  1.8797  1.7672  1.1144
   35POPC   H9Y 4748   1.997   3.155   9.535 -1.4847  0.1056 -0.7514
   35POPC  C310 4749   1.888   3.017   9.402  0.0416 -0.2713  1.2247
   35POPC  H10X 4750   1.789   3.065   9.412  0.3109  0.4975  0.2819
   35POPC  H10Y 4751   1.867   2.908   9.393  0.9606 -0.3689  0.0040
   35POPC  C311 4752   1.965   3.049   9.273  0.4012 -0.0112  0.1233
   35POPC  H11X 4753   2.048   2.978   9.251 -0.3411 -0.3188 -1.7667
   35POPC  H11Y 4754   2.008   3.151   9.281  1.2048 -0.4061  0.8357
   35POPC  C312 4755   1.866   3.051   9.149  0.1293 -0.1283 -0.4885
   35POPC  H12X 4756   1.791   3.132   9.164 -1.1279 -1.5799  1.0977
   35POPC  H12Y 4757   1.822   2.950   9.140 -1.0362  0.2828  0.4881
   35POPC  C313 4758   1.934   3.096   9.021 -0.1320  0.9059  0.2938
   35POPC  H13X 4759   2.023   3.029   9.016 -0.5773  0.3835 -1.1562
   35POPC  H13Y 4760   1.967   3.202   9.025  0.5417  0.9025 -3.0306
   35POPC  C314 4761   1.848   3.078   8.897  0.3460  0.1844 -0.4323
   35POPC  H14X 4762   1.744   3.114   8.911  0.5027  0.0504  1.1636
   35POPC  H14Y 4763   1.839   2.968   8.882  2.0545  0.0246 -0.3478
   35POPC  C315 4764   1.907   3.132   8.769  0.9655 -0.3545 -0.5702
   35POPC  H15X 4765   1.849   3.097   8.681 -0.4282 -0.4108  0.3569
   35POPC  H15Y 4766   2.005   3.082   8.756  1.7891  1.2854 -0.7861
   35POPC  C316 4767   1.931   3.287   8.761 -0.6443 -0.2824 -0.1162
   35POPC  H16X 4768   1.946   3.312   8.654  0.1006  0.7328  0.2127
   35POPC  H16Y 4769   2.025   3.319   8.812 -0.6208 -1.6002  0.6922
   35POPC  H16Z 4770   1.842   3.334   8.807  0.3508  0.6571  0.8946
   36POPC     N 4771   1.899   0.604  11.050 -0.6107  0.4366  0.2027
   36POPC   C12 4772   1.919   0.721  10.950  0.0642 -0.1960 -0.9099
   36POPC  H12A 4773   1.884   0.687  10.854  1.1198  1.3364 -1.8579
   36POPC  H12B 4774   2.023   0.747  10.943 -0.2814  1.5061 -0.0077
   36POPC   C13 4775   1.752   0.579  11.081 -0.6539  0.2482 -0.2678
   36POPC  H13A 4776   1.689   0.641  11.018 -0.4428  2.1289  1.2992
   36POPC  H13B 4777   1.736   0.477  11.051  1.9453  0.2818 -1.9896
   36POPC  H13C 4778   1.724   0.593  11.184 -0.0488  2.4331 -0.3721
   36POPC   C14 4779   1.954   0.472  10.990 -0.1505 -0.1596 -0.1594
   36POPC  H14A 4780   2.061   0.485  10.976  0.1379 -2.4228 -0.2817
   36POPC  H14B 4781   1.945   0.389  11.059  0.4786  1.1450  1.5105
   36POPC  H14C 4782   1.903   0.427  10.906 -1.0045  1.4863 -0.5458
   36POPC   C15 4783   1.975   0.641  11.173  0.2652  0.3055 -0.2856
   36POPC  H15A 4784   2.079   0.671  11.170 -0.2697  2.2175 -0.4411
   36POPC  H15B 4785   1.971   0.562  11.246  0.1965  1.6004  1.1376
   36POPC  H15C 4786   1.920   0.723  11.218 -1.5406 -0.5260 -0.9210
   36POPC   C11 4787   1.860   0.860  10.988 -0.2551 -0.3800  0.3770
   36POPC  H11A 4788   1.893   0.931  10.909  0.6044  0.1729  1.2217
   36POPC  H11B 4789   1.911   0.893  11.081  3.9218  0.2410 -1.9985
   36POPC     P 4790   1.627   0.867  10.883  0.0352 -0.2356  0.0886
   36POPC   O13 4791   1.513   0.960  10.924  0.1257  0.1367  0.5346
   36POPC   O14 4792   1.591   0.724  10.851 -0.7568 -0.6505 -0.4855
   36POPC   O12 4793   1.726   0.870  11.003  0.3749  0.5884  0.3656
   36POPC   O11 4794   1.709   0.932  10.765  0.2427 -0.1531  0.0574
   36POPC    C1 4795   1.703   0.887  10.629 -0.0123 -0.9934 -0.6249
   36POPC    HA 4796   1.630   0.805  10.613 -0.3500 -0.9479  0.6461
   36POPC    HB 4797   1.805   0.850  10.606 -0.6582 -1.5502 -2.7194
   36POPC    C2 4798   1.664   1.001  10.530 -0.3958  0.6915 -0.2486
   36POPC    HS 4799   1.635   0.959  10.432  1.4288  0.1454 -0.5697
   36POPC   O21 4800   1.775   1.097  10.512  0.0875  0.2082  0.1213
   36POPC   C21 4801   1.885   1.060  10.446 -0.3703 -0.3522 -0.0226
   36POPC   O22 4802   1.901   0.946  10.399 -0.4524  0.4007  0.8572
   36POPC   C22 4803   1.995   1.161  10.439 -0.2900  0.2318 -0.3417
   36POPC   H2R 4804   2.093   1.114  10.461 -0.1908  1.2483  1.4864
   36POPC   H2S 4805   1.982   1.244  10.511  2.3362  1.1116 -0.8433
   36POPC    C3 4806   1.533   1.080  10.557  1.3107 -0.7321  0.1740
   36POPC    HX 4807   1.519   1.115  10.661 -0.0461 -3.1607  0.8316
   36POPC    HY 4808   1.441   1.018  10.547 -0.0507  1.5716 -2.5827
   36POPC   O31 4809   1.520   1.183  10.455 -0.0380  0.1399  0.1597
   36POPC   C31 4810   1.557   1.298  10.498 -0.8221  0.2077  0.2350
   36POPC   O32 4811   1.592   1.325  10.615 -0.1764 -0.0677  0.2833
   36POPC   C32 4812   1.547   1.404  10.389  0.0494 -0.5130  0.2490
   36POPC   H2X 4813   1.440   1.406  10.362 -0.2012 -2.0119  1.1154
   36POPC   H2Y 4814   1.594   1.357  10.299 -1.4433 -4.0806  1.2412
   36POPC   C23 4815   2.009   1.208  10.292 -0.3846 -0.1975 -0.3358
   36POPC   H3R 4816   2.031   1.123  10.224  2.2108 -0.7381  1.1147
   36POPC   H3S 4817   2.096   1.275  10.280 -1.3154  1.4092  1.5300
   36POPC   C24 4818   1.884   1.281  10.244  0.8351 -0.1949 -0.4291
   36POPC   H4R 4819   1.868   1.374  10.301  1.4664 -0.6475  0.4933
   36POPC   H4S 4820   1.791   1.232  10.280  0.3508  0.7240 -0.4259
   36POPC   C25 4821   1.874   1.285  10.091  0.3807 -0.5862  0.1154
   36POPC   H5R 4822   1.916   1.193  10.045 -2.2030  0.0303 -3.7253
   36POPC   H5S 4823   1.930   1.373  10.051 -0.7628  0.7466  1.3960
   36POPC   C26 4824   1.733   1.308  10.040  0.3242 -0.0184  0.3785
   36POPC   H6R 4825   1.683   1.397  10.084  1.8666 -0.0265  2.2637
   36POPC   H6S 4826   1.673   1.219  10.072 -0.6747  0.2130 -0.8258
   36POPC   C27 4827   1.739   1.324   9.890 -0.7281  0.9423 -0.0788
   36POPC   H7R 4828   1.795   1.237   9.848  1.4575  0.7270  3.1085
   36POPC   H7S 4829   1.804   1.413   9.876 -0.5555  0.6359 -1.2505
   36POPC   C28 4830   1.610   1.349   9.825  0.1472  0.2883  0.0255
   36POPC   H8R 4831   1.559   1.436   9.871 -2.8567 -1.0844 -0.5872
   36POPC   H8S 4832   1.541   1.266   9.850 -4.0277  3.1380 -1.3254
   36POPC   C29 4833   1.632   1.367   9.679  0.3683  0.5051 -0.5853
   36POPC   H91 4834   1.691   1.455   9.650  0.9548  1.7390  4.0894
   36POPC  C210 4835   1.588   1.292   9.579  0.0374  0.3344  0.6857
   36POPC  H101 4836   1.631   1.314   9.481 -0.3671  0.7286  0.5949
   36POPC  C211 4837   1.492   1.175   9.588 -0.4158 -0.4375  0.1762
   36POPC  H11R 4838   1.431   1.185   9.680 -2.0851 -0.2345 -0.9352
   36POPC  H11S 4839   1.548   1.080   9.602  1.6139  0.4350 -1.6857
   36POPC  C212 4840   1.411   1.146   9.459  0.4636 -0.2751  0.0809
   36POPC  H12R 4841   1.485   1.139   9.376  1.0629 -0.1280  0.6033
   36POPC  H12S 4842   1.345   1.234   9.441  2.0318  0.7405 -0.8352
   36POPC  C213 4843   1.344   1.010   9.468 -0.0371  0.8746 -0.5334
   36POPC  H13R 4844   1.324   0.995   9.576 -2.8959  0.8634 -1.0463
   36POPC  H13S 4845   1.414   0.931   9.433 -0.8676 -2.4160  4.6855
   36POPC  C214 4846   1.215   1.001   9.394 -0.1653 -0.0356 -0.2071
   36POPC  H14R 4847   1.140   1.076   9.427 -0.7285 -0.4757 -0.4852
   36POPC  H14S 4848   1.173   0.900   9.409  1.3854 -0.8011 -0.9112
   36POPC  C215 4849   1.240   1.032   9.247 -0.5945  0.3865 -0.1694
   36POPC  H15R 4850   1.306   1.119   9.229  0.7188 -0.9482 -2.0960
   36POPC  H15S 4851   1.141   1.053   9.200 -1.2494 -0.5602  0.7594
   36POPC  C216 4852   1.286   0.903   9.174  0.1728 -0.7163  0.5024
   36POPC  H16R 4853   1.222   0.813   9.186  0.9999 -1.5901 -1.4823
   36POPC  H16S 4854   1.376   0.879   9.235 -0.3659  1.7563  2.3790
   36POPC  C217 4855   1.320   0.929   9.028  0.5508 -0.4232 -0.0714
   36POPC  H17R 4856   1.390   1.015   9.017 -1.9009  1.5053 -1.1730
   36POPC  H17S 4857   1.229   0.952   8.969  0.6209  1.3637  0.4861
   36POPC  C218 4858   1.376   0.812   8.947  0.1082  0.5421 -0.4098
   36POPC  H18R 4859   1.405   0.844   8.845  2.4791  2.2007  0.7295
   36POPC  H18S 4860   1.296   0.734   8.944  0.0222  0.5253  1.5647
   36POPC  H18T 4861   1.467   0.772   8.997  0.5401  0.6579 -1.1033
   36POPC   C33 4862   1.591   1.546  10.407  0.7042  0.0640 -0.2949
   36POPC   H3X 4863   1.696   1.549  10.443  1.5280  0.6796 -2.6317
   36POPC   H3Y 4864   1.530   1.589  10.488  1.2027  1.3101 -0.5709
   36POPC   C34 4865   1.574   1.632  10.283 -0.0945 -0.0676  0.4770
   36POPC   H4X 4866   1.633   1.589  10.199 -1.9037 -1.3672 -0.1647
   36POPC   H4Y 4867   1.632   1.724  10.306 -0.2422 -0.4523  2.5191
   36POPC   C35 4868   1.427   1.664  10.236 -0.2478 -0.0717  0.3998
   36POPC   H5X 4869   1.388   1.708  10.330 -2.3885  1.2899 -1.0926
   36POPC   H5Y 4870   1.364   1.574  10.222  0.7989 -0.7852  0.2067
   36POPC   C36 4871   1.419   1.758  10.122 -0.6283 -0.2701  0.0412
   36POPC   H6X 4872   1.486   1.844  10.145 -0.1222 -0.5543 -0.3719
   36POPC   H6Y 4873   1.312   1.789  10.112 -0.9339 -1.2808  0.1108
   36POPC   C37 4874   1.459   1.683   9.992 -0.5545 -0.1693 -0.3955
   36POPC   H7X 4875   1.404   1.589   9.974  0.8341 -0.9480 -0.6045
   36POPC   H7Y 4876   1.564   1.650  10.009  0.3239  1.8335 -1.7701
   36POPC   C38 4877   1.469   1.771   9.871 -0.4686  0.5401 -0.2325
   36POPC   H8X 4878   1.551   1.842   9.898 -2.6706  2.6983  0.9888
   36POPC   H8Y 4879   1.378   1.832   9.853 -0.8068  0.7658  2.1250
   36POPC   C39 4880   1.496   1.697   9.734  0.0420  0.1461 -0.2140
   36POPC   H9X 4881   1.425   1.613   9.716  0.3903 -0.1551 -0.1981
   36POPC   H9Y 4882   1.598   1.653   9.736 -0.5706 -1.2895  0.4079
   36POPC  C310 4883   1.493   1.791   9.618  0.7524 -0.4374 -0.2642
   36POPC  H10X 4884   1.554   1.881   9.641  1.0053 -0.9848  1.2327
   36POPC  H10Y 4885   1.387   1.820   9.603  0.8848  0.3389  0.2653
   36POPC  C311 4886   1.547   1.720   9.488 -0.2815 -0.1737 -0.3174
   36POPC  H11X 4887   1.474   1.646   9.448 -1.4425  0.8076 -0.0436
   36POPC  H11Y 4888   1.640   1.662   9.509 -0.5334  0.0898  1.5507
   36POPC  C312 4889   1.569   1.828   9.376 -0.2735 -0.8035 -0.0539
   36POPC  H12X 4890   1.654   1.888   9.415  0.6860 -1.2525 -1.4131
   36POPC  H12Y 4891   1.475   1.887   9.375  0.5320  0.5250 -2.4277
   36POPC  C313 4892   1.596   1.770   9.234 -0.3469  0.2660 -0.0767
   36POPC  H13X 4893   1.519   1.692   9.220  1.0317 -1.1410 -0.0200
   36POPC  H13Y 4894   1.696   1.724   9.219  0.3232  1.3334  0.9477
   36POPC  C314 4895   1.574   1.886   9.134  0.6690 -0.2301 -0.4031
   36POPC  H14X 4896   1.648   1.963   9.163 -1.6495  0.6532  3.4837
   36POPC  H14Y 4897   1.479   1.938   9.158  1.2276  0.1487  1.0552
   36POPC  C315 4898   1.573   1.833   8.985  0.1114  1.2292  0.4053
   36POPC  H15X 4899   1.479   1.775   8.978  0.3686  0.7713  0.6538
   36POPC  H15Y 4900   1.658   1.767   8.956 -1.7657 -1.4778  0.8698
   36POPC  C316 4901   1.556   1.955   8.887 -0.6691 -0.2106 -0.7385
   36POPC  H16X 4902   1.452   1.990   8.903  0.7977  3.5422  1.2896
   36POPC  H16Y 4903   1.564   1.920   8.782 -0.5342 -0.4709 -0.6390
   36POPC  H16Z 4904   1.631   2.032   8.914 -0.9593 -0.6488  1.3905
   37POPC     N 4905   1.228   3.884   6.913  0.3585  0.5807 -0.6183
   37POPC   C12 4906   1.237   3.732   6.933  0.0916  0.0810 -0.4386
   37POPC  H12A 4907   1.177   3.701   7.018  1.0662 -3.4305 -0.9450
   37POPC  H12B 4908   1.342   3.721   6.955  0.2344  0.7519 -0.7566
   37POPC   C13 4909   1.087   3.922   6.898  0.1426 -0.0789  0.1363
   37POPC  H13A 4910   1.043   3.864   6.818 -1.0945 -1.6651  1.9274
   37POPC  H13B 4911   1.033   3.898   6.988  1.0168 -3.0997 -0.0887
   37POPC  H13C 4912   1.083   4.027   6.874 -1.6622 -0.5520 -1.7829
   37POPC   C14 4913   1.277   3.961   7.037 -0.2909  0.1795 -1.0343
   37POPC  H14A 4914   1.383   3.951   7.052 -0.0388  2.3134 -1.2173
   37POPC  H14B 4915   1.242   4.063   7.031  1.1363  0.9389  2.3447
   37POPC  H14C 4916   1.246   3.920   7.132 -1.9561  1.2559 -1.0916
   37POPC   C15 4917   1.297   3.932   6.792  0.3547  0.3509  0.8832
   37POPC  H15A 4918   1.278   3.867   6.708 -2.2367  1.5942  0.4645
   37POPC  H15B 4919   1.404   3.941   6.802  0.3159  2.3335 -0.2830
   37POPC  H15C 4920   1.271   4.034   6.767  1.0520  0.7827  1.9101
   37POPC   C11 4921   1.220   3.639   6.803  0.2347 -0.2974 -0.3914
   37POPC  H11A 4922   1.218   3.530   6.827 -2.4366  0.2154  2.0559
   37POPC  H11B 4923   1.307   3.652   6.735  1.9667 -1.1966  1.5647
   37POPC     P 4924   1.009   3.575   6.647  0.0835 -0.2856  0.2882
   37POPC   O13 4925   1.103   3.525   6.537 -0.0660  0.1874  0.0012
   37POPC   O14 4926   0.881   3.647   6.612 -0.2315 -0.2301  0.0678
   37POPC   O12 4927   1.093   3.672   6.739  0.1242 -0.0199 -1.1492
   37POPC   O11 4928   0.965   3.455   6.742 -0.3664 -0.3456 -0.0300
   37POPC    C1 4929   0.863   3.466   6.842  0.4339 -0.4027 -0.1735
   37POPC    HA 4930   0.812   3.370   6.867  0.5974 -0.3131  0.5252
   37POPC    HB 4931   0.784   3.538   6.814  0.5737  0.4631  1.6025
   37POPC    C2 4932   0.924   3.514   6.972 -0.7084  0.6347  0.0166
   37POPC    HS 4933   0.982   3.608   6.961  2.2523 -1.0777  0.4536
   37POPC   O21 4934   0.999   3.406   7.032  0.5663  0.0459  0.9508
   37POPC   C21 4935   1.106   3.433   7.104  0.1116 -0.4978  0.3562
   37POPC   O22 4936   1.139   3.545   7.138  0.6902 -0.0445 -0.0487
   37POPC   C22 4937   1.170   3.304   7.150 -0.0621  0.1333 -0.3420
   37POPC   H2R 4938   1.263   3.334   7.203 -1.2954 -1.2453  2.7250
   37POPC   H2S 4939   1.201   3.240   7.064 -0.9012 -1.5986  0.6189
   37POPC    C3 4940   0.809   3.546   7.067  0.2150  0.0237 -0.4964
   37POPC    HX 4941   0.763   3.446   7.083  0.0906  0.2357  0.4828
   37POPC    HY 4942   0.730   3.613   7.026  0.8191 -0.0598 -1.8370
   37POPC   O31 4943   0.852   3.580   7.200  0.3717  0.1204 -0.5181
   37POPC   C31 4944   0.910   3.699   7.224  0.5108 -0.3721  0.0372
   37POPC   O32 4945   0.932   3.785   7.142 -0.0354  0.0711  0.4963
   37POPC   C32 4946   0.943   3.705   7.369 -0.5082 -0.1463  0.2809
   37POPC   H2X 4947   0.956   3.600   7.404 -1.8651  0.1354  1.6452
   37POPC   H2Y 4948   0.851   3.743   7.416 -0.1122  0.0802  0.8758
   37POPC   C23 4949   1.083   3.225   7.254 -0.0213 -0.0938  0.4260
   37POPC   H3R 4950   1.123   3.125   7.279  0.2433  0.1179  0.8397
   37POPC   H3S 4951   0.986   3.199   7.206 -0.6748  1.5584  0.7923
   37POPC   C24 4952   1.046   3.293   7.386 -0.3608  0.3988 -0.5875
   37POPC   H4R 4953   0.969   3.369   7.362  0.4701  0.4265 -3.2601
   37POPC   H4S 4954   1.138   3.335   7.433 -1.0032  2.0598 -0.8132
   37POPC   C25 4955   0.976   3.185   7.483 -0.5053 -0.9798 -0.4239
   37POPC   H5R 4956   1.051   3.110   7.517 -0.5567 -0.3808  1.0429
   37POPC   H5S 4957   0.896   3.133   7.426  0.0090  1.3030 -3.3494
   37POPC   C26 4958   0.900   3.248   7.602  0.8538 -0.0214 -0.2620
   37POPC   H6R 4959   0.821   3.177   7.633  1.2121  0.5730  2.0747
   37POPC   H6S 4960   0.856   3.344   7.566  0.5031 -0.6800 -1.6262
   37POPC   C27 4961   1.000   3.272   7.713  0.8695 -0.2263 -0.5827
   37POPC   H7R 4962   1.088   3.329   7.675  0.8756  1.1107  1.3279
   37POPC   H7S 4963   1.028   3.169   7.741 -0.9804 -1.0103 -1.5207
   37POPC   C28 4964   0.932   3.337   7.830 -0.1826 -0.3887  0.5619
   37POPC   H8R 4965   0.829   3.297   7.845 -0.8476  1.4817  1.1824
   37POPC   H8S 4966   0.915   3.444   7.805  0.8918 -0.0011  1.4662
   37POPC   C29 4967   1.002   3.317   7.961 -0.2405 -0.5226 -0.2306
   37POPC   H91 4968   0.985   3.211   7.986 -0.7396 -0.6844 -1.2338
   37POPC  C210 4969   1.063   3.400   8.042 -0.2465  0.3918  0.2751
   37POPC  H101 4970   1.107   3.357   8.133 -0.0748 -2.5670 -1.1307
   37POPC  C211 4971   1.079   3.543   8.014  0.3749 -0.3773  0.6412
   37POPC  H11R 4972   1.113   3.555   7.909  0.3501  0.8489  0.7688
   37POPC  H11S 4973   1.162   3.591   8.071  1.6298  0.6343 -1.9568
   37POPC  C212 4974   0.947   3.609   8.059 -0.2594  0.1319 -0.4729
   37POPC  H12R 4975   0.938   3.604   8.170 -0.4836  1.4205 -0.4246
   37POPC  H12S 4976   0.855   3.564   8.016 -1.3850 -0.6846  2.6060
   37POPC  C213 4977   0.942   3.762   8.032  0.0541  0.5467  0.2807
   37POPC  H13R 4978   1.017   3.806   8.101 -1.5025  1.2624  1.5312
   37POPC  H13S 4979   0.845   3.803   8.065  1.0854  2.6799  0.7002
   37POPC  C214 4980   0.983   3.816   7.892 -0.0320  0.6401  0.3599
   37POPC  H14R 4981   0.918   3.762   7.819  0.7351 -0.4847  0.4953
   37POPC  H14S 4982   1.091   3.799   7.874 -0.5612  0.6022 -3.2531
   37POPC  C215 4983   0.954   3.967   7.882  0.1259 -0.1499  0.6346
   37POPC  H15R 4984   1.019   4.020   7.955 -0.0372  0.6081  0.2422
   37POPC  H15S 4985   0.850   3.986   7.915  0.3514  1.0267  0.6963
   37POPC  C216 4986   0.984   4.015   7.739  0.0704 -0.6267  0.4085
   37POPC  H16R 4987   0.920   3.957   7.669 -1.5964 -0.3915  1.7139
   37POPC  H16S 4988   1.090   3.985   7.730  0.7207  1.5190  0.7525
   37POPC  C217 4989   0.982   4.170   7.724  0.0828  0.2108  0.2026
   37POPC  H17R 4990   1.031   4.200   7.629 -1.6437  0.3310 -0.6575
   37POPC  H17S 4991   1.026   4.209   7.819 -0.3353  2.2077 -0.4051
   37POPC  C218 4992   0.840   4.230   7.707  0.3079 -0.2162  0.2175
   37POPC  H18R 4993   0.773   4.177   7.778  0.2444 -0.7866 -0.2598
   37POPC  H18S 4994   0.799   4.217   7.605  1.3593 -0.2315 -0.2092
   37POPC  H18T 4995   0.850   4.339   7.729  0.2552 -0.2170  0.2459
   37POPC   C33 4996   1.070   3.795   7.400 -0.2877 -0.3603  0.7783
   37POPC   H3X 4997   1.158   3.753   7.346 -0.3562 -2.2779  2.1366
   37POPC   H3Y 4998   1.098   3.788   7.507 -0.0136  1.3518  0.8288
   37POPC   C34 4999   1.049   3.944   7.369  0.4443 -0.1294  0.1900
   37POPC   H4X 5000   0.969   3.975   7.440 -2.3498 -1.3120 -2.3454
   37POPC   H4Y 5001   1.039   3.965   7.261 -0.3292  1.4439  0.5520
   37POPC   C35 5002   1.172   4.035   7.405  0.0559 -0.0758  0.0114
   37POPC   H5X 5003   1.265   3.992   7.362 -0.6484 -1.5401 -0.0702
   37POPC   H5Y 5004   1.182   4.015   7.513  0.8090  0.7668  0.0958
   37POPC   C36 5005   1.147   4.180   7.369  0.2342 -0.0549  0.5371
   37POPC   H6X 5006   1.055   4.212   7.424 -1.9585 -0.7849 -2.5447
   37POPC   H6Y 5007   1.129   4.191   7.260  2.5096  2.8578  0.4000
   37POPC   C37 5008   1.259   4.279   7.397 -0.0810 -0.2364  0.2831
   37POPC   H7X 5009   1.354   4.259   7.343 -0.2314 -1.3546  0.4206
   37POPC   H7Y 5010   1.278   4.261   7.505  0.3169 -1.0619  0.0797
   37POPC   C38 5011   1.224   4.425   7.378 -0.4233  1.1882  0.9760
   37POPC   H8X 5012   1.115   4.430   7.356 -0.8989  0.1998  2.9571
   37POPC   H8Y 5013   1.276   4.457   7.285  0.4646  0.5983  1.2588
   37POPC   C39 5014   1.249   4.520   7.489  0.4398  0.3238 -0.0418
   37POPC   H9X 5015   1.253   4.623   7.450  1.7949 -0.0863 -1.0249
   37POPC   H9Y 5016   1.348   4.500   7.537  0.6215  0.6481 -0.2822
   37POPC  C310 5017   1.151   4.518   7.597  0.2139 -0.1553  0.8665
   37POPC  H10X 5018   1.123   4.413   7.617  0.9858 -0.3313  1.0284
   37POPC  H10Y 5019   1.059   4.576   7.574  0.8767 -0.7822 -4.0270
   37POPC  C311 5020   1.206   4.575   7.732 -0.5009  0.1164  0.1740
   37POPC  H11X 5021   1.294   4.510   7.755 -0.5724  0.3901  1.2126
   37POPC  H11Y 5022   1.131   4.552   7.810 -1.0200 -0.0985 -0.3902
   37POPC  C312 5023   1.218   4.722   7.729  0.5555  0.1210  0.8036
   37POPC  H12X 5024   1.121   4.772   7.711  0.6062  0.3299  1.0873
   37POPC  H12Y 5025   1.299   4.763   7.665 -2.1747  0.8444 -2.2765
   37POPC  C313 5026   1.262   4.775   7.871  0.0422 -0.4165 -0.8471
   37POPC  H13X 5027   1.235   4.700   7.949  0.8266  0.4709  0.2798
   37POPC  H13Y 5028   1.212   4.867   7.907  1.0177 -0.6875  1.2961
   37POPC  C314 5029   1.413   4.785   7.897 -0.4151  0.8726  0.0751
   37POPC  H14X 5030   1.445   4.878   7.845 -1.0713 -0.2484 -2.4088
   37POPC  H14Y 5031   1.472   4.708   7.843 -1.0018  0.2548  0.3126
   37POPC  C315 5032   1.455   4.795   8.042  0.2964 -0.2247  0.0105
   37POPC  H15X 5033   1.425   4.710   8.107 -1.5882  0.9320  0.6888
   37POPC  H15Y 5034   1.407   4.883   8.090  0.8254  1.0259 -1.6745
   37POPC  C316 5035   1.602   4.815   8.058 -0.5038 -0.0138 -0.3212
   37POPC  H16X 5036   1.639   4.791   8.160 -0.4019  0.6122 -0.2063
   37POPC  H16Y 5037   1.638   4.917   8.032 -1.0724  0.1629 -0.4066
   37POPC  H16Z 5038   1.651   4.747   7.985  1.1340  1.7599 -0.9290
   38POPC     N 5039   3.262   6.783   6.071  0.4575  0.1342 -0.0335
   38POPC   C12 5040   3.281   6.869   6.199  0.7477  0.8626  0.3826
   38POPC  H12A 5041   3.385   6.863   6.228  0.5495 -0.5321  0.8496
   38POPC  H12B 5042   3.242   6.813   6.282  0.9361  0.3668  0.1369
   38POPC   C13 5043   3.120   6.773   6.036  0.1887 -0.0776 -0.5247
   38POPC  H13A 5044   3.073   6.864   6.002 -1.2160 -0.8489 -0.6834
   38POPC  H13B 5045   3.110   6.695   5.963  0.8262 -1.5012  0.8765
   38POPC  H13C 5046   3.070   6.756   6.130 -1.2690 -1.5836 -1.5533
   38POPC   C14 5047   3.341   6.828   5.957  0.6024 -0.6840  0.2189
   38POPC  H14A 5048   3.312   6.928   5.929 -3.5799 -1.2510  2.2540
   38POPC  H14B 5049   3.448   6.815   5.971  1.2237  1.1212 -2.3033
   38POPC  H14C 5050   3.314   6.771   5.869 -0.6198  0.3560 -0.0969
   38POPC   C15 5051   3.296   6.638   6.097  0.1361  0.3408  0.4593
   38POPC  H15A 5052   3.232   6.591   6.170  1.8439 -1.4662  0.8355
   38POPC  H15B 5053   3.399   6.622   6.127  0.0265  2.0473  1.8021
   38POPC  H15C 5054   3.278   6.584   6.005 -2.7641  0.5182  0.8699
   38POPC   C11 5055   3.241   7.014   6.201 -0.1286  0.0872 -0.1536
   38POPC  H11A 5056   3.304   7.051   6.117 -2.8176  1.2631 -1.7444
   38POPC  H11B 5057   3.275   7.063   6.294  0.5529  0.5651 -0.6486
   38POPC     P 5058   2.996   7.038   6.280 -0.4195  0.0314 -0.4856
   38POPC   O13 5059   2.943   6.900   6.301 -0.1796 -0.1446 -0.1285
   38POPC   O14 5060   2.901   7.136   6.235  0.1307  0.8142  0.3678
   38POPC   O12 5061   3.109   7.024   6.174  0.2143  0.0024  0.0978
   38POPC   O11 5062   3.058   7.083   6.422  0.5160  0.2293  0.0935
   38POPC    C1 5063   3.102   6.988   6.519  0.6373  0.4812  0.2071
   38POPC    HA 5064   3.194   7.030   6.565 -0.1787  0.7735  1.5899
   38POPC    HB 5065   3.128   6.889   6.476 -0.1478  0.3005  0.1406
   38POPC    C2 5066   2.987   6.961   6.623 -0.3054  0.1263 -0.6038
   38POPC    HS 5067   2.889   6.941   6.575 -0.5613 -3.8797  1.3879
   38POPC   O21 5068   2.977   7.080   6.695  0.0447 -0.2624  0.3796
   38POPC   C21 5069   2.864   7.085   6.769  0.3800  0.9997  0.6012
   38POPC   O22 5070   2.758   7.020   6.745 -0.5266 -0.0584  0.3567
   38POPC   C22 5071   2.870   7.200   6.876 -0.5587 -0.2729 -0.2256
   38POPC   H2R 5072   2.775   7.193   6.933  0.5370  0.4022  1.7368
   38POPC   H2S 5073   2.886   7.289   6.812  0.0722  1.2794  2.0291
   38POPC    C3 5074   3.022   6.843   6.712 -0.2753  0.5280 -1.4010
   38POPC    HX 5075   3.005   6.753   6.650  1.4703 -1.0080  0.2915
   38POPC    HY 5076   2.944   6.847   6.791 -0.6452 -0.0193 -1.7338
   38POPC   O31 5077   3.155   6.849   6.765  0.2094 -0.9581 -0.3079
   38POPC   C31 5078   3.241   6.748   6.740 -1.1418  0.0700  0.4104
   38POPC   O32 5079   3.225   6.644   6.673  0.2912 -0.4854 -0.0297
   38POPC   C32 5080   3.376   6.773   6.810  0.4626  0.5600  0.0183
   38POPC   H2X 5081   3.385   6.879   6.841  1.6524  0.4353  0.1307
   38POPC   H2Y 5082   3.459   6.767   6.736 -0.8387  1.4695 -1.5335
   38POPC   C23 5083   2.982   7.184   6.977  0.2599 -0.3853 -0.4465
   38POPC   H3R 5084   2.970   7.257   7.060 -0.5057 -1.5558  0.4884
   38POPC   H3S 5085   3.074   7.216   6.924  1.8585 -0.8624  1.9522
   38POPC   C24 5086   3.008   7.043   7.023  0.3593  0.2938  0.6394
   38POPC   H4R 5087   3.059   6.976   6.951  3.1299  1.4595  1.4436
   38POPC   H4S 5088   2.915   6.991   7.052  0.1515  0.1243 -0.3220
   38POPC   C25 5089   3.108   7.028   7.151 -0.3039 -0.4002  0.4286
   38POPC   H5R 5090   3.207   7.079   7.141 -0.3438 -0.1520  1.2317
   38POPC   H5S 5091   3.132   6.921   7.169  1.7080 -0.2395 -1.0794
   38POPC   C26 5092   3.070   7.093   7.280  0.1884  0.2863  0.5539
   38POPC   H6R 5093   2.971   7.056   7.313  0.6643 -1.2931  0.2252
   38POPC   H6S 5094   3.057   7.202   7.262  0.8800  0.1501 -0.8365
   38POPC   C27 5095   3.172   7.059   7.390 -0.2644  0.4467  0.7893
   38POPC   H7R 5096   3.271   7.074   7.343 -0.3639 -0.4558  0.2760
   38POPC   H7S 5097   3.166   6.951   7.418 -1.7244  0.3476  0.1739
   38POPC   C28 5098   3.168   7.158   7.505  0.4340 -0.2401 -0.3654
   38POPC   H8R 5099   3.167   7.258   7.456 -2.3177 -0.1417 -0.1884
   38POPC   H8S 5100   3.265   7.148   7.557  0.6430  0.1731 -0.6732
   38POPC   C29 5101   3.056   7.143   7.598  0.1227 -0.2709 -0.0609
   38POPC   H91 5102   2.968   7.180   7.543  0.6823 -0.8123 -1.3486
   38POPC  C210 5103   3.055   7.088   7.726  0.4171 -0.7195 -0.1594
   38POPC  H101 5104   2.963   7.085   7.786  0.0176 -0.2875 -0.7564
   38POPC  C211 5105   3.184   7.032   7.800  0.0565 -0.4044  0.5704
   38POPC  H11R 5106   3.258   6.990   7.728  0.4121  0.0124  0.6866
   38POPC  H11S 5107   3.162   6.947   7.867 -0.8113 -0.5792  0.0668
   38POPC  C212 5108   3.261   7.140   7.882 -0.0477 -0.3855 -0.0808
   38POPC  H12R 5109   3.192   7.208   7.937  0.8071 -1.2274  2.0935
   38POPC  H12S 5110   3.320   7.204   7.813 -1.6229 -0.2854 -1.3641
   38POPC  C213 5111   3.356   7.085   7.982 -0.0068 -0.4683 -1.0747
   38POPC  H13R 5112   3.427   7.012   7.939  1.5436  0.5993 -0.3519
   38POPC  H13S 5113   3.295   7.027   8.054 -0.5356  0.1389 -1.0275
   38POPC  C214 5114   3.451   7.191   8.041  0.3202  0.8551  0.5283
   38POPC  H14R 5115   3.412   7.295   8.045  0.6808  1.1823 -2.7251
   38POPC  H14S 5116   3.522   7.190   7.955 -1.3137  2.1766 -0.9017
   38POPC  C215 5117   3.511   7.150   8.175 -0.2436 -0.2500  0.0799
   38POPC  H15R 5118   3.579   7.063   8.160 -0.0129  0.0683 -0.7257
   38POPC  H15S 5119   3.422   7.122   8.236  1.1226  0.3634  2.3981
   38POPC  C216 5120   3.596   7.260   8.240 -0.6371 -1.0082  0.4926
   38POPC  H16R 5121   3.527   7.330   8.291 -2.8088 -1.3628 -1.8725
   38POPC  H16S 5122   3.658   7.311   8.164 -0.6758 -1.2893  0.2734
   38POPC  C217 5123   3.697   7.212   8.343  0.5433  0.8302 -0.3418
   38POPC  H17R 5124   3.788   7.165   8.299  1.5172 -0.1005  2.5529
   38POPC  H17S 5125   3.655   7.136   8.412 -0.5645  1.0975 -0.7106
   38POPC  C218 5126   3.759   7.323   8.429  0.3558 -0.0876 -0.0184
   38POPC  H18R 5127   3.709   7.341   8.526  1.3894 -2.0409  0.9063
   38POPC  H18S 5128   3.747   7.413   8.366 -3.2035 -0.0854  0.5623
   38POPC  H18T 5129   3.863   7.297   8.458  0.5536  0.5109 -0.1910
   38POPC   C33 5130   3.399   6.676   6.930 -0.1479  0.4754  0.4084
   38POPC   H3X 5131   3.488   6.614   6.907  1.5551  2.5145  1.2573
   38POPC   H3Y 5132   3.313   6.607   6.947  0.4769 -0.2208  0.7581
   38POPC   C34 5133   3.414   6.757   7.061 -0.4689 -0.8572  0.2851
   38POPC   H4X 5134   3.314   6.796   7.087  0.3794  1.1660  0.6336
   38POPC   H4Y 5135   3.481   6.846   7.052 -1.3433 -0.0040  2.0041
   38POPC   C35 5136   3.464   6.671   7.183 -1.3623 -0.2163 -0.0545
   38POPC   H5X 5137   3.570   6.642   7.162 -1.4980 -0.5704 -0.2507
   38POPC   H5Y 5138   3.406   6.578   7.200  0.0646 -0.8110  1.7417
   38POPC   C36 5139   3.472   6.753   7.310 -0.1149 -0.1957 -0.2352
   38POPC   H6X 5140   3.378   6.811   7.318  2.5568  4.6242 -1.7840
   38POPC   H6Y 5141   3.558   6.823   7.309  2.0132 -2.6847  1.1466
   38POPC   C37 5142   3.487   6.665   7.438  0.2928  0.5094 -0.4503
   38POPC   H7X 5143   3.581   6.609   7.449  0.3671  0.8900  0.9140
   38POPC   H7Y 5144   3.412   6.583   7.430 -0.2843  1.1936 -2.5397
   38POPC   C38 5145   3.437   6.743   7.566  0.2155 -0.0781  0.3880
   38POPC   H8X 5146   3.334   6.783   7.554  0.7517  1.2835  0.1757
   38POPC   H8Y 5147   3.493   6.836   7.587  0.9902 -0.1379 -1.3498
   38POPC   C39 5148   3.443   6.657   7.687  0.5858  0.1945 -0.3843
   38POPC   H9X 5149   3.532   6.592   7.672  0.5145 -0.8912  3.3328
   38POPC   H9Y 5150   3.356   6.588   7.683 -1.4312  2.7271 -1.6386
   38POPC  C310 5151   3.443   6.728   7.822 -0.5239 -1.3027 -0.2588
   38POPC  H10X 5152   3.348   6.777   7.851  1.6810  2.4140  1.0712
   38POPC  H10Y 5153   3.518   6.811   7.817 -0.3928 -1.3697  0.5175
   38POPC  C311 5154   3.479   6.632   7.932  0.2519 -1.0951  0.4720
   38POPC  H11X 5155   3.571   6.581   7.896  2.4402  2.4115  0.8236
   38POPC  H11Y 5156   3.391   6.568   7.949  0.2603 -0.9798  0.9929
   38POPC  C312 5157   3.517   6.695   8.076  0.8291 -0.5346 -0.1623
   38POPC  H12X 5158   3.574   6.786   8.048 -1.5269 -0.5252 -5.4589
   38POPC  H12Y 5159   3.580   6.617   8.125  0.8736 -1.2450 -1.3161
   38POPC  C313 5160   3.401   6.727   8.166  0.4582  0.0213 -0.6867
   38POPC  H13X 5161   3.347   6.634   8.191  0.1314  0.1299 -0.9783
   38POPC  H13Y 5162   3.332   6.794   8.110 -2.3376 -1.7465  0.5212
   38POPC  C314 5163   3.434   6.806   8.291  0.4515 -0.3506 -0.6460
   38POPC  H14X 5164   3.482   6.900   8.255 -2.2838  1.7435  0.9031
   38POPC  H14Y 5165   3.506   6.761   8.362  1.1305  0.1170 -1.0339
   38POPC  C315 5166   3.309   6.848   8.374  0.4094 -1.0521 -0.8903
   38POPC  H15X 5167   3.268   6.758   8.426 -1.9185  0.7000  0.3958
   38POPC  H15Y 5168   3.234   6.886   8.302 -0.2606 -0.5604  0.0441
   38POPC  C316 5169   3.336   6.957   8.483  0.0575  0.3694  0.5826
   38POPC  H16X 5170   3.388   6.910   8.568 -0.3472  0.1616  0.7184
   38POPC  H16Y 5171   3.247   7.011   8.523  1.1510  2.7865 -0.1845
   38POPC  H16Z 5172   3.400   7.041   8.451  0.2878  1.1300  2.9654
   39POPC     N 5173   6.256   3.592   6.268 -0.2064 -0.6217 -0.0831
   39POPC   C12 5174   6.229   3.745   6.275 -0.4130  0.1944  0.0750
   39POPC  H12A 5175   6.123   3.762   6.288 -0.4479  0.7297 -0.9071
   39POPC  H12B 5176   6.261   3.788   6.181  1.4080 -1.5811 -0.1603
   39POPC   C13 5177   6.184   3.537   6.146 -1.1756  0.2246 -0.0755
   39POPC  H13A 5178   6.193   3.429   6.145 -0.6339  0.2482 -3.2187
   39POPC  H13B 5179   6.079   3.557   6.139 -1.3666 -0.2745  1.1952
   39POPC  H13C 5180   6.230   3.572   6.055 -1.9633  1.2194 -0.0979
   39POPC   C14 5181   6.402   3.558   6.254  0.4439  0.1349  0.6622
   39POPC  H14A 5182   6.449   3.609   6.337 -0.3984  0.7467  0.7666
   39POPC  H14B 5183   6.413   3.450   6.257  1.0951  0.1793  0.0581
   39POPC  H14C 5184   6.442   3.599   6.163 -2.1238  0.7825 -0.2062
   39POPC   C15 5185   6.195   3.522   6.395 -0.1169 -0.0793  0.5058
   39POPC  H15A 5186   6.251   3.568   6.475  0.7070 -0.3149  0.0670
   39POPC  H15B 5187   6.213   3.416   6.385 -0.5669 -0.0528 -0.7474
   39POPC  H15C 5188   6.090   3.546   6.411 -0.1545 -2.2574  4.1347
   39POPC   C11 5189   6.305   3.828   6.379 -0.0837  0.5215 -0.5773
   39POPC  H11A 5190   6.335   3.767   6.467  0.7512 -0.8711 -1.7929
   39POPC  H11B 5191   6.233   3.905   6.413  1.0731  1.0171  0.8251
   39POPC     P 5192   6.459   3.968   6.210 -0.1316 -0.2217  0.2432
   39POPC   O13 5193   6.343   3.962   6.120  0.1676 -0.0874  0.1406
   39POPC   O14 5194   6.588   3.919   6.158 -0.6418 -0.2745  0.4253
   39POPC   O12 5195   6.431   3.882   6.338  0.1901  0.6158 -0.1566
   39POPC   O11 5196   6.476   4.107   6.275 -0.2344  0.0490  0.6701
   39POPC    C1 5197   6.553   4.128   6.395  0.6239 -0.3855 -1.4648
   39POPC    HA 5198   6.623   4.213   6.383 -0.7068  0.6700 -1.7760
   39POPC    HB 5199   6.609   4.041   6.436  1.7911  0.7185 -0.6914
   39POPC    C2 5200   6.457   4.184   6.517  0.1832 -0.4110  0.5495
   39POPC    HS 5201   6.378   4.108   6.537 -0.7181  0.6185  0.9593
   39POPC   O21 5202   6.409   4.318   6.481 -0.1012  1.0895 -0.3204
   39POPC   C21 5203   6.277   4.335   6.479  0.0294 -0.1458 -0.1496
   39POPC   O22 5204   6.195   4.255   6.525  0.5740 -0.3414  0.3295
   39POPC   C22 5205   6.248   4.464   6.407 -1.0555 -0.2076  0.5593
   39POPC   H2R 5206   6.239   4.443   6.298  1.1150 -1.2559  0.5425
   39POPC   H2S 5207   6.334   4.535   6.408 -0.2706 -1.1284 -0.4811
   39POPC    C3 5208   6.545   4.214   6.640  0.1052  0.0149  1.0167
   39POPC    HX 5209   6.478   4.273   6.706  1.7846  1.3478  1.5700
   39POPC    HY 5210   6.627   4.281   6.604  0.7346 -1.6558 -0.7369
   39POPC   O31 5211   6.604   4.100   6.702 -0.5450 -0.4515  0.1928
   39POPC   C31 5212   6.528   4.041   6.792  0.4375  0.0212 -1.0588
   39POPC   O32 5213   6.411   4.065   6.806 -0.1533 -0.0793 -0.4940
   39POPC   C32 5214   6.614   3.949   6.879 -0.2519  0.5013  0.0210
   39POPC   H2X 5215   6.618   3.847   6.835 -2.5435  0.7591 -0.8310
   39POPC   H2Y 5216   6.713   3.999   6.881 -0.0148  0.1045 -1.7636
   39POPC   C23 5217   6.110   4.516   6.440  0.3037 -0.0273 -0.1290
   39POPC   H3R 5218   6.041   4.430   6.433 -0.1648  0.4839 -2.2156
   39POPC   H3S 5219   6.080   4.598   6.371  0.9470  1.2690  1.0910
   39POPC   C24 5220   6.106   4.581   6.577 -0.5270 -0.0055 -0.7819
   39POPC   H4R 5221   6.166   4.675   6.580 -1.6852  0.7087  0.1886
   39POPC   H4S 5222   6.153   4.517   6.654 -3.0356 -0.7602  0.1604
   39POPC   C25 5223   5.959   4.601   6.630  0.2009  0.0567 -0.3123
   39POPC   H5R 5224   5.901   4.508   6.612  1.9048 -1.1863  0.5523
   39POPC   H5S 5225   5.905   4.674   6.566  1.2541  2.2866  1.2792
   39POPC   C26 5226   5.950   4.647   6.771  0.7437 -0.0891  0.1033
   39POPC   H6R 5227   5.996   4.746   6.790 -0.5070  0.3770  0.8154
   39POPC   H6S 5228   6.004   4.577   6.838  0.8912 -1.0825 -1.0340
   39POPC   C27 5229   5.806   4.633   6.828  0.3763 -0.5440 -0.3211
   39POPC   H7R 5230   5.793   4.523   6.842 -3.0524 -0.1176  0.1364
   39POPC   H7S 5231   5.738   4.671   6.749 -0.6361  1.4500  1.4841
   39POPC   C28 5232   5.798   4.699   6.964 -0.8233 -0.5031 -0.2371
   39POPC   H8R 5233   5.842   4.799   6.945  0.9948 -1.4962 -1.3665
   39POPC   H8S 5234   5.853   4.651   7.047  0.3625  0.6548 -0.3453
   39POPC   C29 5235   5.650   4.724   7.005  0.1309 -0.7739  0.3883
   39POPC   H91 5236   5.583   4.766   6.928 -1.1755 -1.4936  1.1265
   39POPC  C210 5237   5.604   4.711   7.132  0.2749  0.2926 -0.2706
   39POPC  H101 5238   5.498   4.736   7.150 -0.1614 -1.3534 -0.4650
   39POPC  C211 5239   5.681   4.677   7.255 -0.4360  0.2763  0.4436
   39POPC  H11R 5240   5.756   4.757   7.272  0.4350  0.7988 -4.8683
   39POPC  H11S 5241   5.733   4.580   7.242 -1.3286 -0.3779  1.6715
   39POPC  C212 5242   5.584   4.664   7.380  0.0033 -0.4288  0.3118
   39POPC  H12R 5243   5.649   4.633   7.465 -0.4148 -1.7743  0.1607
   39POPC  H12S 5244   5.511   4.581   7.368  0.2430 -0.7298  0.8963
   39POPC  C213 5245   5.508   4.797   7.411  0.2443 -0.0747  0.3534
   39POPC  H13R 5246   5.445   4.824   7.324 -0.2815  2.6008  1.4990
   39POPC  H13S 5247   5.582   4.880   7.420 -1.3706  1.4168  0.2822
   39POPC  C214 5248   5.421   4.782   7.531 -0.8907  0.8111  0.5146
   39POPC  H14R 5249   5.475   4.736   7.616 -0.8888 -1.0363 -0.4675
   39POPC  H14S 5250   5.338   4.714   7.504 -0.7431  1.4972 -1.8423
   39POPC  C215 5251   5.357   4.907   7.580  0.6221 -0.3830  0.4514
   39POPC  H15R 5252   5.289   4.947   7.503  0.2340 -2.0199 -0.0806
   39POPC  H15S 5253   5.429   4.988   7.606  1.9963 -1.4626  0.1053
   39POPC  C216 5254   5.267   4.886   7.705 -0.3979  0.2104  0.4196
   39POPC  H16R 5255   5.329   4.866   7.794  1.2087  0.2675 -0.6567
   39POPC  H16S 5256   5.195   4.807   7.677  0.5151 -1.4195  2.5808
   39POPC  C217 5257   5.174   5.010   7.736  0.0979 -0.0307  0.2314
   39POPC  H17R 5258   5.111   4.977   7.821 -0.0567  0.8913  0.4747
   39POPC  H17S 5259   5.102   5.027   7.653  1.4541 -0.3965 -1.0445
   39POPC  C218 5260   5.247   5.136   7.777  0.1279 -0.2656 -0.5403
   39POPC  H18R 5261   5.187   5.220   7.820  0.1508 -0.8277  0.5900
   39POPC  H18S 5262   5.321   5.172   7.703  1.2445 -0.8193  0.2974
   39POPC  H18T 5263   5.314   5.100   7.857 -1.1746 -0.6004  0.4172
   39POPC   C33 5264   6.558   3.941   7.025  0.6709 -0.3179 -0.5183
   39POPC   H3X 5265   6.604   3.852   7.074 -3.6997 -0.9183  2.8902
   39POPC   H3Y 5266   6.448   3.924   7.013  0.7969 -1.3306 -0.3322
   39POPC   C34 5267   6.600   4.050   7.121  0.7660  0.7955  0.2327
   39POPC   H4X 5268   6.552   4.038   7.221  1.5130 -0.4168  0.4502
   39POPC   H4Y 5269   6.567   4.151   7.090 -0.9334  0.0677 -0.3760
   39POPC   C35 5270   6.746   4.058   7.142  0.2970 -1.0378  0.8123
   39POPC   H5X 5271   6.763   4.142   7.213  0.4136 -0.7600  0.4630
   39POPC   H5Y 5272   6.808   4.084   7.053  1.3936  0.5153  2.0076
   39POPC   C36 5273   6.813   3.929   7.210  0.6789 -0.4245 -0.9150
   39POPC   H6X 5274   6.922   3.951   7.214  0.5393  0.0309  0.4695
   39POPC   H6Y 5275   6.800   3.833   7.154 -0.3291 -0.0104 -1.3921
   39POPC   C37 5276   6.746   3.908   7.345  0.3175 -0.2249  0.1621
   39POPC   H7X 5277   6.639   3.882   7.330 -0.1429  2.4316 -1.4271
   39POPC   H7Y 5278   6.743   4.002   7.404  0.3237  0.0858 -0.3349
   39POPC   C38 5279   6.800   3.794   7.433  0.0693 -0.0520  0.1668
   39POPC   H8X 5280   6.909   3.815   7.446 -0.2116 -0.2527  3.4004
   39POPC   H8Y 5281   6.785   3.694   7.389 -0.9045  0.3006 -0.2959
   39POPC   C39 5282   6.733   3.808   7.569  0.2491  0.4334 -0.2959
   39POPC   H9X 5283   6.624   3.814   7.552  0.1942  1.3616  0.3471
   39POPC   H9Y 5284   6.775   3.904   7.607  1.1374 -0.7206  1.7269
   39POPC  C310 5285   6.775   3.701   7.671 -0.0057  0.3006 -0.4351
   39POPC  H10X 5286   6.882   3.674   7.654  0.5146  2.3175 -0.4770
   39POPC  H10Y 5287   6.714   3.611   7.648  0.1569  0.0188  0.2458
   39POPC  C311 5288   6.745   3.751   7.814  0.2880 -0.8140 -0.2936
   39POPC  H11X 5289   6.639   3.781   7.823  0.3173 -0.6183 -0.5891
   39POPC  H11Y 5290   6.805   3.842   7.839 -0.2861 -0.1314 -1.3287
   39POPC  C312 5291   6.771   3.648   7.921 -0.4749  0.8894 -0.1282
   39POPC  H12X 5292   6.879   3.620   7.925 -0.7475 -0.0025  1.4301
   39POPC  H12Y 5293   6.726   3.550   7.894  1.4714 -0.4351  1.2422
   39POPC  C313 5294   6.741   3.685   8.066  0.2570  0.1463  0.1527
   39POPC  H13X 5295   6.757   3.595   8.130  1.0200 -0.1292 -0.4126
   39POPC  H13Y 5296   6.634   3.714   8.066  0.4060  0.7084 -0.4575
   39POPC  C314 5297   6.822   3.797   8.122  0.3366  0.1741 -0.3124
   39POPC  H14X 5298   6.831   3.884   8.054  0.2189  1.1476  0.9231
   39POPC  H14Y 5299   6.925   3.763   8.144 -0.6702 -1.7389  1.6250
   39POPC  C315 5300   6.779   3.851   8.255  0.1221  1.0331  0.2301
   39POPC  H15X 5301   6.789   3.763   8.322  1.1521  1.5294  0.7255
   39POPC  H15Y 5302   6.674   3.887   8.243  0.1783  0.9635 -0.4694
   39POPC  C316 5303   6.877   3.955   8.304  0.6829  0.3550  0.5603
   39POPC  H16X 5304   6.856   3.972   8.412  1.9255 -0.5955  0.9625
   39POPC  H16Y 5305   6.856   4.047   8.246  0.7467  0.5381  0.8206
   39POPC  H16Z 5306   6.980   3.914   8.309 -0.5776 -2.8800  1.1043
   40POPC     N 5307   5.244   1.448   6.338  0.8044 -0.1851  0.2251
   40POPC   C12 5308   5.364   1.487   6.424 -0.2231  0.5363 -1.0160
   40POPC  H12A 5309   5.460   1.441   6.403 -0.3693 -1.1997  1.8256
   40POPC  H12B 5310   5.347   1.462   6.528  1.3578  3.6678  0.0563
   40POPC   C13 5311   5.247   1.303   6.321  0.5268  0.1493 -0.4620
   40POPC  H13A 5312   5.343   1.274   6.282  0.6391 -1.7286  1.1084
   40POPC  H13B 5313   5.245   1.255   6.418  1.8458  0.8033 -0.1045
   40POPC  H13C 5314   5.170   1.269   6.253  0.0816 -0.9137  0.5539
   40POPC   C14 5315   5.111   1.493   6.396 -0.3884 -0.2792 -0.3325
   40POPC  H14A 5316   5.034   1.480   6.322 -1.5454 -2.0115  1.1472
   40POPC  H14B 5317   5.074   1.432   6.477 -0.0176  1.0930  0.8896
   40POPC  H14C 5318   5.121   1.595   6.432  0.5604  0.1208 -1.6836
   40POPC   C15 5319   5.271   1.514   6.210  0.2884 -0.0663 -0.2071
   40POPC  H15A 5320   5.301   1.616   6.225 -0.0806 -0.0044  0.1035
   40POPC  H15B 5321   5.193   1.504   6.136 -0.2624  1.0093  0.2212
   40POPC  H15C 5322   5.360   1.457   6.187  0.7992 -0.1232  1.8234
   40POPC   C11 5323   5.387   1.641   6.440  0.3300  0.4255 -0.1575
   40POPC  H11A 5324   5.445   1.665   6.531  0.0939 -0.2357  0.1680
   40POPC  H11B 5325   5.286   1.685   6.458 -0.2653 -1.2181  0.5231
   40POPC     P 5326   5.448   1.829   6.256  0.0046 -0.1100 -0.0085
   40POPC   O13 5327   5.338   1.834   6.155  0.3252  0.0725  0.3390
   40POPC   O14 5328   5.586   1.866   6.215  0.0887 -0.1993  0.4339
   40POPC   O12 5329   5.450   1.687   6.319 -0.3070  0.0534 -0.3940
   40POPC   O11 5330   5.399   1.928   6.368 -0.3431  0.0496  0.4940
   40POPC    C1 5331   5.490   2.005   6.445  0.8337 -0.1377  0.4577
   40POPC    HA 5332   5.450   2.108   6.458 -0.2519 -0.2709 -1.6776
   40POPC    HB 5333   5.585   2.028   6.393  0.9644 -0.1117  0.7081
   40POPC    C2 5334   5.499   1.954   6.592  0.2605 -0.3690  1.1251
   40POPC    HS 5335   5.552   1.857   6.577 -1.3799 -0.9904 -0.8983
   40POPC   O21 5336   5.367   1.943   6.653 -0.0623  0.0332 -0.2514
   40POPC   C21 5337   5.345   1.854   6.741 -0.4355  0.0661 -0.5394
   40POPC   O22 5338   5.428   1.771   6.782 -0.1938 -0.2969  0.2556
   40POPC   C22 5339   5.196   1.860   6.784  0.6880 -0.4728 -0.2524
   40POPC   H2R 5340   5.133   1.796   6.718 -0.5448  0.5326 -0.0811
   40POPC   H2S 5341   5.165   1.966   6.770  1.6903 -0.0798  0.4735
   40POPC    C3 5342   5.585   2.057   6.674 -0.7940 -0.1838 -0.1332
   40POPC    HX 5343   5.546   2.161   6.676 -0.0411  0.0887  2.1234
   40POPC    HY 5344   5.686   2.067   6.629  0.3645  2.2645  2.8129
   40POPC   O31 5345   5.592   2.026   6.814 -0.1150 -0.1641 -0.8978
   40POPC   C31 5346   5.683   1.934   6.848 -0.0812 -0.3175  0.4545
   40POPC   O32 5347   5.763   1.885   6.773 -0.7702  0.9449  0.0425
   40POPC   C32 5348   5.687   1.912   7.006 -0.8127  0.2033  0.7981
   40POPC   H2X 5349   5.585   1.914   7.052 -1.2767 -1.8878 -0.1101
   40POPC   H2Y 5350   5.744   2.000   7.043 -1.4061  2.2265 -2.8539
   40POPC   C23 5351   5.173   1.804   6.920  0.1477  0.4605  0.7926
   40POPC   H3R 5352   5.193   1.695   6.913 -1.4116  0.1006  1.6885
   40POPC   H3S 5353   5.069   1.803   6.958 -0.2434 -3.2806 -0.1433
   40POPC   C24 5354   5.259   1.873   7.025  0.2738  0.8023 -0.6167
   40POPC   H4R 5355   5.354   1.816   7.033  0.2098  0.5950 -1.4000
   40POPC   H4S 5356   5.225   1.858   7.130  0.5607 -1.7092 -0.8650
   40POPC   C25 5357   5.295   2.019   7.001  0.1626 -0.4843 -0.0547
   40POPC   H5R 5358   5.201   2.068   6.966 -0.4183  0.6535  2.9654
   40POPC   H5S 5359   5.371   2.037   6.922 -0.4596 -2.9127 -1.2650
   40POPC   C26 5360   5.360   2.092   7.121  0.2680  0.0835 -0.1474
   40POPC   H6R 5361   5.381   2.194   7.083 -3.3462  0.2282 -1.9355
   40POPC   H6S 5362   5.450   2.035   7.153  0.1813 -0.0167 -0.0866
   40POPC   C27 5363   5.257   2.094   7.228 -0.1176 -0.0752  0.8619
   40POPC   H7R 5364   5.245   1.999   7.284 -0.7601 -0.0285  0.8082
   40POPC   H7S 5365   5.158   2.111   7.181 -0.0094  0.2495  0.7505
   40POPC   C28 5366   5.289   2.193   7.349  0.2306 -1.2927 -0.0060
   40POPC   H8R 5367   5.192   2.219   7.395  0.5466 -0.6863  0.3200
   40POPC   H8S 5368   5.334   2.284   7.304  2.4029 -2.2172  0.2320
   40POPC   C29 5369   5.388   2.146   7.449  0.3568 -0.2328  0.1754
   40POPC   H91 5370   5.472   2.088   7.407 -0.8113 -2.1164  0.3578
   40POPC  C210 5371   5.368   2.148   7.580  0.3686  0.4085 -0.4920
   40POPC  H101 5372   5.440   2.098   7.647 -2.1782 -0.3101  1.7611
   40POPC  C211 5373   5.260   2.215   7.655  0.0230 -0.6676 -0.0339
   40POPC  H11R 5374   5.191   2.279   7.596  1.0558 -0.8401 -1.4659
   40POPC  H11S 5375   5.320   2.284   7.717  1.9406  0.0699 -2.6047
   40POPC  C212 5376   5.168   2.123   7.730 -0.4508  0.3568  0.4322
   40POPC  H12R 5377   5.233   2.045   7.776 -1.5258  0.7975  2.7571
   40POPC  H12S 5378   5.098   2.076   7.659 -1.3768 -0.6766  2.0003
   40POPC  C213 5379   5.088   2.187   7.836  0.1906 -0.2050 -0.0838
   40POPC  H13R 5380   5.003   2.125   7.873  2.3224 -3.2949 -0.1423
   40POPC  H13S 5381   5.056   2.287   7.802  0.8168  0.9004  2.4759
   40POPC  C214 5382   5.169   2.215   7.974 -0.1272 -0.3215  0.0950
   40POPC  H14R 5383   5.114   2.300   8.017 -0.7017 -1.2158  1.1531
   40POPC  H14S 5384   5.269   2.257   7.951 -1.5406  2.1913 -1.6854
   40POPC  C215 5385   5.167   2.094   8.069 -0.1510 -0.0884  0.5125
   40POPC  H15R 5386   5.218   2.014   8.011 -1.4137 -0.3938 -0.1949
   40POPC  H15S 5387   5.066   2.053   8.089 -0.1088 -0.5254 -0.1275
   40POPC  C216 5388   5.229   2.124   8.208  0.2634  0.4294  0.2964
   40POPC  H16R 5389   5.159   2.195   8.257  0.2857  1.5241 -1.2321
   40POPC  H16S 5390   5.325   2.172   8.181  0.5376 -0.9901 -1.3469
   40POPC  C217 5391   5.254   1.998   8.290  0.7985 -0.0395  0.6026
   40POPC  H17R 5392   5.297   2.028   8.388  1.9506 -0.1634  0.1360
   40POPC  H17S 5393   5.340   1.947   8.243 -1.5693 -2.4271 -1.3364
   40POPC  C218 5394   5.137   1.904   8.324 -0.0120  0.7071  0.6866
   40POPC  H18R 5395   5.182   1.813   8.369 -0.3811  0.3499  0.3325
   40POPC  H18S 5396   5.088   1.858   8.236  2.3574  0.7073 -0.6653
   40POPC  H18T 5397   5.064   1.948   8.395 -0.3841 -0.6395  1.1487
   40POPC   C33 5398   5.755   1.781   7.047  0.8105 -0.2037 -0.6748
   40POPC   H3X 5399   5.853   1.757   7.000  1.2795 -1.3445  0.8328
   40POPC   H3Y 5400   5.687   1.697   7.023 -0.3259  0.4696  0.1687
   40POPC   C34 5401   5.774   1.758   7.203 -0.0895 -0.6569 -0.3618
   40POPC   H4X 5402   5.875   1.780   7.244  0.4498 -2.3242 -0.7548
   40POPC   H4Y 5403   5.770   1.648   7.210 -0.0033 -0.6558 -0.3059
   40POPC   C35 5404   5.655   1.804   7.292 -1.4361 -0.5558 -0.2502
   40POPC   H5X 5405   5.564   1.785   7.231 -0.6304 -2.7307 -0.8339
   40POPC   H5Y 5406   5.661   1.915   7.301  1.9795 -0.6625 -0.5078
   40POPC   C36 5407   5.657   1.726   7.425  0.3162 -0.6075  0.4420
   40POPC   H6X 5408   5.760   1.721   7.466  0.2676 -1.2202  0.4998
   40POPC   H6Y 5409   5.623   1.625   7.395 -0.6980  0.0417 -0.6366
   40POPC   C37 5410   5.555   1.770   7.529 -0.1725  0.7491  0.0372
   40POPC   H7X 5411   5.462   1.779   7.469 -0.0865 -1.4867 -0.4720
   40POPC   H7Y 5412   5.592   1.870   7.560  2.3650  0.1504 -0.9543
   40POPC   C38 5413   5.533   1.665   7.639  0.3348  0.0707 -0.0698
   40POPC   H8X 5414   5.639   1.651   7.670  1.1073  2.0549 -1.7380
   40POPC   H8Y 5415   5.499   1.571   7.591  0.4136  1.2080 -2.4168
   40POPC   C39 5416   5.435   1.708   7.742 -0.1616 -1.5234 -0.3115
   40POPC   H9X 5417   5.336   1.743   7.707  0.0033 -0.2341  0.4765
   40POPC   H9Y 5418   5.473   1.798   7.795 -0.1480 -0.3160 -2.3249
   40POPC  C310 5419   5.405   1.593   7.829 -0.2029  0.7908 -0.3476
   40POPC  H10X 5420   5.491   1.562   7.892 -1.5614 -0.2949  1.0314
   40POPC  H10Y 5421   5.364   1.504   7.776 -3.2242  0.4413  2.3618
   40POPC  C311 5422   5.290   1.634   7.928 -0.1788 -0.4939  0.6953
   40POPC  H11X 5423   5.198   1.634   7.867  0.4412  1.1234 -0.2628
   40POPC  H11Y 5424   5.315   1.737   7.960 -0.5705  0.0644 -0.7766
   40POPC  C312 5425   5.274   1.541   8.040  0.2306 -0.1362  0.5714
   40POPC  H12X 5426   5.374   1.520   8.085  0.1214 -2.1421 -0.1071
   40POPC  H12Y 5427   5.222   1.452   8.001 -0.5647  0.7788 -0.4825
   40POPC  C313 5428   5.182   1.599   8.149  0.0700 -1.0194  0.4677
   40POPC  H13X 5429   5.117   1.677   8.103 -1.6177 -2.3460  0.5391
   40POPC  H13Y 5430   5.252   1.650   8.219  3.0533 -0.1381 -3.0176
   40POPC  C314 5431   5.108   1.494   8.230 -0.0747 -0.3218 -0.1028
   40POPC  H14X 5432   5.184   1.415   8.248  0.0633 -0.1043  0.2898
   40POPC  H14Y 5433   5.029   1.462   8.160  1.4895  0.7077 -2.4032
   40POPC  C315 5434   5.057   1.544   8.374  0.0185 -0.0763  0.4905
   40POPC  H15X 5435   4.997   1.637   8.365  0.8166  0.3457 -0.7312
   40POPC  H15Y 5436   5.147   1.566   8.435  0.3019 -2.2393  0.8778
   40POPC  C316 5437   4.967   1.436   8.434 -0.3859  0.7810 -0.0375
   40POPC  H16X 5438   4.929   1.459   8.536  0.1096  2.5610 -0.2260
   40POPC  H16Y 5439   5.035   1.348   8.434  0.4885  1.4486  0.9776
   40POPC  H16Z 5440   4.876   1.421   8.372 -1.8397 -0.8455  2.4298
   41CHL1    C3 5441   3.809   5.982  10.085 -0.3321  0.4014 -0.7417
   41CHL1    H3 5442   3.893   6.051  10.062  1.2705 -1.5934 -1.0328
   41CHL1    O3 5443   3.828   5.924  10.212  0.0658 -0.6518  0.3370
   41CHL1   H3' 5444   3.746   5.940  10.259  0.2527  0.8318  0.1881
   41CHL1    C4 5445   3.679   6.051  10.072 -0.7494 -0.4760  0.8437
   41CHL1   H4A 5446   3.598   5.975  10.079  2.1825 -3.7283  0.2015
   41CHL1   H4B 5447   3.666   6.125  10.154 -0.9123  2.0342 -1.3784
   41CHL1    C5 5448   3.667   6.113   9.930  0.3798  0.3992  0.0721
   41CHL1    C6 5449   3.643   6.246   9.906 -0.2193 -0.1600 -0.0476
   41CHL1    H6 5450   3.645   6.313   9.993 -2.8477  1.1250 -0.9198
   41CHL1    C7 5451   3.642   6.312   9.772  0.0591  0.0918  0.4854
   41CHL1   H7A 5452   3.562   6.389   9.768  0.3768  0.4543  1.0150
   41CHL1   H7B 5453   3.738   6.366   9.759  0.5325 -1.1011 -1.0864
   41CHL1    C8 5454   3.623   6.208   9.657  0.0954  2.1330 -0.1682
   41CHL1    H8 5455   3.517   6.176   9.664 -0.0634  1.9200 -3.1395
   41CHL1   C14 5456   3.639   6.268   9.520  0.2148  0.0394 -0.6586
   41CHL1   H14 5457   3.737   6.320   9.519 -0.2760  0.9747 -0.6870
   41CHL1   C15 5458   3.551   6.388   9.479 -0.2537 -0.5848  0.3085
   41CHL1  H15A 5459   3.445   6.359   9.500  0.3134 -3.2710 -0.3655
   41CHL1  H15B 5460   3.567   6.479   9.541 -3.2061 -0.6921  1.3448
   41CHL1   C16 5461   3.588   6.403   9.329  0.3416 -1.1483  0.2450
   41CHL1  H16A 5462   3.491   6.431   9.283 -0.0150 -2.2635  0.2857
   41CHL1  H16B 5463   3.653   6.491   9.312  0.3867 -1.1898  0.2072
   41CHL1   C17 5464   3.648   6.270   9.272 -0.2184  1.0948  0.0015
   41CHL1   H17 5465   3.757   6.282   9.258 -0.0809 -1.0270 -0.9920
   41CHL1   C13 5466   3.640   6.176   9.394  0.8779 -0.1366 -1.3908
   41CHL1   C18 5467   3.504   6.108   9.382  0.5247  0.5054 -0.1959
   41CHL1  H18A 5468   3.502   6.037   9.297 -1.3941  2.8477 -2.1636
   41CHL1  H18B 5469   3.478   6.051   9.474 -1.6991 -1.1088 -1.7669
   41CHL1  H18C 5470   3.414   6.169   9.358 -0.3099 -0.6793 -0.0763
   41CHL1   C12 5471   3.740   6.070   9.415 -0.3169  0.3663 -0.0311
   41CHL1  H12A 5472   3.744   5.988   9.340  0.5810 -0.4152  0.8528
   41CHL1  H12B 5473   3.838   6.123   9.424  0.4334 -0.8032 -1.0711
   41CHL1   C11 5474   3.731   5.994   9.553 -0.3904  0.0613  0.4669
   41CHL1  H11A 5475   3.645   5.926   9.534  1.6211 -2.5656  0.5326
   41CHL1  H11B 5476   3.811   5.917   9.558  0.4554  0.9605  1.0703
   41CHL1    C9 5477   3.719   6.088   9.673 -0.2278 -0.2940  0.3558
   41CHL1    H9 5478   3.817   6.139   9.683 -2.2133  3.6904  0.4884
   41CHL1   C10 5479   3.689   6.018   9.811 -0.3726 -0.2968 -0.5140
   41CHL1   C19 5480   3.558   5.925   9.798 -0.3504  0.0495  0.1555
   41CHL1  H19A 5481   3.558   5.870   9.701  0.7462 -0.6508  0.5446
   41CHL1  H19B 5482   3.567   5.852   9.881  3.8951  1.8254  1.3971
   41CHL1  H19C 5483   3.470   5.992   9.809 -3.4354 -3.0263 -4.0090
   41CHL1    C1 5484   3.807   5.925   9.840  0.1971 -0.1473  0.0802
   41CHL1   H1A 5485   3.820   5.854   9.755 -0.9012 -0.1389 -0.0986
   41CHL1   H1B 5486   3.901   5.983   9.838  0.1411  0.0655  2.1963
   41CHL1    C2 5487   3.814   5.872   9.982 -0.2673  0.7928  0.3928
   41CHL1   H2A 5488   3.912   5.821   9.990 -0.0811  0.5571 -2.7996
   41CHL1   H2B 5489   3.740   5.790   9.985  0.9664 -0.4310 -1.3219
   41CHL1   C20 5490   3.584   6.227   9.136 -0.2799  0.8247  0.3304
   41CHL1   H20 5491   3.480   6.192   9.152 -0.4960  1.0782 -0.4877
   41CHL1   C21 5492   3.670   6.119   9.071  0.1957 -0.8402  0.7229
   41CHL1  H21A 5493   3.768   6.162   9.042 -1.2791  3.1906  1.4431
   41CHL1  H21B 5494   3.626   6.069   8.982 -0.1261  1.5609 -0.4875
   41CHL1  H21C 5495   3.692   6.029   9.133 -0.1330 -0.3572  1.5452
   41CHL1   C22 5496   3.585   6.354   9.038  0.3622 -0.0231 -0.3632
   41CHL1  H22A 5497   3.526   6.439   9.077  1.9038  0.7302  0.3795
   41CHL1  H22B 5498   3.688   6.394   9.043 -0.0320  0.9726 -0.0039
   41CHL1   C23 5499   3.552   6.329   8.889 -0.5702 -0.2381 -0.2461
   41CHL1  H23A 5500   3.632   6.271   8.838 -0.7488 -0.8483  0.1587
   41CHL1  H23B 5501   3.455   6.273   8.893 -0.3738 -0.6914 -1.4718
   41CHL1   C24 5502   3.524   6.458   8.813  0.2294 -0.2987 -0.4218
   41CHL1  H24A 5503   3.466   6.528   8.877 -1.1828  0.0097 -2.0327
   41CHL1  H24B 5504   3.622   6.501   8.782 -0.8185  1.8074 -0.8909
   41CHL1   C25 5505   3.441   6.449   8.672 -0.4930 -0.4946 -0.0331
   41CHL1   H25 5506   3.501   6.389   8.600 -0.2791 -0.0559 -0.2233
   41CHL1   C26 5507   3.297   6.385   8.680 -0.0003 -0.4249  0.5986
   41CHL1  H26A 5508   3.297   6.277   8.656 -0.0233 -0.5417  1.1212
   41CHL1  H26B 5509   3.241   6.416   8.771  1.3295  1.3066  0.8522
   41CHL1  H26C 5510   3.246   6.426   8.590  0.6937  0.0420  0.4161
   41CHL1   C27 5511   3.433   6.597   8.620  0.2289  0.1161  0.2351
   41CHL1  H27A 5512   3.369   6.604   8.530  0.8915  0.9589 -0.1719
   41CHL1  H27B 5513   3.380   6.657   8.697  0.1428 -0.2694  0.4802
   41CHL1  H27C 5514   3.531   6.638   8.588 -0.0827  1.3831  0.8895
   42CHL1    C3 5515   3.238   5.166   9.955  0.1424  0.0620 -0.2399
   42CHL1    H3 5516   3.127   5.159   9.965  0.0408  1.7774 -0.0432
   42CHL1    O3 5517   3.292   5.166  10.089  0.1875  0.0835  0.2708
   42CHL1   H3' 5518   3.386   5.149  10.084  0.9458  3.6806  1.1740
   42CHL1    C4 5519   3.298   5.057   9.870 -0.1571 -0.1769 -0.5049
   42CHL1   H4A 5520   3.409   5.046   9.871 -0.2875 -2.0963  3.3352
   42CHL1   H4B 5521   3.261   4.965   9.920  1.2909 -1.2293 -1.3055
   42CHL1    C5 5522   3.245   5.064   9.729 -0.6384 -0.5909  0.7792
   42CHL1    C6 5523   3.182   4.959   9.671 -0.1714 -0.5185 -0.9434
   42CHL1    H6 5524   3.151   4.883   9.745  1.5244 -0.3355 -0.0160
   42CHL1    C7 5525   3.133   4.954   9.528  0.1366  0.4836 -0.2925
   42CHL1   H7A 5526   3.144   4.851   9.488  0.8437  0.5118 -0.1718
   42CHL1   H7B 5527   3.026   4.983   9.525  0.6752  2.4885 -1.0405
   42CHL1    C8 5528   3.208   5.062   9.445 -0.0782  0.9287 -0.3315
   42CHL1    H8 5529   3.308   5.019   9.422  0.5318  3.2343 -2.2247
   42CHL1   C14 5530   3.139   5.076   9.308  0.5438 -0.1205 -0.0624
   42CHL1   H14 5531   3.036   5.111   9.332  0.4886  1.3075 -2.2819
   42CHL1   C15 5532   3.139   4.951   9.222  0.0311 -0.2907 -0.1626
   42CHL1  H15A 5533   3.235   4.897   9.235 -0.1406 -0.6243 -0.2784
   42CHL1  H15B 5534   3.057   4.879   9.242  0.8502 -1.0655  0.4506
   42CHL1   C16 5535   3.121   5.008   9.078 -0.8220  1.5467 -0.4249
   42CHL1  H16A 5536   3.212   4.998   9.015  0.6698  2.9406  1.4577
   42CHL1  H16B 5537   3.027   4.968   9.036 -1.0653  0.6307  0.9787
   42CHL1   C17 5538   3.111   5.163   9.088  0.1144  0.0989  0.3098
   42CHL1   H17 5539   3.004   5.191   9.099 -0.2384 -1.9132  2.3375
   42CHL1   C13 5540   3.188   5.191   9.218 -0.0756  0.6675 -0.8728
   42CHL1   C18 5541   3.344   5.172   9.199 -0.1385 -0.3805 -0.2883
   42CHL1  H18A 5542   3.368   5.070   9.162 -3.3811 -0.9816 -0.8571
   42CHL1  H18B 5543   3.362   5.241   9.114 -0.0464 -0.6092 -0.4571
   42CHL1  H18C 5544   3.403   5.202   9.288 -1.6051 -1.1127  0.9432
   42CHL1   C12 5545   3.160   5.321   9.286  0.9288 -0.1309 -1.0575
   42CHL1  H12A 5546   3.200   5.408   9.230  1.4491 -0.8433 -1.8234
   42CHL1  H12B 5547   3.049   5.334   9.289  1.0514  0.6342  0.5769
   42CHL1   C11 5548   3.214   5.319   9.431 -0.4528 -0.5510  0.4124
   42CHL1  H11A 5549   3.319   5.349   9.411 -0.3565 -1.9430 -1.2798
   42CHL1  H11B 5550   3.169   5.408   9.480 -0.4376 -0.2071 -0.1966
   42CHL1    C9 5551   3.195   5.194   9.522  0.2326  0.2352 -0.2095
   42CHL1    H9 5552   3.086   5.201   9.540  0.2085  2.3487 -0.9660
   42CHL1   C10 5553   3.274   5.197   9.655 -0.9837  0.6957  0.2065
   42CHL1   C19 5554   3.430   5.204   9.613  0.3721 -0.7522  0.1937
   42CHL1  H19A 5555   3.442   5.298   9.555 -1.2681 -0.5977  0.0952
   42CHL1  H19B 5556   3.493   5.204   9.705 -0.2017 -0.4705  0.5869
   42CHL1  H19C 5557   3.462   5.128   9.538 -3.3782 -1.0141 -1.2207
   42CHL1    C1 5558   3.236   5.309   9.753  0.0668 -0.2946  0.7387
   42CHL1   H1A 5559   3.268   5.408   9.713 -1.1582  0.2422  1.0578
   42CHL1   H1B 5560   3.126   5.321   9.758 -0.0855 -1.1864 -0.3829
   42CHL1    C2 5561   3.287   5.294   9.891 -0.2635 -0.4482  0.2803
   42CHL1   H2A 5562   3.239   5.375   9.950 -0.3073 -1.5011  1.7430
   42CHL1   H2B 5563   3.397   5.301   9.877 -0.5386  2.7147 -0.5957
   42CHL1   C20 5564   3.165   5.230   8.958 -0.7182 -0.3168  0.0473
   42CHL1   H20 5565   3.271   5.201   8.943 -0.4568  0.7686 -0.2372
   42CHL1   C21 5566   3.173   5.382   8.964  0.4208 -0.6704 -0.1804
   42CHL1  H21A 5567   3.076   5.431   8.987  0.6083 -0.3128 -0.1429
   42CHL1  H21B 5568   3.199   5.439   8.872  1.0218 -1.7237 -0.6759
   42CHL1  H21C 5569   3.251   5.412   9.037 -2.0799  1.8494  1.5488
   42CHL1   C22 5570   3.090   5.183   8.835  0.9301 -0.2756  1.1573
   42CHL1  H22A 5571   3.129   5.233   8.744  0.3091 -0.3339  0.8550
   42CHL1  H22B 5572   3.107   5.075   8.816  1.1602 -0.0927  0.2931
   42CHL1   C23 5573   2.941   5.207   8.838  0.2852 -0.1010  0.1332
   42CHL1  H23A 5574   2.894   5.128   8.901 -0.4142 -0.8456 -1.2970
   42CHL1  H23B 5575   2.911   5.303   8.884 -1.3576  0.5185 -2.1687
   42CHL1   C24 5576   2.882   5.203   8.693 -0.0047  0.0681  0.5276
   42CHL1  H24A 5577   2.923   5.286   8.632  0.9311 -2.3474 -2.2547
   42CHL1  H24B 5578   2.930   5.119   8.638  2.1138  2.5799 -1.6099
   42CHL1   C25 5579   2.722   5.187   8.687 -0.3474  0.2681 -0.5322
   42CHL1   H25 5580   2.671   5.270   8.741 -1.3411  1.2254 -2.8500
   42CHL1   C26 5581   2.663   5.201   8.550  0.5408  0.1454  0.0875
   42CHL1  H26A 5582   2.552   5.203   8.554  0.4933  1.5009 -1.1288
   42CHL1  H26B 5583   2.689   5.291   8.490  0.4876 -0.5353 -0.9840
   42CHL1  H26C 5584   2.693   5.123   8.476  1.6149  1.0315 -0.4311
   42CHL1   C27 5585   2.676   5.056   8.746 -0.4004 -0.6933 -0.4898
   42CHL1  H27A 5586   2.698   5.040   8.854  2.5385 -2.3027 -1.2809
   42CHL1  H27B 5587   2.566   5.044   8.750 -0.4370 -0.1435  0.0508
   42CHL1  H27C 5588   2.716   4.967   8.693  1.6843  1.1460 -2.0832
   43CHL1    C3 5589   4.326   5.817  10.223 -0.3182 -0.1693  0.4796
   43CHL1    H3 5590   4.220   5.829  10.252 -0.8090 -1.4040 -0.7578
   43CHL1    O3 5591   4.389   5.784  10.349  0.0715 -0.5774  0.3384
   43CHL1   H3' 5592   4.345   5.708  10.387 -0.7582  1.3340  3.3851
   43CHL1    C4 5593   4.362   5.703  10.130  0.3692 -0.2068  0.1317
   43CHL1   H4A 5594   4.473   5.707  10.124  0.3940 -0.0193  0.7019
   43CHL1   H4B 5595   4.326   5.605  10.169  2.6594 -0.4638  1.6798
   43CHL1    C5 5596   4.300   5.731   9.994 -0.0187  0.0380 -0.1163
   43CHL1    C6 5597   4.224   5.641   9.937  0.0474  0.2947  0.3988
   43CHL1    H6 5598   4.223   5.546   9.992 -1.9695 -0.2258 -0.4881
   43CHL1    C7 5599   4.165   5.646   9.798  0.2373 -0.3669  0.0085
   43CHL1   H7A 5600   4.177   5.549   9.746 -1.7227 -2.5290  3.3996
   43CHL1   H7B 5601   4.056   5.667   9.801 -0.0368 -1.9915  2.4938
   43CHL1    C8 5602   4.216   5.761   9.710  0.2769  0.6868 -0.8485
   43CHL1    H8 5603   4.318   5.741   9.672  0.7698 -0.7982  1.1731
   43CHL1   C14 5604   4.122   5.795   9.591 -0.2334  0.2785  0.4095
   43CHL1   H14 5605   4.027   5.839   9.628 -0.5588  0.2414 -0.3638
   43CHL1   C15 5606   4.079   5.681   9.495 -0.7727  0.7060  0.0094
   43CHL1  H15A 5607   4.164   5.612   9.474 -1.7995 -0.3749 -0.6317
   43CHL1  H15B 5608   4.003   5.621   9.549 -1.4626 -0.2506 -1.9627
   43CHL1   C16 5609   4.025   5.753   9.372 -0.1051  0.6955 -0.3163
   43CHL1  H16A 5610   4.067   5.715   9.277 -2.8207  0.4115 -1.4455
   43CHL1  H16B 5611   3.916   5.743   9.354  0.2230 -4.4080 -0.1218
   43CHL1   C17 5612   4.077   5.899   9.386  0.1832  0.4770  0.1307
   43CHL1   H17 5613   3.995   5.960   9.429  2.5037  1.2965  3.6082
   43CHL1   C13 5614   4.174   5.899   9.499  0.4775 -0.1121  0.0421
   43CHL1   C18 5615   4.310   5.858   9.447  0.2428  0.1716  0.0774
   43CHL1  H18A 5616   4.310   5.768   9.382  1.0504  0.9611 -1.0269
   43CHL1  H18B 5617   4.343   5.947   9.390 -0.3948  1.8596  2.2896
   43CHL1  H18C 5618   4.392   5.860   9.521 -1.3618  1.8986  1.8804
   43CHL1   C12 5619   4.175   6.027   9.592 -0.4561  0.4076  0.6162
   43CHL1  H12A 5620   4.225   6.112   9.541  1.3122  1.0082  3.2508
   43CHL1  H12B 5621   4.072   6.057   9.620  0.0150  0.5754  2.2097
   43CHL1   C11 5622   4.258   6.013   9.718 -0.3970 -0.8211 -0.4020
   43CHL1  H11A 5623   4.364   6.010   9.684 -0.7522 -0.1698 -1.5771
   43CHL1  H11B 5624   4.236   6.102   9.780 -0.0940 -1.0930  0.0988
   43CHL1    C9 5625   4.233   5.882   9.806 -0.2831  0.0060  0.2057
   43CHL1    H9 5626   4.134   5.895   9.855 -0.8412 -0.7928 -0.6935
   43CHL1   C10 5627   4.326   5.867   9.931 -0.0200 -0.3254  0.3439
   43CHL1   C19 5628   4.481   5.866   9.890 -0.1995  0.1746  0.2007
   43CHL1  H19A 5629   4.556   5.866   9.972 -0.9583  0.3956  0.9022
   43CHL1  H19B 5630   4.505   5.784   9.819 -0.5767 -0.1857  0.4828
   43CHL1  H19C 5631   4.495   5.965   9.841  0.6890  1.1575  2.3719
   43CHL1    C1 5632   4.301   5.983  10.034  0.2290  0.0033  0.1318
   43CHL1   H1A 5633   4.339   6.076   9.987 -0.8963 -0.5755 -1.9616
   43CHL1   H1B 5634   4.196   5.999  10.066  1.3617  1.0312  3.5651
   43CHL1    C2 5635   4.372   5.960  10.170  0.2108  0.6106  0.2667
   43CHL1   H2A 5636   4.342   6.049  10.230 -2.4070  0.7305 -1.1577
   43CHL1   H2B 5637   4.482   5.953  10.157  0.2449  1.9469 -0.2168
   43CHL1   C20 5638   4.105   5.962   9.247 -0.8479  0.1061 -0.2872
   43CHL1   H20 5639   4.194   5.910   9.206 -1.1140 -0.0740 -0.6375
   43CHL1   C21 5640   4.145   6.113   9.263  0.5010 -0.3079  0.0009
   43CHL1  H21A 5641   4.239   6.123   9.321  0.1320  2.0160  0.2398
   43CHL1  H21B 5642   4.066   6.158   9.327  1.8487 -0.4833  1.8204
   43CHL1  H21C 5643   4.158   6.165   9.165 -2.3594 -3.7597 -2.3652
   43CHL1   C22 5644   3.988   5.963   9.140 -0.8455  0.1808 -0.2390
   43CHL1  H22A 5645   3.926   5.871   9.147  1.8087 -1.6224  0.5827
   43CHL1  H22B 5646   3.919   6.045   9.170 -0.2407  1.2965 -1.8166
   43CHL1   C23 5647   4.028   5.987   8.992  0.0355 -0.2829 -1.0408
   43CHL1  H23A 5648   3.937   6.007   8.931 -0.3441 -2.1520 -1.1046
   43CHL1  H23B 5649   4.091   6.076   8.970  0.9279 -0.8522 -0.8264
   43CHL1   C24 5650   4.106   5.872   8.934 -0.4955  0.2510  0.6417
   43CHL1  H24A 5651   4.202   5.860   8.988  1.0082  0.9192 -1.7757
   43CHL1  H24B 5652   4.047   5.779   8.945  1.5230 -1.3546 -1.4894
   43CHL1   C25 5653   4.144   5.885   8.788 -0.3605  0.4471  0.0636
   43CHL1   H25 5654   4.207   5.975   8.768  1.2953 -0.7927 -0.3860
   43CHL1   C26 5655   4.245   5.773   8.744 -0.4468  0.1052  0.1875
   43CHL1  H26A 5656   4.284   5.803   8.645 -1.1349 -1.6924 -0.6428
   43CHL1  H26B 5657   4.330   5.765   8.816 -1.0849 -1.1084  0.8230
   43CHL1  H26C 5658   4.201   5.671   8.733 -0.8468  0.4572 -1.6311
   43CHL1   C27 5659   4.028   5.885   8.687  0.2035 -0.2345 -0.6486
   43CHL1  H27A 5660   3.964   5.975   8.700 -1.2096 -1.2707 -0.3338
   43CHL1  H27B 5661   4.055   5.887   8.579  0.6302 -0.3134 -0.5431
   43CHL1  H27C 5662   3.965   5.794   8.686  0.9326 -0.7408 -1.0425
   44CHL1    C3 5663   4.676   6.150  10.295 -0.1540 -0.4993 -0.5239
   44CHL1    H3 5664   4.616   6.063  10.262 -0.4482 -0.5226  0.0826
   44CHL1    O3 5665   4.688   6.154  10.436  0.3873 -0.8612  0.4681
   44CHL1   H3' 5666   4.652   6.237  10.469  1.0040 -0.2543 -0.3677
   44CHL1    C4 5667   4.808   6.137  10.227 -0.8090 -0.5650 -0.3023
   44CHL1   H4A 5668   4.872   6.225  10.252 -2.8466  1.2472 -1.2249
   44CHL1   H4B 5669   4.854   6.047  10.272  0.3607 -0.1479 -0.6391
   44CHL1    C5 5670   4.793   6.137  10.074  0.0402 -0.5547  0.5681
   44CHL1    C6 5671   4.849   6.045  10.000 -0.2326 -0.5562 -0.4269
   44CHL1    H6 5672   4.909   5.960  10.037  0.3538 -0.0409 -0.1894
   44CHL1    C7 5673   4.845   6.035   9.852  0.0487 -0.9646 -0.3932
   44CHL1   H7A 5674   4.953   6.027   9.828  0.1628 -1.5190  0.2756
   44CHL1   H7B 5675   4.787   5.944   9.825  0.5899 -1.4741  0.1525
   44CHL1    C8 5676   4.789   6.160   9.781  0.2392 -0.8271  0.2711
   44CHL1    H8 5677   4.866   6.239   9.767  1.2483 -1.9977 -0.9976
   44CHL1   C14 5678   4.744   6.122   9.646  0.3690  0.3691  1.4401
   44CHL1   H14 5679   4.652   6.061   9.656 -0.1551  0.2485 -2.8870
   44CHL1   C15 5680   4.836   6.039   9.552  0.2357  0.5317  0.1096
   44CHL1  H15A 5681   4.945   6.052   9.567  0.0866  0.1941  1.5673
   44CHL1  H15B 5682   4.829   5.930   9.575  2.4086  0.4638  0.5263
   44CHL1   C16 5683   4.785   6.077   9.414 -0.3616  0.4035 -0.2190
   44CHL1  H16A 5684   4.859   6.129   9.349 -0.9817  1.1911 -0.3041
   44CHL1  H16B 5685   4.741   5.990   9.361 -1.3317 -0.8323  2.5557
   44CHL1   C17 5686   4.659   6.170   9.429 -0.1780 -0.0221 -0.2884
   44CHL1   H17 5687   4.581   6.093   9.446  0.0396  0.2628  2.1058
   44CHL1   C13 5688   4.697   6.246   9.560  0.2394 -0.5116 -0.0153
   44CHL1   C18 5689   4.813   6.350   9.529  0.0217  0.1231 -0.0660
   44CHL1  H18A 5690   4.905   6.293   9.505 -1.0267 -1.8696  0.5714
   44CHL1  H18B 5691   4.797   6.422   9.446 -1.5322  1.8723  1.6879
   44CHL1  H18C 5692   4.834   6.404   9.625 -0.7499 -0.1048  0.2286
   44CHL1   C12 5693   4.583   6.307   9.640 -0.3536 -0.4120  0.2517
   44CHL1  H12A 5694   4.543   6.397   9.589  0.5874  0.2123  0.5987
   44CHL1  H12B 5695   4.506   6.227   9.641  1.1619 -1.9040 -0.0892
   44CHL1   C11 5696   4.626   6.346   9.779  0.0990 -0.4792 -0.6230
   44CHL1  H11A 5697   4.716   6.411   9.782 -1.1170  1.2147  0.3300
   44CHL1  H11B 5698   4.551   6.410   9.831  0.8935  0.8257 -1.0631
   44CHL1    C9 5699   4.676   6.223   9.859 -0.0194  0.2936 -0.1758
   44CHL1    H9 5700   4.599   6.143   9.868  0.7958 -0.2141  3.2815
   44CHL1   C10 5701   4.713   6.248  10.009 -0.5973 -0.7338 -0.5531
   44CHL1   C19 5702   4.791   6.373  10.023 -0.2978  0.4599  0.3919
   44CHL1  H19A 5703   4.744   6.465   9.983  0.7424  1.2369  0.9160
   44CHL1  H19B 5704   4.798   6.391  10.132  0.8895 -1.4003  0.6518
   44CHL1  H19C 5705   4.898   6.363   9.992  0.5088 -0.4601  3.2609
   44CHL1    C1 5706   4.582   6.271  10.097  0.0055  0.9835  0.0448
   44CHL1   H1A 5707   4.522   6.353  10.054  0.4756  1.2480 -0.1044
   44CHL1   H1B 5708   4.520   6.181  10.077 -0.9334  2.0732 -2.1238
   44CHL1    C2 5709   4.596   6.271  10.252 -0.1303 -0.2103  0.6243
   44CHL1   H2A 5710   4.493   6.274  10.293 -0.6266 -3.1250 -0.3153
   44CHL1   H2B 5711   4.638   6.372  10.276  0.6397 -1.0404  2.9001
   44CHL1   C20 5712   4.625   6.258   9.304 -0.5011 -0.1179 -0.3638
   44CHL1   H20 5713   4.724   6.307   9.291  0.6015 -2.6296 -1.8149
   44CHL1   C21 5714   4.505   6.352   9.327 -0.1307 -0.5313 -0.1670
   44CHL1  H21A 5715   4.540   6.449   9.368 -1.1625  0.3634 -1.3614
   44CHL1  H21B 5716   4.430   6.300   9.390  0.0210 -1.7354 -0.9647
   44CHL1  H21C 5717   4.458   6.368   9.228 -1.8922  1.4125  0.9300
   44CHL1   C22 5718   4.598   6.165   9.178 -0.4219 -0.3581 -0.5851
   44CHL1  H22A 5719   4.687   6.098   9.175  0.3369  0.5772  0.4030
   44CHL1  H22B 5720   4.504   6.110   9.199  0.2134 -1.9448 -1.7635
   44CHL1   C23 5721   4.598   6.229   9.036  0.1033  0.2194  0.4580
   44CHL1  H23A 5722   4.528   6.314   9.030 -0.4321 -0.2509  0.0088
   44CHL1  H23B 5723   4.694   6.285   9.029  0.3230 -0.2707 -0.7421
   44CHL1   C24 5724   4.576   6.131   8.918 -0.2261  0.3200 -0.5131
   44CHL1  H24A 5725   4.660   6.058   8.909 -0.5608 -0.0909 -0.3127
   44CHL1  H24B 5726   4.487   6.067   8.931  2.3034 -3.4988 -1.2467
   44CHL1   C25 5727   4.568   6.206   8.781  0.0253 -0.3629 -0.8126
   44CHL1   H25 5728   4.661   6.266   8.767  0.1609  0.4098  2.9127
   44CHL1   C26 5729   4.545   6.113   8.669  0.5542  0.2831  0.4719
   44CHL1  H26A 5730   4.515   6.178   8.584  0.8080 -1.2063 -0.7675
   44CHL1  H26B 5731   4.637   6.056   8.646 -1.1630 -1.4540 -2.2409
   44CHL1  H26C 5732   4.470   6.033   8.683 -1.5690  1.9785 -0.8725
   44CHL1   C27 5733   4.446   6.302   8.788 -0.3165 -0.4576  0.1628
   44CHL1  H27A 5734   4.475   6.384   8.856 -0.2619 -1.1790  1.0222
   44CHL1  H27B 5735   4.416   6.338   8.687 -1.4966  0.7673  0.9375
   44CHL1  H27C 5736   4.347   6.269   8.825 -0.9233  1.0742 -0.0755
   45CHL1    C3 5737   1.493   4.265  10.179  0.3362  0.3481  0.1285
   45CHL1    H3 5738   1.586   4.306  10.224  0.7826  1.7251 -1.9649
   45CHL1    O3 5739   1.405   4.218  10.283 -0.1695  0.2511  0.4642
   45CHL1   H3' 5740   1.326   4.273  10.295  0.3224  0.5213  2.6282
   45CHL1    C4 5741   1.423   4.362  10.082 -0.1061  0.5849  0.0596
   45CHL1   H4A 5742   1.323   4.316  10.063  1.0537 -1.9559  0.0155
   45CHL1   H4B 5743   1.397   4.451  10.144 -1.0633  1.3463 -1.3896
   45CHL1    C5 5744   1.498   4.397   9.954  0.2995 -0.1979 -0.2063
   45CHL1    C6 5745   1.519   4.530   9.920 -0.7684  0.3604  0.3688
   45CHL1    H6 5746   1.489   4.618   9.980  0.1368  0.8700  0.0976
   45CHL1    C7 5747   1.610   4.572   9.815  0.5750 -0.4977 -0.5273
   45CHL1   H7A 5748   1.578   4.661   9.757 -0.4304 -0.2305  0.4364
   45CHL1   H7B 5749   1.708   4.597   9.862  0.5859 -0.6299 -0.4780
   45CHL1    C8 5750   1.619   4.456   9.707  0.1885 -0.1794  0.2126
   45CHL1    H8 5751   1.707   4.479   9.644 -0.5215 -0.3550 -0.8625
   45CHL1   C14 5752   1.508   4.462   9.599 -0.9148 -0.2002  1.0250
   45CHL1   H14 5753   1.411   4.467   9.654 -1.7336  1.0987 -0.4990
   45CHL1   C15 5754   1.516   4.602   9.521 -0.5265  0.4548  0.1733
   45CHL1  H15A 5755   1.412   4.632   9.498 -1.1216 -0.3917  1.6448
   45CHL1  H15B 5756   1.565   4.691   9.565 -0.9133  0.0218  1.5132
   45CHL1   C16 5757   1.604   4.572   9.394  0.0102  0.5300 -0.0411
   45CHL1  H16A 5758   1.564   4.624   9.304 -1.2578  2.0943  1.3820
   45CHL1  H16B 5759   1.709   4.599   9.416  0.0999  0.3061 -0.1893
   45CHL1   C17 5760   1.604   4.416   9.392 -0.1927 -0.9668 -0.4401
   45CHL1   H17 5761   1.709   4.399   9.424 -0.1625 -0.5827 -0.3433
   45CHL1   C13 5762   1.515   4.348   9.495 -0.8354  0.4616  0.1352
   45CHL1   C18 5763   1.369   4.329   9.442 -0.3028  0.4461 -0.5499
   45CHL1  H18A 5764   1.325   4.430   9.432  1.5620  1.4475  0.9794
   45CHL1  H18B 5765   1.359   4.271   9.348 -0.5846 -0.1677 -0.1486
   45CHL1  H18C 5766   1.311   4.278   9.522 -1.0699  0.4736 -1.0808
   45CHL1   C12 5767   1.563   4.215   9.547 -0.2856 -0.7633 -0.0890
   45CHL1  H12A 5768   1.486   4.153   9.596 -0.2612  0.6392  1.8138
   45CHL1  H12B 5769   1.596   4.152   9.462  3.4927 -0.4278  1.0410
   45CHL1   C11 5770   1.673   4.226   9.651 -0.1706  0.1899 -0.2495
   45CHL1  H11A 5771   1.683   4.123   9.691 -0.7902 -0.8880 -2.7711
   45CHL1  H11B 5772   1.770   4.261   9.610  0.4414  0.3247  1.2737
   45CHL1    C9 5773   1.642   4.323   9.770 -0.3182 -0.2901  0.4093
   45CHL1    H9 5774   1.733   4.331   9.833 -1.3945 -1.8091  2.2346
   45CHL1   C10 5775   1.538   4.273   9.880 -0.6313  0.2025 -0.1357
   45CHL1   C19 5776   1.417   4.199   9.819 -0.1782  0.2552 -0.6330
   45CHL1  H19A 5777   1.369   4.254   9.735  0.9615 -1.1529 -2.2417
   45CHL1  H19B 5778   1.450   4.096   9.793 -0.5259  0.1012 -0.4569
   45CHL1  H19C 5779   1.340   4.178   9.896 -1.1387  2.1311 -1.0432
   45CHL1    C1 5780   1.615   4.177   9.971  0.0932 -0.2398 -0.1109
   45CHL1   H1A 5781   1.651   4.083   9.923  1.7857 -1.2581  3.0049
   45CHL1   H1B 5782   1.704   4.232  10.010  0.4256 -0.7483 -0.1561
   45CHL1    C2 5783   1.537   4.139  10.102 -1.1133 -0.3659 -0.8512
   45CHL1   H2A 5784   1.593   4.076  10.175  0.5409  0.9809 -0.9267
   45CHL1   H2B 5785   1.446   4.083  10.071 -0.3870 -1.4033 -1.1447
   45CHL1   C20 5786   1.594   4.364   9.248 -0.3489 -0.0624 -0.3818
   45CHL1   H20 5787   1.583   4.254   9.251  4.0686 -0.5639  1.2630
   45CHL1   C21 5788   1.729   4.380   9.179 -0.1144 -0.9135  0.8395
   45CHL1  H21A 5789   1.817   4.353   9.241 -0.7258 -0.7346  1.7969
   45CHL1  H21B 5790   1.752   4.485   9.153  0.8397 -1.5436 -0.9306
   45CHL1  H21C 5791   1.736   4.319   9.087 -0.2222  0.8325 -0.3359
   45CHL1   C22 5792   1.482   4.419   9.150  0.0316  0.2331 -0.5668
   45CHL1  H22A 5793   1.392   4.453   9.206  0.3110  0.2802 -0.1438
   45CHL1  H22B 5794   1.524   4.511   9.104 -0.7615  1.8169  1.7993
   45CHL1   C23 5795   1.442   4.313   9.043  0.1549 -0.2587  0.4667
   45CHL1  H23A 5796   1.534   4.292   8.984 -0.9338 -1.2888 -0.9125
   45CHL1  H23B 5797   1.424   4.222   9.104  0.1000 -0.2474  0.4698
   45CHL1   C24 5798   1.316   4.353   8.953 -0.0728 -0.3522 -0.5912
   45CHL1  H24A 5799   1.224   4.368   9.013  0.4615 -2.4925  0.8327
   45CHL1  H24B 5800   1.342   4.452   8.910  3.0356 -0.5736  0.5948
   45CHL1   C25 5801   1.285   4.248   8.848 -0.1925  0.1104  0.5415
   45CHL1   H25 5802   1.371   4.239   8.779 -1.1733 -1.0308 -0.5568
   45CHL1   C26 5803   1.273   4.106   8.908 -0.6114  0.0003 -0.2561
   45CHL1  H26A 5804   1.181   4.101   8.971 -0.4356 -0.8340 -0.0619
   45CHL1  H26B 5805   1.265   4.036   8.822  0.0814 -2.8960  1.9726
   45CHL1  H26C 5806   1.355   4.072   8.975 -0.8356  1.0516  0.5603
   45CHL1   C27 5807   1.160   4.271   8.760 -0.3351 -0.1564  0.0624
   45CHL1  H27A 5808   1.071   4.299   8.820 -0.6495  0.7061 -0.7966
   45CHL1  H27B 5809   1.176   4.346   8.680  1.4448 -0.3360  0.2208
   45CHL1  H27C 5810   1.135   4.186   8.692  1.3812  1.4931 -2.7135
   46CHL1    C3 5811   4.246   2.503  10.069 -0.2639  0.0883 -0.2455
   46CHL1    H3 5812   4.301   2.408  10.054 -0.9755 -0.0620 -1.9605
   46CHL1    O3 5813   4.242   2.540  10.204 -0.0760  0.4798  0.1819
   46CHL1   H3' 5814   4.192   2.472  10.251  1.0759  0.7281  1.8123
   46CHL1    C4 5815   4.310   2.622   9.988  0.3133  0.3930  0.8053
   46CHL1   H4A 5816   4.252   2.709  10.024  0.9343  0.3028  2.0130
   46CHL1   H4B 5817   4.414   2.631  10.024 -0.3198  3.4518  1.9720
   46CHL1    C5 5818   4.306   2.611   9.835 -0.1386  0.0341  0.5346
   46CHL1    C6 5819   4.420   2.633   9.766 -1.2420  0.7702 -0.2700
   46CHL1    H6 5820   4.516   2.647   9.819 -2.8713  0.8905  2.7308
   46CHL1    C7 5821   4.437   2.641   9.616  0.6138  0.7323 -0.6739
   46CHL1   H7A 5822   4.486   2.738   9.596  1.1286  1.0446  1.9223
   46CHL1   H7B 5823   4.510   2.563   9.587  0.9527  0.7346  0.1704
   46CHL1    C8 5824   4.299   2.625   9.544 -0.1217  0.8113  0.3413
   46CHL1    H8 5825   4.262   2.728   9.522 -1.3337  0.2255 -0.3852
   46CHL1   C14 5826   4.326   2.573   9.408 -0.2662  0.3693  0.0372
   46CHL1   H14 5827   4.371   2.473   9.423  0.0234  0.5580  0.4441
   46CHL1   C15 5828   4.430   2.649   9.326  0.3088 -0.1043 -0.4711
   46CHL1  H15A 5829   4.396   2.754   9.346  0.0405 -0.1576 -0.6358
   46CHL1  H15B 5830   4.528   2.625   9.371 -1.7362  0.3097  4.5657
   46CHL1   C16 5831   4.405   2.603   9.190 -0.2072  0.0398  0.1657
   46CHL1  H16A 5832   4.400   2.694   9.126  1.4901  0.7364  1.0043
   46CHL1  H16B 5833   4.483   2.532   9.155 -1.2758 -0.3589 -1.4757
   46CHL1   C17 5834   4.278   2.508   9.192 -0.4691 -0.1359 -0.0097
   46CHL1   H17 5835   4.318   2.407   9.216 -1.4780 -0.2966  1.0205
   46CHL1   C13 5836   4.204   2.551   9.322 -0.8410  0.7834 -0.0528
   46CHL1   C18 5837   4.128   2.685   9.297  0.0619 -0.7618  0.2940
   46CHL1  H18A 5838   4.042   2.672   9.228 -0.9835  2.3607  0.9067
   46CHL1  H18B 5839   4.097   2.732   9.393  1.9231  2.3622 -0.5557
   46CHL1  H18C 5840   4.181   2.766   9.242 -1.2867 -0.9046 -1.2583
   46CHL1   C12 5841   4.112   2.448   9.398 -0.1505 -0.5039 -0.3576
   46CHL1  H12A 5842   4.013   2.429   9.352 -1.3789  0.9034  1.6235
   46CHL1  H12B 5843   4.170   2.354   9.401  1.4520  0.4351 -1.1823
   46CHL1   C11 5844   4.078   2.503   9.541  0.5361  0.5479  0.4709
   46CHL1  H11A 5845   4.030   2.602   9.527  2.3744  1.5721  1.2242
   46CHL1  H11B 5846   4.011   2.437   9.600  0.3889  1.2627  1.1086
   46CHL1    C9 5847   4.206   2.522   9.620 -0.0793  0.2054 -0.2788
   46CHL1    H9 5848   4.274   2.434   9.625 -0.4158 -0.0717 -0.5504
   46CHL1   C10 5849   4.172   2.566   9.770  0.6097 -0.0639  0.3758
   46CHL1   C19 5850   4.081   2.691   9.770 -0.5297  0.0176  0.8730
   46CHL1  H19A 5851   4.057   2.742   9.866  1.8748  0.1698  1.4140
   46CHL1  H19B 5852   4.110   2.758   9.686 -2.2493 -0.3569 -0.0569
   46CHL1  H19C 5853   3.983   2.651   9.735  0.0678 -1.2737  0.6713
   46CHL1    C1 5854   4.108   2.456   9.855  0.3447 -0.2637  0.3991
   46CHL1   H1A 5855   4.006   2.442   9.814  1.0956  2.3664 -2.5944
   46CHL1   H1B 5856   4.168   2.363   9.851 -1.1777 -1.2520  0.0860
   46CHL1    C2 5857   4.102   2.490  10.012  0.0601  0.4649  0.7122
   46CHL1   H2A 5858   4.061   2.402  10.067  0.4799 -0.4682 -0.4487
   46CHL1   H2B 5859   4.045   2.581  10.042  0.6542  0.0194  3.3814
   46CHL1   C20 5860   4.201   2.501   9.059 -0.7140 -0.3891  0.3429
   46CHL1   H20 5861   4.161   2.604   9.049  0.2575  0.1642  1.9264
   46CHL1   C21 5862   4.094   2.393   9.069  0.0915 -0.4388 -0.1455
   46CHL1  H21A 5863   4.128   2.288   9.087 -0.3945 -0.6476 -0.4334
   46CHL1  H21B 5864   4.034   2.389   8.975  2.2225 -0.6529 -1.5483
   46CHL1  H21C 5865   4.024   2.413   9.152 -0.4080  1.1905 -0.9326
   46CHL1   C22 5866   4.299   2.475   8.937 -0.2417  0.4603  0.1368
   46CHL1  H22A 5867   4.352   2.568   8.908  2.7831 -1.0057  0.7434
   46CHL1  H22B 5868   4.368   2.393   8.967  0.1536  0.7242 -0.0528
   46CHL1   C23 5869   4.225   2.442   8.808  0.6523  0.3200 -0.5998
   46CHL1  H23A 5870   4.155   2.357   8.819  0.8792  0.0922 -0.9173
   46CHL1  H23B 5871   4.159   2.529   8.786 -0.8698 -0.9376 -1.0492
   46CHL1   C24 5872   4.317   2.390   8.695 -0.0553 -0.5441 -0.3133
   46CHL1  H24A 5873   4.411   2.449   8.682  0.3743 -1.3817 -1.0747
   46CHL1  H24B 5874   4.346   2.288   8.726 -0.4560 -0.2896  0.9096
   46CHL1   C25 5875   4.260   2.388   8.557 -0.0161  0.2087 -0.1615
   46CHL1   H25 5876   4.227   2.487   8.518 -1.0184 -0.5006 -1.1514
   46CHL1   C26 5877   4.372   2.347   8.457 -0.4798  0.7252 -0.3039
   46CHL1  H26A 5878   4.324   2.331   8.358  0.2173  3.2537 -1.0713
   46CHL1  H26B 5879   4.443   2.431   8.444 -0.7164  0.7336 -1.6671
   46CHL1  H26C 5880   4.413   2.255   8.504  0.9621  1.0182 -0.9530
   46CHL1   C27 5881   4.135   2.298   8.546 -0.2731 -0.2060 -0.3615
   46CHL1  H27A 5882   4.067   2.333   8.626 -0.0748 -0.0902 -0.2433
   46CHL1  H27B 5883   4.079   2.315   8.451  2.0076  1.7778 -1.4192
   46CHL1  H27C 5884   4.159   2.190   8.551 -0.5754 -0.2083  1.3326
   47CHL1    C3 5885   4.852   5.394   9.997 -0.6559 -0.0691 -0.3037
   47CHL1    H3 5886   4.766   5.324  10.005 -0.0698 -0.8939 -1.0003
   47CHL1    O3 5887   4.930   5.378  10.115 -0.0696 -0.0612 -0.3605
   47CHL1   H3' 5888   4.887   5.442  10.172 -2.0309 -1.1700 -0.5540
   47CHL1    C4 5889   4.944   5.351   9.883 -0.7607 -0.2305 -0.0812
   47CHL1   H4A 5890   5.037   5.412   9.887 -1.9391  1.5219  1.3364
   47CHL1   H4B 5891   4.966   5.244   9.906  0.1166 -0.1266 -0.4099
   47CHL1    C5 5892   4.872   5.364   9.750 -0.3356 -0.4979  1.1060
   47CHL1    C6 5893   4.866   5.264   9.668  0.9001 -0.1836 -0.1961
   47CHL1    H6 5894   4.924   5.172   9.688  0.6647  0.1475  2.1475
   47CHL1    C7 5895   4.787   5.274   9.538 -0.0393 -0.3757  0.2785
   47CHL1   H7A 5896   4.844   5.219   9.460 -0.4953 -1.1476  0.4897
   47CHL1   H7B 5897   4.699   5.208   9.546  0.4554 -1.2274 -1.1262
   47CHL1    C8 5898   4.761   5.415   9.486 -0.2395 -0.0632 -0.2525
   47CHL1    H8 5899   4.854   5.460   9.445 -1.0672  0.9872 -0.9839
   47CHL1   C14 5900   4.661   5.406   9.372 -0.1542 -0.2469 -0.4517
   47CHL1   H14 5901   4.567   5.375   9.424  0.9533  0.1898  1.8750
   47CHL1   C15 5902   4.685   5.304   9.260  0.3945 -0.4082  0.2414
   47CHL1  H15A 5903   4.793   5.309   9.235  0.6676  2.5045  1.7858
   47CHL1  H15B 5904   4.652   5.204   9.296 -0.3828 -0.1373  0.2905
   47CHL1   C16 5905   4.597   5.365   9.148  0.3941  0.2619  0.0150
   47CHL1  H16A 5906   4.658   5.380   9.056  1.9069 -1.4219  0.7218
   47CHL1  H16B 5907   4.512   5.294   9.133  0.5344  0.2610 -0.7909
   47CHL1   C17 5908   4.543   5.506   9.189 -0.5098  0.1355 -0.9236
   47CHL1   H17 5909   4.451   5.478   9.243  0.7895 -0.7317  0.8834
   47CHL1   C13 5910   4.628   5.544   9.311  0.9206 -0.5108  0.2040
   47CHL1   C18 5911   4.752   5.612   9.254  0.3088  0.0191 -0.1365
   47CHL1  H18A 5912   4.805   5.548   9.180 -2.5406 -1.5809 -0.8981
   47CHL1  H18B 5913   4.714   5.706   9.207  0.5798 -0.7491 -1.9339
   47CHL1  H18C 5914   4.810   5.625   9.348  2.1418 -0.1387 -1.2242
   47CHL1   C12 5915   4.562   5.615   9.426 -0.1519  0.1426 -0.1189
   47CHL1  H12A 5916   4.533   5.716   9.391 -0.2053  1.3416  3.2069
   47CHL1  H12B 5917   4.473   5.551   9.448 -1.8546  2.0777 -1.2112
   47CHL1   C11 5918   4.641   5.624   9.561  0.3788  0.7337  0.2400
   47CHL1  H11A 5919   4.725   5.694   9.542  0.0698  0.8736 -0.6357
   47CHL1  H11B 5920   4.579   5.670   9.641 -0.3445 -2.0249  1.3415
   47CHL1    C9 5921   4.710   5.489   9.605  0.6574 -0.2183  0.4634
   47CHL1    H9 5922   4.628   5.428   9.649 -0.6836  0.9570 -0.3783
   47CHL1   C10 5923   4.811   5.507   9.722  0.4965  0.6922  0.8074
   47CHL1   C19 5924   4.930   5.596   9.672 -0.3122  0.4976  0.1937
   47CHL1  H19A 5925   4.899   5.703   9.663  1.6756  0.9874 -1.0160
   47CHL1  H19B 5926   5.011   5.603   9.747  0.9737 -0.7600 -1.0596
   47CHL1  H19C 5927   4.966   5.551   9.578  1.9443  2.4145  0.1087
   47CHL1    C1 5928   4.734   5.560   9.851 -0.1484  0.3429  0.7605
   47CHL1   H1A 5929   4.714   5.667   9.830 -0.2823 -0.2516 -2.3794
   47CHL1   H1B 5930   4.642   5.500   9.867 -0.3650 -0.0740 -1.9441
   47CHL1    C2 5931   4.813   5.545   9.977  0.4119  0.1295 -0.4244
   47CHL1   H2A 5932   4.751   5.569  10.066 -2.0458  0.1934 -2.1178
   47CHL1   H2B 5933   4.905   5.608   9.981  0.6621 -0.2617 -0.0410
   47CHL1   C20 5934   4.518   5.587   9.064  0.0124 -0.2607  0.6598
   47CHL1   H20 5935   4.609   5.626   9.013 -0.4148 -1.1815 -0.8544
   47CHL1   C21 5936   4.437   5.713   9.107  0.5878  0.0239 -0.2021
   47CHL1  H21A 5937   4.393   5.762   9.017 -0.2927  0.0533  0.2402
   47CHL1  H21B 5938   4.509   5.791   9.142  0.2636 -0.6900  2.1521
   47CHL1  H21C 5939   4.374   5.686   9.194  1.5899 -0.9901  0.2215
   47CHL1   C22 5940   4.450   5.503   8.948 -0.0201 -0.5675  0.7066
   47CHL1  H22A 5941   4.455   5.576   8.865  1.0636  0.6486  1.8103
   47CHL1  H22B 5942   4.511   5.417   8.912  0.3577  0.4464 -1.1434
   47CHL1   C23 5943   4.295   5.480   8.952  0.2842  0.3989  0.4620
   47CHL1  H23A 5944   4.277   5.413   9.039  1.7160 -0.4064  0.1641
   47CHL1  H23B 5945   4.248   5.579   8.969 -0.9217 -0.1445  0.3240
   47CHL1   C24 5946   4.221   5.414   8.834 -0.2729 -0.0550  0.5751
   47CHL1  H24A 5947   4.248   5.454   8.735 -0.3564  2.2093  1.4331
   47CHL1  H24B 5948   4.268   5.314   8.837  0.8577  0.5073  2.1346
   47CHL1   C25 5949   4.067   5.385   8.868 -0.0869 -0.1408  0.4697
   47CHL1   H25 5950   4.068   5.374   8.978  0.8348  0.8004  0.5602
   47CHL1   C26 5951   3.981   5.506   8.833 -0.2109  0.2929 -0.2253
   47CHL1  H26A 5952   4.008   5.590   8.900  0.5640  0.3576 -0.6066
   47CHL1  H26B 5953   3.874   5.488   8.859 -0.4296  0.9832 -0.6178
   47CHL1  H26C 5954   4.000   5.537   8.728 -1.3871 -0.6038 -0.7143
   47CHL1   C27 5955   4.011   5.251   8.809  0.0778 -0.1376  0.4523
   47CHL1  H27A 5956   4.003   5.260   8.699 -1.6341 -2.9741  0.2859
   47CHL1  H27B 5957   4.081   5.167   8.828 -0.5152 -0.2279  2.3563
   47CHL1  H27C 5958   3.917   5.224   8.861  0.1169  1.4714  1.3813
   48CHL1    C3 5959   5.856   6.279  10.011 -0.2461 -0.0291  0.4816
   48CHL1    H3 5960   5.889   6.174   9.998  0.2017  0.0674  0.8460
   48CHL1    O3 5961   5.864   6.311  10.150 -0.4046  0.2866 -0.0448
   48CHL1   H3' 5962   5.819   6.238  10.194  0.9372  0.0370  0.9202
   48CHL1    C4 5963   5.939   6.381   9.926 -0.1659 -0.1866  0.3644
   48CHL1   H4A 5964   5.900   6.483   9.946  0.5679  0.5065 -1.6446
   48CHL1   H4B 5965   6.045   6.375   9.958  0.1411  1.0672 -0.3688
   48CHL1    C5 5966   5.914   6.344   9.783 -0.0221  0.7382 -0.1808
   48CHL1    C6 5967   6.011   6.315   9.700 -0.0154 -0.5841 -0.2343
   48CHL1    H6 5968   6.117   6.322   9.729  0.4045 -1.1267 -1.5699
   48CHL1    C7 5969   5.998   6.281   9.552 -0.0355 -0.4167  0.1391
   48CHL1   H7A 5970   6.081   6.333   9.499 -0.2712 -1.3404 -1.1563
   48CHL1   H7B 5971   6.012   6.171   9.543 -0.8089 -0.6634  1.8208
   48CHL1    C8 5972   5.859   6.328   9.494 -0.1525 -0.7497  0.3887
   48CHL1    H8 5973   5.858   6.439   9.486 -0.5472 -0.7527  0.3736
   48CHL1   C14 5974   5.838   6.263   9.355 -0.4163  0.5529  0.2225
   48CHL1   H14 5975   5.833   6.153   9.365 -0.0020  0.4453 -0.7680
   48CHL1   C15 5976   5.949   6.282   9.252  0.0045 -0.3547  0.3492
   48CHL1  H15A 5977   5.975   6.389   9.268 -2.9425  0.9256 -2.8654
   48CHL1  H15B 5978   6.043   6.223   9.258 -0.0336 -0.4649 -0.1916
   48CHL1   C16 5979   5.882   6.266   9.118  0.0408  0.4051 -0.5185
   48CHL1  H16A 5980   5.894   6.359   9.058  0.5434  1.1009  0.6484
   48CHL1  H16B 5981   5.924   6.172   9.077  0.7224 -0.1934  1.5086
   48CHL1   C17 5982   5.731   6.235   9.149 -0.1558 -0.1839  0.6549
   48CHL1   H17 5983   5.724   6.125   9.160  0.0306 -0.3933 -1.1376
   48CHL1   C13 5984   5.708   6.303   9.287  0.8049  0.2227  0.0871
   48CHL1   C18 5985   5.688   6.456   9.258  0.8123 -0.0608 -0.0940
   48CHL1  H18A 5986   5.765   6.506   9.196  0.6415  1.8729  1.2011
   48CHL1  H18B 5987   5.585   6.471   9.219  0.0576 -1.7041  1.2078
   48CHL1  H18C 5988   5.684   6.510   9.355 -0.3732  0.4245 -0.4019
   48CHL1   C12 5989   5.590   6.256   9.383 -0.8672  0.3042 -0.0670
   48CHL1  H12A 5990   5.488   6.288   9.355 -0.7936  0.3848 -0.2468
   48CHL1  H12B 5991   5.592   6.146   9.393 -0.0140  0.4773  1.8111
   48CHL1   C11 5992   5.610   6.312   9.527 -0.0600 -0.3441 -0.4542
   48CHL1  H11A 5993   5.598   6.422   9.519 -0.8286 -0.5398 -2.1066
   48CHL1  H11B 5994   5.533   6.277   9.597 -1.5090  1.2375 -1.2185
   48CHL1    C9 5995   5.751   6.284   9.588  0.2981  0.6292  0.5917
   48CHL1    H9 5996   5.763   6.174   9.603  1.3522  0.7415  0.6267
   48CHL1   C10 5997   5.767   6.339   9.732 -0.4353  0.2122 -0.1446
   48CHL1   C19 5998   5.711   6.482   9.737 -0.2557  0.7127 -0.3536
   48CHL1  H19A 5999   5.744   6.545   9.822 -0.4113  0.5048 -0.1418
   48CHL1  H19B 6000   5.734   6.524   9.637 -1.3395  0.7020 -0.6208
   48CHL1  H19C 6001   5.601   6.486   9.722 -0.2905 -3.0519 -1.7812
   48CHL1    C1 6002   5.682   6.257   9.827 -0.0053 -0.5188  0.3484
   48CHL1   H1A 6003   5.575   6.274   9.802  0.4641 -2.0377 -2.9111
   48CHL1   H1B 6004   5.700   6.149   9.809  1.3852 -0.5235  1.6636
   48CHL1    C2 6005   5.710   6.276   9.973  0.6478  0.3906  0.1921
   48CHL1   H2A 6006   5.649   6.198  10.024 -0.4063  0.8233 -0.4154
   48CHL1   H2B 6007   5.670   6.378   9.992  1.2980  0.6612  0.1166
   48CHL1   C20 6008   5.639   6.263   9.029 -0.7053 -0.2476 -0.0292
   48CHL1   H20 6009   5.636   6.371   9.003  2.1363  0.2877  1.5766
   48CHL1   C21 6010   5.496   6.226   9.062  0.0669  0.6232  0.6324
   48CHL1  H21A 6011   5.447   6.270   9.151 -0.7315  1.1130 -0.0375
   48CHL1  H21B 6012   5.501   6.116   9.077  0.0532  0.3950 -0.9317
   48CHL1  H21C 6013   5.435   6.252   8.973  0.5863 -1.9238 -0.5371
   48CHL1   C22 6014   5.696   6.191   8.898  0.1040 -0.2298 -0.3148
   48CHL1  H22A 6015   5.727   6.087   8.922  2.3483  0.1412 -1.4620
   48CHL1  H22B 6016   5.608   6.172   8.833 -1.0838 -1.0667  1.4926
   48CHL1   C23 6017   5.793   6.285   8.813  0.6465 -0.0833 -0.6284
   48CHL1  H23A 6018   5.781   6.384   8.861 -1.9855 -1.8025  2.5018
   48CHL1  H23B 6019   5.900   6.259   8.826  1.0044  0.4694 -2.3295
   48CHL1   C24 6020   5.768   6.263   8.661  0.2350 -0.4443 -0.4550
   48CHL1  H24A 6021   5.807   6.166   8.623 -0.8326 -1.0311 -0.0589
   48CHL1  H24B 6022   5.659   6.267   8.641  0.1661  1.0418  0.1360
   48CHL1   C25 6023   5.842   6.364   8.577 -0.3200  0.1942  0.7045
   48CHL1   H25 6024   5.824   6.336   8.471 -2.5209  1.2828  0.7744
   48CHL1   C26 6025   5.786   6.503   8.613 -0.3016 -0.4434  0.2473
   48CHL1  H26A 6026   5.678   6.491   8.591  0.0797 -4.1200  0.1755
   48CHL1  H26B 6027   5.806   6.542   8.715  1.1563 -1.5397  0.4000
   48CHL1  H26C 6028   5.824   6.581   8.543  0.0241  0.6314  1.6057
   48CHL1   C27 6029   5.986   6.379   8.608 -0.5148 -0.1516  0.2866
   48CHL1  H27A 6030   6.032   6.464   8.553  0.9339  0.3504  2.2165
   48CHL1  H27B 6031   6.010   6.392   8.716  1.9632  0.7818 -0.3395
   48CHL1  H27C 6032   6.039   6.287   8.574  0.2219  0.1909  0.5127
   49CHL1    C3 6033   3.960   2.083  10.149 -0.1120 -0.8010  0.5191
   49CHL1    H3 6034   3.928   2.187  10.132  4.5995  0.9562  1.5181
   49CHL1    O3 6035   3.976   2.062  10.285  0.4627  0.1936  0.2403
   49CHL1   H3' 6036   4.068   2.045  10.308  0.7532  1.3505 -0.0451
   49CHL1    C4 6037   3.849   1.987  10.103  0.5069 -0.7045  0.1227
   49CHL1   H4A 6038   3.866   1.883  10.139  2.0441  0.0606  1.6446
   49CHL1   H4B 6039   3.754   2.002  10.159  1.3601 -1.2209  1.7313
   49CHL1    C5 6040   3.824   2.002   9.954 -0.7291 -0.0362 -0.7173
   49CHL1    C6 6041   3.704   2.046   9.909 -0.7280 -0.3129 -0.4835
   49CHL1    H6 6042   3.628   2.060   9.987 -2.2627 -2.6050 -1.4965
   49CHL1    C7 6043   3.667   2.054   9.765 -0.7003 -0.2247  0.3621
   49CHL1   H7A 6044   3.575   1.993   9.744 -2.5043  2.6232 -0.2359
   49CHL1   H7B 6045   3.642   2.156   9.730 -0.2761 -0.3814 -0.4075
   49CHL1    C8 6046   3.772   1.999   9.665 -0.3558  0.1705 -0.4629
   49CHL1    H8 6047   3.763   1.889   9.664 -2.4946  0.3134 -1.3824
   49CHL1   C14 6048   3.750   2.042   9.523  0.0022 -0.3739  0.2335
   49CHL1   H14 6049   3.764   2.152   9.519 -3.1565  0.0425 -1.0646
   49CHL1   C15 6050   3.612   2.005   9.462 -0.5581 -0.7823 -0.2694
   49CHL1  H15A 6051   3.579   1.902   9.485  0.8154 -1.2560 -0.3691
   49CHL1  H15B 6052   3.545   2.079   9.513  0.5405  0.4197 -0.5415
   49CHL1   C16 6053   3.634   2.025   9.317  0.4402  0.0657  0.5238
   49CHL1  H16A 6054   3.607   1.924   9.278  1.1258  0.2751 -0.5047
   49CHL1  H16B 6055   3.567   2.096   9.264 -0.1305 -0.4557  0.5413
   49CHL1   C17 6056   3.783   2.052   9.297 -0.8159  0.0110  0.0205
   49CHL1   H17 6057   3.796   2.162   9.295 -0.3557 -0.0490 -1.0463
   49CHL1   C13 6058   3.855   1.997   9.429  0.2460 -0.9880  0.3509
   49CHL1   C18 6059   3.868   1.844   9.413 -0.0978 -0.2048  0.6984
   49CHL1  H18A 6060   3.769   1.794   9.411 -1.5048  2.5075  0.2257
   49CHL1  H18B 6061   3.929   1.816   9.325  0.5360  0.8448  0.7981
   49CHL1  H18C 6062   3.908   1.796   9.505  0.9615 -0.4318  0.1327
   49CHL1   C12 6063   3.984   2.062   9.464 -0.8953 -0.0824 -0.8375
   49CHL1  H12A 6064   4.066   2.031   9.395 -1.0073 -1.4030 -0.3794
   49CHL1  H12B 6065   3.980   2.173   9.474 -0.4800 -0.2876  1.9165
   49CHL1   C11 6066   4.020   2.013   9.607 -0.1975 -0.4691  0.1735
   49CHL1  H11A 6067   4.052   1.907   9.601 -0.4705 -0.5122 -0.5760
   49CHL1  H11B 6068   4.112   2.065   9.640 -0.6325 -1.6681  3.4540
   49CHL1    C9 6069   3.913   2.036   9.714  0.2015 -0.0675 -0.1415
   49CHL1    H9 6070   3.917   2.147   9.719  2.2912  0.0097 -2.4785
   49CHL1   C10 6071   3.946   1.984   9.863 -0.2585 -0.4589 -0.3588
   49CHL1   C19 6072   3.985   1.834   9.860 -0.3684  0.0604 -0.0353
   49CHL1  H19A 6073   4.005   1.795   9.962 -0.3731  2.7590  1.0342
   49CHL1  H19B 6074   3.911   1.779   9.798  0.0940  1.6995 -2.1023
   49CHL1  H19C 6075   4.076   1.819   9.798  1.6519 -2.1690  3.3095
   49CHL1    C1 6076   4.069   2.062   9.924 -0.5686  0.7149  0.0112
   49CHL1   H1A 6077   4.154   2.038   9.857 -1.7066 -0.1941 -1.1170
   49CHL1   H1B 6078   4.051   2.169   9.903  0.6702  1.4024  2.2647
   49CHL1    C2 6079   4.093   2.063  10.073 -0.2235 -0.1601  0.6212
   49CHL1   H2A 6080   4.172   2.135  10.102 -3.4371  4.0382 -0.5069
   49CHL1   H2B 6081   4.127   1.961  10.100  1.5478  0.1525 -0.3373
   49CHL1   C20 6082   3.833   2.003   9.158 -0.7124  0.1377 -0.0197
   49CHL1   H20 6083   3.807   1.894   9.157  1.2401 -0.3349 -1.8862
   49CHL1   C21 6084   3.987   2.017   9.141 -0.0287 -0.4286  0.5958
   49CHL1  H21A 6085   4.029   1.980   9.045 -2.0977  0.2040 -0.5949
   49CHL1  H21B 6086   4.048   1.959   9.213  0.6755 -0.5030 -0.0464
   49CHL1  H21C 6087   4.009   2.126   9.136  1.1288 -0.7319 -3.0111
   49CHL1   C22 6088   3.750   2.062   9.035 -0.2837  0.5968 -0.2198
   49CHL1  H22A 6089   3.649   2.085   9.075  0.1059 -0.2419  1.2773
   49CHL1  H22B 6090   3.803   2.157   9.016  0.2107  0.9791  2.7645
   49CHL1   C23 6091   3.757   1.979   8.906  0.3842  0.3215 -0.2040
   49CHL1  H23A 6092   3.859   1.941   8.886  0.5448  0.2143  0.7844
   49CHL1  H23B 6093   3.688   1.892   8.913  1.4405 -0.3809  1.8396
   49CHL1   C24 6094   3.730   2.072   8.781  0.0522 -0.2852 -0.4880
   49CHL1  H24A 6095   3.658   2.150   8.813  1.6344  1.5448 -1.3163
   49CHL1  H24B 6096   3.819   2.132   8.751 -0.1197 -0.0024 -0.4282
   49CHL1   C25 6097   3.684   2.003   8.651  0.0019 -0.2914  0.7533
   49CHL1   H25 6098   3.581   1.966   8.670 -0.8635  1.3196 -0.6601
   49CHL1   C26 6099   3.676   2.107   8.542 -0.6482  0.5871  0.0247
   49CHL1  H26A 6100   3.583   2.164   8.562 -0.7235  1.0570 -1.5582
   49CHL1  H26B 6101   3.765   2.174   8.537 -0.6140  0.4860 -0.8767
   49CHL1  H26C 6102   3.663   2.058   8.443  0.3148 -1.7585  1.0141
   49CHL1   C27 6103   3.774   1.880   8.607 -0.0940  0.3655 -0.5632
   49CHL1  H27A 6104   3.720   1.838   8.520 -1.2198  1.1474 -0.2469
   49CHL1  H27B 6105   3.874   1.908   8.566 -0.0594 -3.5310 -3.4658
   49CHL1  H27C 6106   3.790   1.805   8.687 -2.4933 -1.1145 -1.4153
   50CHL1    C3 6107   0.575   3.688  10.093 -0.3684 -0.0253  0.5822
   50CHL1    H3 6108   0.502   3.607  10.070 -0.8182  0.0501  1.7409
   50CHL1    O3 6109   0.627   3.666  10.221 -0.5564 -0.0948  1.0424
   50CHL1   H3' 6110   0.621   3.755  10.258 -0.3755  0.3543  0.0299
   50CHL1    C4 6111   0.685   3.702   9.991 -0.2397  0.2113 -0.2883
   50CHL1   H4A 6112   0.745   3.783  10.039 -1.5242 -0.9587  3.4294
   50CHL1   H4B 6113   0.745   3.609   9.990  1.0894  0.9335  3.4414
   50CHL1    C5 6114   0.638   3.748   9.856  0.0502  0.8900  0.2495
   50CHL1    C6 6115   0.659   3.670   9.749  0.2307 -0.9400 -0.1476
   50CHL1    H6 6116   0.716   3.577   9.761  1.6090 -0.1145 -0.1501
   50CHL1    C7 6117   0.615   3.695   9.609 -0.4714 -0.0488 -0.4521
   50CHL1   H7A 6118   0.703   3.674   9.544  0.3552 -1.1755  1.0157
   50CHL1   H7B 6119   0.543   3.619   9.572  1.3703 -1.3105 -1.5416
   50CHL1    C8 6120   0.565   3.846   9.597  0.5106  0.0682 -0.0203
   50CHL1    H8 6121   0.646   3.921   9.608  1.8680 -1.4771  0.7303
   50CHL1   C14 6122   0.490   3.854   9.457  0.1290  0.8386  0.2257
   50CHL1   H14 6123   0.405   3.783   9.468  0.1600  0.3950 -2.1445
   50CHL1   C15 6124   0.572   3.815   9.329 -0.0017  1.1253  0.0250
   50CHL1  H15A 6125   0.677   3.852   9.336  0.0998  0.9192 -0.3982
   50CHL1  H15B 6126   0.559   3.705   9.320  2.5613  0.7765  0.0325
   50CHL1   C16 6127   0.507   3.902   9.218  0.7221  0.6699  0.3785
   50CHL1  H16A 6128   0.587   3.962   9.168 -1.8431  1.2105 -3.2811
   50CHL1  H16B 6129   0.472   3.836   9.136  0.7474  2.6941 -1.3147
   50CHL1   C17 6130   0.389   3.979   9.281  0.6490 -0.3370  0.0224
   50CHL1   H17 6131   0.302   3.911   9.291  0.6300 -0.2285  0.6640
   50CHL1   C13 6132   0.434   3.995   9.428 -0.3322  0.4119 -0.2549
   50CHL1   C18 6133   0.544   4.101   9.437 -0.8189 -0.7173  0.0576
   50CHL1  H18A 6134   0.501   4.199   9.407 -0.6056 -1.0009 -1.1626
   50CHL1  H18B 6135   0.565   4.128   9.543  0.1913  2.4333 -0.8832
   50CHL1  H18C 6136   0.639   4.076   9.386 -1.2646  0.4477 -1.3713
   50CHL1   C12 6137   0.334   4.013   9.540 -0.4325  0.3421 -0.0212
   50CHL1  H12A 6138   0.286   4.113   9.533  0.5779  0.8722  0.3684
   50CHL1  H12B 6139   0.256   3.935   9.526  0.0178 -0.1896  0.4087
   50CHL1   C11 6140   0.372   4.002   9.689 -0.8347  0.4233  0.0013
   50CHL1  H11A 6141   0.430   4.090   9.726 -1.5252  0.6647  0.5119
   50CHL1  H11B 6142   0.282   3.988   9.752  0.1991  2.6124  2.0143
   50CHL1    C9 6143   0.468   3.875   9.713  0.1004  0.4417 -0.1378
   50CHL1    H9 6144   0.394   3.792   9.723  1.2266 -0.5276  0.3690
   50CHL1   C10 6145   0.538   3.869   9.852  0.2610  0.0397  0.6123
   50CHL1   C19 6146   0.619   3.999   9.877  0.4832  0.1608  0.0360
   50CHL1  H19A 6147   0.652   4.012   9.983  1.3753 -2.9441  0.1892
   50CHL1  H19B 6148   0.712   4.004   9.817 -1.7611 -1.7687 -3.7420
   50CHL1  H19C 6149   0.555   4.089   9.868 -1.1639 -1.0897 -0.9490
   50CHL1    C1 6150   0.434   3.857   9.970 -0.8901 -0.0502  0.2977
   50CHL1   H1A 6151   0.399   3.962   9.973 -0.0162  0.2193  1.2956
   50CHL1   H1B 6152   0.358   3.781   9.941 -0.0374 -0.5099 -0.7883
   50CHL1    C2 6153   0.492   3.820  10.107  0.4914  0.4912  0.5924
   50CHL1   H2A 6154   0.408   3.798  10.175 -0.1585  2.4907  0.4410
   50CHL1   H2B 6155   0.554   3.901  10.150 -0.3984  0.5279  1.8015
   50CHL1   C20 6156   0.358   4.107   9.205  0.0159 -0.0908 -0.4866
   50CHL1   H20 6157   0.443   4.178   9.206 -0.7002  0.7918  1.8288
   50CHL1   C21 6158   0.254   4.191   9.281 -0.0277 -0.1476 -0.3671
   50CHL1  H21A 6159   0.292   4.242   9.371 -1.1857 -1.4018  0.8612
   50CHL1  H21B 6160   0.166   4.125   9.296  0.3930 -0.6845 -0.2562
   50CHL1  H21C 6161   0.224   4.283   9.225  2.2308 -0.1465 -1.6284
   50CHL1   C22 6162   0.310   4.075   9.063  0.1808 -0.7486 -0.5427
   50CHL1  H22A 6163   0.395   4.036   9.003  2.7546  3.2444  0.3725
   50CHL1  H22B 6164   0.243   3.986   9.064 -1.4551  0.4480 -0.2017
   50CHL1   C23 6165   0.249   4.189   8.984 -0.1401  0.8596 -0.1634
   50CHL1  H23A 6166   0.160   4.231   9.035 -0.5461  0.3132 -0.4159
   50CHL1  H23B 6167   0.324   4.269   8.963  2.1554 -1.2108 -0.1283
   50CHL1   C24 6168   0.196   4.148   8.847 -0.0381 -0.4080 -0.6408
   50CHL1  H24A 6169   0.285   4.122   8.786 -0.6279  1.1167 -2.1951
   50CHL1  H24B 6170   0.131   4.059   8.855 -0.4216 -0.0964 -0.2124
   50CHL1   C25 6171   0.121   4.252   8.757  1.0771  0.1644 -1.0275
   50CHL1   H25 6172   0.190   4.339   8.762  1.4704 -0.2647  1.9383
   50CHL1   C26 6173   0.111   4.217   8.615 -0.1497  0.3739 -0.0360
   50CHL1  H26A 6174   0.066   4.119   8.590 -1.9251  1.3302 -0.7175
   50CHL1  H26B 6175   0.056   4.299   8.563  1.2175 -0.0200 -2.1688
   50CHL1  H26C 6176   0.213   4.203   8.574 -1.0761 -0.9649 -1.9903
   50CHL1   C27 6177  -0.009   4.291   8.823  0.5071  0.4624 -0.2538
   50CHL1  H27A 6178   0.002   4.308   8.932 -0.4654 -0.7498  0.0435
   50CHL1  H27B 6179  -0.057   4.380   8.779 -0.6386  0.0561  0.1612
   50CHL1  H27C 6180  -0.078   4.204   8.827  0.4747  0.4561 -0.8911
   51CHL1    C3 6181   1.301   6.763  10.279  0.2586  0.8268  0.0978
   51CHL1    H3 6182   1.302   6.874  10.280 -1.9242  0.8877 -0.4855
   51CHL1    O3 6183   1.266   6.725  10.414 -0.1914  0.1606  0.0913
   51CHL1   H3' 6184   1.297   6.635  10.424 -0.2068  0.0982 -0.4418
   51CHL1    C4 6185   1.183   6.724  10.188 -0.7111 -0.9758  0.2166
   51CHL1   H4A 6186   1.166   6.614  10.193  0.3238 -1.0194  3.5112
   51CHL1   H4B 6187   1.092   6.768  10.234 -0.0887 -0.3675  0.8745
   51CHL1    C5 6188   1.218   6.749  10.044  0.3488  0.3772  0.7238
   51CHL1    C6 6189   1.136   6.812   9.964 -0.0350  0.2590  0.1567
   51CHL1    H6 6190   1.046   6.849  10.015  0.8925  1.2674  1.1178
   51CHL1    C7 6191   1.161   6.838   9.811 -0.1964 -0.6840  0.4126
   51CHL1   H7A 6192   1.073   6.819   9.745  0.3824 -1.3690 -0.1753
   51CHL1   H7B 6193   1.203   6.940   9.799 -2.0836 -0.1643 -2.4950
   51CHL1    C8 6194   1.272   6.745   9.757 -0.3539  0.4131  0.0703
   51CHL1    H8 6195   1.229   6.643   9.758  2.2304 -0.7012 -0.5602
   51CHL1   C14 6196   1.317   6.783   9.617 -0.0980  0.0439 -0.4531
   51CHL1   H14 6197   1.370   6.880   9.631  1.9532 -1.3541  1.8059
   51CHL1   C15 6198   1.208   6.809   9.510 -0.1400 -0.7960 -0.4091
   51CHL1  H15A 6199   1.142   6.720   9.507 -0.8896 -0.2196 -1.4621
   51CHL1  H15B 6200   1.136   6.894   9.513 -0.9956 -1.5580  2.9123
   51CHL1   C16 6201   1.287   6.798   9.372  0.4313  0.1223 -0.5086
   51CHL1  H16A 6202   1.243   6.714   9.315  0.1992  1.2367 -2.0196
   51CHL1  H16B 6203   1.288   6.894   9.315  3.2065  0.6544  0.3698
   51CHL1   C17 6204   1.435   6.769   9.409  0.2775  0.4962 -0.4491
   51CHL1   H17 6205   1.488   6.866   9.423 -1.1221  1.1167  0.6512
   51CHL1   C13 6206   1.422   6.701   9.555  0.1600  0.5905  0.5150
   51CHL1   C18 6207   1.368   6.550   9.544  0.9040  0.1284 -0.1978
   51CHL1  H18A 6208   1.285   6.536   9.472 -0.5244 -0.0191  1.4541
   51CHL1  H18B 6209   1.447   6.489   9.493  0.4049  0.3170 -1.2160
   51CHL1  H18C 6210   1.343   6.505   9.642  2.0038 -2.9182 -1.2647
   51CHL1   C12 6211   1.546   6.718   9.642 -0.3985  0.5344  0.0672
   51CHL1  H12A 6212   1.637   6.657   9.620 -1.7672 -2.4181  2.3437
   51CHL1  H12B 6213   1.584   6.822   9.631  0.5588  0.1246 -0.6003
   51CHL1   C11 6214   1.515   6.670   9.790  0.2516  0.3474 -0.3027
   51CHL1  H11A 6215   1.490   6.563   9.777  2.2384 -0.1613 -0.0431
   51CHL1  H11B 6216   1.609   6.687   9.846  0.2664  1.4905 -0.6537
   51CHL1    C9 6217   1.394   6.742   9.852  0.1267 -0.1924  0.3513
   51CHL1    H9 6218   1.419   6.850   9.863  0.2658 -0.0339 -1.3346
   51CHL1   C10 6219   1.358   6.700   9.996 -0.5428  0.0517  0.4547
   51CHL1   C19 6220   1.344   6.543  10.001 -0.0225  0.7659  0.0900
   51CHL1  H19A 6221   1.252   6.521   9.944 -0.8531  4.3566 -0.0909
   51CHL1  H19B 6222   1.437   6.492   9.968 -0.4038 -2.1378  3.2486
   51CHL1  H19C 6223   1.336   6.497  10.102 -0.1511  0.2300 -0.1651
   51CHL1    C1 6224   1.466   6.742  10.098  0.1853  0.2606  0.3071
   51CHL1   H1A 6225   1.560   6.696  10.064 -1.0131 -1.5876 -0.5830
   51CHL1   H1B 6226   1.488   6.851  10.100  0.8419  0.1289  4.1676
   51CHL1    C2 6227   1.438   6.704  10.237  0.2323  0.7363  0.4818
   51CHL1   H2A 6228   1.525   6.728  10.301  0.0272  3.3408 -0.1735
   51CHL1   H2B 6229   1.422   6.595  10.251  0.1163  1.1272  3.7664
   51CHL1   C20 6230   1.507   6.692   9.296  0.5925 -0.5538 -0.1612
   51CHL1   H20 6231   1.455   6.595   9.281  1.0477 -0.7667 -0.3582
   51CHL1   C21 6232   1.655   6.676   9.344 -0.2913 -0.2960  0.6768
   51CHL1  H21A 6233   1.664   6.596   9.420 -1.9350  0.2536  1.4819
   51CHL1  H21B 6234   1.692   6.775   9.379 -2.2475  1.0497 -0.8628
   51CHL1  H21C 6235   1.725   6.646   9.264 -1.1933  0.3704 -0.3910
   51CHL1   C22 6236   1.493   6.769   9.158 -0.4157 -0.5724 -0.0259
   51CHL1  H22A 6237   1.397   6.824   9.150  0.7998  1.8177  1.5471
   51CHL1  H22B 6238   1.581   6.836   9.154 -1.0816  0.2401 -1.2787
   51CHL1   C23 6239   1.496   6.674   9.041 -0.7665 -0.7941  0.0621
   51CHL1  H23A 6240   1.585   6.608   9.046  3.6882  4.8458  0.3813
   51CHL1  H23B 6241   1.398   6.623   9.042 -1.4219  0.3240  4.9260
   51CHL1   C24 6242   1.509   6.756   8.912 -0.0488 -0.6443 -0.4891
   51CHL1  H24A 6243   1.440   6.843   8.903 -0.4881 -1.1943 -2.7340
   51CHL1  H24B 6244   1.612   6.794   8.897 -0.4846 -0.0785 -2.2108
   51CHL1   C25 6245   1.481   6.678   8.782 -0.4625  0.0321 -0.2526
   51CHL1   H25 6246   1.526   6.577   8.796  0.2437  0.9502  5.1625
   51CHL1   C26 6247   1.336   6.639   8.782 -0.2442 -0.3655  0.0934
   51CHL1  H26A 6248   1.301   6.597   8.878  0.5666 -0.3157  0.4107
   51CHL1  H26B 6249   1.267   6.725   8.763  1.1132  0.5086 -1.0318
   51CHL1  H26C 6250   1.314   6.557   8.710  1.0725 -2.0176  1.5361
   51CHL1   C27 6251   1.529   6.738   8.655 -0.1579 -0.6486  0.4052
   51CHL1  H27A 6252   1.640   6.729   8.656 -0.1269 -0.4960 -1.1192
   51CHL1  H27B 6253   1.493   6.680   8.568  0.9015  1.7475 -1.7114
   51CHL1  H27C 6254   1.503   6.846   8.653  0.4540 -0.4922  0.7462
   52CHL1    C3 6255   4.184   4.761   9.969  0.0559 -0.7446  0.5211
   52CHL1    H3 6256   4.117   4.846   9.944  0.4639 -1.7241 -4.2982
   52CHL1    O3 6257   4.141   4.710  10.095  0.7729 -0.0275  0.1350
   52CHL1   H3' 6258   4.192   4.630  10.109  0.3440 -0.2933  0.1887
   52CHL1    C4 6259   4.175   4.652   9.864 -0.2699  0.4134 -0.3047
   52CHL1   H4A 6260   4.211   4.556   9.906 -0.4317  1.1793  1.6726
   52CHL1   H4B 6261   4.067   4.633   9.844 -0.3790  0.5220  0.1629
   52CHL1    C5 6262   4.253   4.675   9.736  0.4215 -0.5302 -0.5659
   52CHL1    C6 6263   4.197   4.648   9.619 -0.2325 -0.0589  0.3874
   52CHL1    H6 6264   4.094   4.608   9.614 -0.2352  0.1535 -2.6610
   52CHL1    C7 6265   4.265   4.678   9.489  0.6500  0.2191  0.2761
   52CHL1   H7A 6266   4.254   4.588   9.425  0.2594  0.0789  0.5366
   52CHL1   H7B 6267   4.209   4.761   9.440  0.1000 -1.1952 -1.5305
   52CHL1    C8 6268   4.418   4.706   9.509  0.7758 -0.0629 -0.2389
   52CHL1    H8 6269   4.460   4.604   9.523 -0.4920 -0.5858 -0.1755
   52CHL1   C14 6270   4.479   4.752   9.374 -1.1948  0.4320  0.4696
   52CHL1   H14 6271   4.428   4.848   9.351  0.2126  1.5871  2.0681
   52CHL1   C15 6272   4.446   4.674   9.243  0.1950 -0.6869  0.6031
   52CHL1  H15A 6273   4.442   4.563   9.254 -1.0762 -0.6001  0.9971
   52CHL1  H15B 6274   4.352   4.722   9.209  0.6853 -0.4839 -0.5099
   52CHL1   C16 6275   4.574   4.704   9.160 -0.5352 -1.0799 -0.0276
   52CHL1  H16A 6276   4.621   4.604   9.151 -3.0321 -2.1912 -1.5232
   52CHL1  H16B 6277   4.551   4.754   9.064  0.4390  0.4501  0.5231
   52CHL1   C17 6278   4.673   4.797   9.242  0.0866 -0.5979 -0.1147
   52CHL1   H17 6279   4.634   4.900   9.223 -1.3097 -0.5923  2.5520
   52CHL1   C13 6280   4.636   4.770   9.389 -0.0166  0.2632 -0.3578
   52CHL1   C18 6281   4.718   4.646   9.434 -0.6882 -0.4683 -0.0236
   52CHL1  H18A 6282   4.694   4.568   9.359  0.1337 -1.8181  1.0903
   52CHL1  H18B 6283   4.828   4.664   9.436 -1.1710  2.7415  1.2717
   52CHL1  H18C 6284   4.685   4.609   9.533  2.4422 -1.9459  0.5164
   52CHL1   C12 6285   4.652   4.885   9.493 -0.5034 -0.0126 -0.2430
   52CHL1  H12A 6286   4.760   4.913   9.492 -0.3304 -0.4857 -3.9477
   52CHL1  H12B 6287   4.600   4.969   9.443  0.0001  0.2418 -0.3463
   52CHL1   C11 6288   4.592   4.858   9.627  0.2996  0.1289 -1.0451
   52CHL1  H11A 6289   4.666   4.798   9.686 -0.5820 -0.0631 -0.1187
   52CHL1  H11B 6290   4.589   4.955   9.681  0.1752 -0.0046 -0.8058
   52CHL1    C9 6291   4.451   4.792   9.629  0.2133  0.1734  0.2705
   52CHL1    H9 6292   4.389   4.883   9.615 -1.6407 -1.0700  0.1308
   52CHL1   C10 6293   4.398   4.730   9.758 -0.0842 -0.0580  0.3730
   52CHL1   C19 6294   4.492   4.621   9.816 -0.1843  0.1584  0.0616
   52CHL1  H19A 6295   4.516   4.545   9.739 -3.0911  2.5089 -3.3539
   52CHL1  H19B 6296   4.594   4.650   9.850  0.2076 -1.4902  0.3673
   52CHL1  H19C 6297   4.433   4.564   9.892  0.7434 -1.3163 -0.3013
   52CHL1    C1 6298   4.396   4.850   9.863 -0.0217  0.0985  0.1265
   52CHL1   H1A 6299   4.502   4.877   9.882  0.7592 -2.8878  0.2790
   52CHL1   H1B 6300   4.344   4.938   9.820  2.3897  1.5690  0.1077
   52CHL1    C2 6301   4.328   4.812   9.994 -0.1744 -0.2205  0.6608
   52CHL1   H2A 6302   4.336   4.897  10.066  1.5971  0.3689 -0.1875
   52CHL1   H2B 6303   4.393   4.733  10.038 -1.3538 -2.4035 -1.4356
   52CHL1   C20 6304   4.816   4.792   9.197  0.3486 -0.2261 -0.0553
   52CHL1   H20 6305   4.859   4.698   9.239  0.7492  0.3612  0.8625
   52CHL1   C21 6306   4.888   4.915   9.257 -0.3476 -0.0069  0.1466
   52CHL1  H21A 6307   4.827   5.008   9.256 -1.9860 -1.0777 -0.9290
   52CHL1  H21B 6308   4.993   4.923   9.222 -0.1185 -2.3158  0.2085
   52CHL1  H21C 6309   4.902   4.898   9.367  0.7937 -2.3539 -0.3183
   52CHL1   C22 6310   4.844   4.783   9.048 -0.1615  0.2343  0.2689
   52CHL1  H22A 6311   4.943   4.737   9.028  0.3735  1.7595 -0.5913
   52CHL1  H22B 6312   4.780   4.707   8.998 -2.8625  2.3663  0.3981
   52CHL1   C23 6313   4.856   4.914   8.963 -0.2278 -0.0934 -0.4469
   52CHL1  H23A 6314   4.761   4.969   8.973 -0.0781  1.0473 -4.2336
   52CHL1  H23B 6315   4.943   4.975   8.997 -0.1634  0.9173 -2.3522
   52CHL1   C24 6316   4.855   4.899   8.804  0.1801  0.6429  0.1378
   52CHL1  H24A 6317   4.763   4.839   8.787  0.1984  0.7454 -0.3209
   52CHL1  H24B 6318   4.840   5.004   8.771  1.8716  0.6385 -0.6802
   52CHL1   C25 6319   4.975   4.842   8.740 -0.0715 -0.8259  0.1102
   52CHL1   H25 6320   5.000   4.751   8.799  0.0951 -1.3269 -0.7246
   52CHL1   C26 6321   4.938   4.782   8.601  0.4260 -0.4934 -0.0569
   52CHL1  H26A 6322   4.888   4.866   8.548 -0.5685 -1.1811 -0.2178
   52CHL1  H26B 6323   5.028   4.750   8.545  0.4902 -1.9396  0.8377
   52CHL1  H26C 6324   4.870   4.695   8.617  0.3515 -0.6043 -0.9486
   52CHL1   C27 6325   5.096   4.934   8.733 -0.1792  0.1333  0.1870
   52CHL1  H27A 6326   5.183   4.880   8.690  0.6239  0.4392  1.4044
   52CHL1  H27B 6327   5.075   5.022   8.667 -0.8489 -0.0287  0.1781
   52CHL1  H27C 6328   5.134   4.968   8.831  1.0236  0.0155 -0.2364
   53CHL1    C3 6329   6.519   4.578  10.123 -0.0262  0.7831 -0.4844
   53CHL1    H3 6330   6.589   4.511  10.069 -3.2279 -2.8174 -0.4432
   53CHL1    O3 6331   6.562   4.585  10.255  0.0156 -0.5848 -0.5177
   53CHL1   H3' 6332   6.560   4.681  10.262 -3.0572 -0.6795  0.8365
   53CHL1    C4 6333   6.537   4.714  10.050 -0.0331 -0.4044 -0.5466
   53CHL1   H4A 6334   6.479   4.797  10.094  0.6124  0.4633 -1.2987
   53CHL1   H4B 6335   6.643   4.741  10.073 -0.9935  0.5527  3.0516
   53CHL1    C5 6336   6.489   4.703   9.904 -0.5242  0.0187 -0.1241
   53CHL1    C6 6337   6.572   4.729   9.808 -0.8096 -1.7124  0.6011
   53CHL1    H6 6338   6.678   4.753   9.823 -0.9728  0.2714 -1.2480
   53CHL1    C7 6339   6.533   4.729   9.665 -0.0832  0.2454 -0.2057
   53CHL1   H7A 6340   6.577   4.815   9.611  1.2180  0.9626  1.9054
   53CHL1   H7B 6341   6.575   4.639   9.615  3.4677  0.3038  2.4241
   53CHL1    C8 6342   6.373   4.736   9.655  0.3722 -0.1467  0.2379
   53CHL1    H8 6343   6.340   4.837   9.687  1.4144 -0.0765  1.1421
   53CHL1   C14 6344   6.339   4.724   9.512  0.5842  0.0241 -0.3918
   53CHL1   H14 6345   6.374   4.621   9.487 -0.2687 -0.6556  1.1839
   53CHL1   C15 6346   6.396   4.819   9.407  0.8668  0.3861  0.0578
   53CHL1  H15A 6347   6.383   4.919   9.453 -3.5940  0.0458 -0.2434
   53CHL1  H15B 6348   6.505   4.808   9.391  0.7761  0.9014 -0.9343
   53CHL1   C16 6349   6.300   4.810   9.285 -0.3494 -0.0905 -0.2860
   53CHL1  H16A 6350   6.255   4.910   9.270 -1.7498 -0.7409 -0.5641
   53CHL1  H16B 6351   6.365   4.780   9.200 -0.8189  3.2044 -1.8495
   53CHL1   C17 6352   6.190   4.711   9.324  0.2283  0.5734 -0.7717
   53CHL1   H17 6353   6.240   4.613   9.307  0.0030 -0.0378  1.9240
   53CHL1   C13 6354   6.191   4.722   9.484 -0.2986  0.3243  0.2262
   53CHL1   C18 6355   6.119   4.848   9.549  0.0061 -0.7975  0.4071
   53CHL1  H18A 6356   6.138   4.856   9.658  3.8200 -0.5502 -0.1804
   53CHL1  H18B 6357   6.167   4.938   9.505 -1.8174  0.1340  0.2810
   53CHL1  H18C 6358   6.011   4.857   9.527 -0.0213  1.0441  1.1955
   53CHL1   C12 6359   6.138   4.601   9.559 -0.0793  0.1919 -0.3132
   53CHL1  H12A 6360   6.028   4.596   9.545 -0.1644  1.7816 -0.2806
   53CHL1  H12B 6361   6.194   4.515   9.516  0.8964  0.6197  0.1041
   53CHL1   C11 6362   6.164   4.591   9.712 -0.8110  0.8275 -0.1426
   53CHL1  H11A 6363   6.089   4.661   9.753 -0.0908  2.0994 -0.9546
   53CHL1  H11B 6364   6.143   4.490   9.751  1.1357  1.1012  1.6727
   53CHL1    C9 6365   6.311   4.632   9.741 -0.3488  0.3762 -0.7983
   53CHL1    H9 6366   6.377   4.543   9.730 -0.6085 -0.1468  1.4873
   53CHL1   C10 6367   6.337   4.663   9.888 -1.1352  0.8879  0.8940
   53CHL1   C19 6368   6.247   4.780   9.947 -0.2057  0.4031 -0.4187
   53CHL1  H19A 6369   6.138   4.762   9.940 -0.4123  0.6750  1.8133
   53CHL1  H19B 6370   6.268   4.801  10.053  0.6611 -0.5825 -0.3796
   53CHL1  H19C 6371   6.269   4.871   9.887  0.2955  0.7448  0.2862
   53CHL1    C1 6372   6.318   4.535   9.975 -0.5505 -0.4414  0.5046
   53CHL1   H1A 6373   6.209   4.511   9.969 -1.0590  0.9870  3.1487
   53CHL1   H1B 6374   6.382   4.456   9.931 -1.6013 -1.3728  0.6422
   53CHL1    C2 6375   6.370   4.525  10.121 -0.0663  0.1198  0.0177
   53CHL1   H2A 6376   6.373   4.424  10.167  1.3655 -0.2924 -0.9453
   53CHL1   H2B 6377   6.323   4.592  10.196 -2.6432 -2.0656  0.4024
   53CHL1   C20 6378   6.060   4.738   9.246 -0.4469  0.4236 -0.4518
   53CHL1   H20 6379   6.026   4.842   9.263 -0.8641  0.1837  0.2231
   53CHL1   C21 6380   5.947   4.646   9.284 -0.4740  0.8810 -0.2618
   53CHL1  H21A 6381   5.860   4.677   9.223 -0.2497  1.2396 -0.4061
   53CHL1  H21B 6382   5.902   4.667   9.384 -1.5881  0.9114 -0.7657
   53CHL1  H21C 6383   5.965   4.538   9.265 -1.5347  0.8790 -1.2734
   53CHL1   C22 6384   6.090   4.716   9.093 -0.7200 -0.2986 -0.4786
   53CHL1  H22A 6385   6.174   4.787   9.082 -0.7089  0.2666  2.8803
   53CHL1  H22B 6386   6.114   4.608   9.081 -0.1937 -0.3382  0.8610
   53CHL1   C23 6387   5.972   4.745   8.991 -0.3117 -0.4331  0.4558
   53CHL1  H23A 6388   5.903   4.662   9.018  0.1200  0.2322  3.8010
   53CHL1  H23B 6389   5.920   4.836   9.028 -0.9523 -1.1460  1.3290
   53CHL1   C24 6390   6.019   4.752   8.851 -0.3334 -0.1973  0.1331
   53CHL1  H24A 6391   6.077   4.846   8.841  2.0194 -1.4688  1.4903
   53CHL1  H24B 6392   6.086   4.663   8.850 -0.9721 -0.6957  1.5146
   53CHL1   C25 6393   5.905   4.756   8.740 -0.1411  0.2944  0.0970
   53CHL1   H25 6394   5.835   4.670   8.752 -2.1410  1.7406 -0.9327
   53CHL1   C26 6395   5.821   4.876   8.749  0.2273  0.3285 -0.0283
   53CHL1  H26A 6396   5.782   4.891   8.852 -3.7297  1.4488 -1.6039
   53CHL1  H26B 6397   5.872   4.968   8.714 -1.3463  0.6725 -1.5019
   53CHL1  H26C 6398   5.744   4.863   8.671 -0.2958 -0.0288  0.5458
   53CHL1   C27 6399   5.978   4.757   8.603 -0.5330 -0.4793  0.5316
   53CHL1  H27A 6400   6.041   4.847   8.585 -0.4529 -0.7851 -0.7814
   53CHL1  H27B 6401   6.048   4.672   8.596 -2.3354 -1.8018 -2.8804
   53CHL1  H27C 6402   5.906   4.753   8.518  0.8563  0.9849 -0.7510
   54CHL1    C3 6403   5.819   5.466  10.149  0.1717 -0.1782 -0.6050
   54CHL1    H3 6404   5.801   5.372  10.092  0.9083 -0.1812 -0.8438
   54CHL1    O3 6405   5.801   5.446  10.291 -0.1782 -0.2340  0.1225
   54CHL1   H3' 6406   5.810   5.533  10.329  0.2984  0.0242 -0.5627
   54CHL1    C4 6407   5.956   5.525  10.116 -0.2372  0.0137  0.3351
   54CHL1   H4A 6408   5.966   5.619  10.175  0.3724 -1.2332  2.2789
   54CHL1   H4B 6409   6.026   5.445  10.146 -1.5214 -0.9505  0.7929
   54CHL1    C5 6410   5.965   5.558   9.964 -0.6626  0.6813  0.8267
   54CHL1    C6 6411   6.071   5.505   9.901  0.0963  0.6159  0.4999
   54CHL1    H6 6412   6.161   5.467   9.950  0.6134  1.0309 -0.1261
   54CHL1    C7 6413   6.082   5.530   9.752  0.1708  0.3021 -1.0179
   54CHL1   H7A 6414   6.186   5.554   9.720  0.3371  2.7399  1.1578
   54CHL1   H7B 6415   6.052   5.432   9.709  1.4084 -0.3067 -0.5407
   54CHL1    C8 6416   5.991   5.630   9.682  0.5426  0.1488 -0.2260
   54CHL1    H8 6417   6.035   5.731   9.696  0.0928  0.3523 -0.2778
   54CHL1   C14 6418   5.981   5.601   9.528  0.3393 -0.5530 -0.1950
   54CHL1   H14 6419   5.935   5.500   9.528 -0.0829 -0.3650  1.2634
   54CHL1   C15 6420   6.115   5.595   9.449 -0.7283 -0.3951  0.0479
   54CHL1  H15A 6421   6.179   5.683   9.471  1.4082 -1.6252 -1.0871
   54CHL1  H15B 6422   6.182   5.509   9.471 -1.0737 -0.7317 -0.1917
   54CHL1   C16 6423   6.069   5.613   9.304  0.3731 -0.3204 -0.9780
   54CHL1  H16A 6424   6.134   5.689   9.256  2.3292 -1.2072  0.1840
   54CHL1  H16B 6425   6.080   5.517   9.250  0.8881  0.3259 -2.0506
   54CHL1   C17 6426   5.920   5.656   9.308 -0.1102  0.2040  0.7583
   54CHL1   H17 6427   5.862   5.562   9.288  0.3028 -0.0998  0.9918
   54CHL1   C13 6428   5.887   5.697   9.453 -0.0976 -0.0425 -0.0541
   54CHL1   C18 6429   5.934   5.848   9.468 -0.6034  0.4399 -0.6377
   54CHL1  H18A 6430   6.033   5.860   9.418 -1.0721  1.2371 -1.3756
   54CHL1  H18B 6431   5.863   5.927   9.435 -0.5426  1.7602  2.2002
   54CHL1  H18C 6432   5.952   5.867   9.576  3.1708 -0.4676 -1.0330
   54CHL1   C12 6433   5.744   5.683   9.509 -0.5868  0.5725 -0.1927
   54CHL1  H12A 6434   5.666   5.746   9.460 -1.1154  1.6347  1.9478
   54CHL1  H12B 6435   5.710   5.577   9.504  1.5820 -0.0786 -1.7979
   54CHL1   C11 6436   5.740   5.704   9.661  0.2253  0.2276 -0.5751
   54CHL1  H11A 6437   5.741   5.812   9.688  0.0822 -1.0864  5.5282
   54CHL1  H11B 6438   5.649   5.672   9.717  1.0568  2.5231  2.2444
   54CHL1    C9 6439   5.853   5.622   9.737  0.9880  0.0588  0.4381
   54CHL1    H9 6440   5.824   5.515   9.727  2.7489 -0.4318  0.4711
   54CHL1   C10 6441   5.852   5.639   9.892  0.8622  0.2486  0.2892
   54CHL1   C19 6442   5.864   5.794   9.925 -0.0587  0.0231  0.0311
   54CHL1  H19A 6443   5.765   5.843   9.913  1.4260  3.4332  0.9651
   54CHL1  H19B 6444   5.899   5.812  10.029 -0.5420  1.3188 -0.0248
   54CHL1  H19C 6445   5.944   5.834   9.859  0.2077 -1.4746 -0.5727
   54CHL1    C1 6446   5.718   5.586   9.953 -0.4234 -0.6245  0.0939
   54CHL1   H1A 6447   5.638   5.658   9.927  0.8035  1.1712  1.1827
   54CHL1   H1B 6448   5.701   5.485   9.909  0.7124 -1.2455  1.0683
   54CHL1    C2 6449   5.718   5.574  10.101  0.0243  0.3483 -0.6633
   54CHL1   H2A 6450   5.621   5.552  10.150  0.4065  1.1102  0.4688
   54CHL1   H2B 6451   5.749   5.671  10.145  0.8399  0.8625 -2.3467
   54CHL1   C20 6452   5.890   5.751   9.186 -1.1419 -0.7039  0.3341
   54CHL1   H20 6453   5.958   5.835   9.210 -1.1492 -0.5905 -0.0350
   54CHL1   C21 6454   5.742   5.804   9.192 -0.7480  0.4528  0.6238
   54CHL1  H21A 6455   5.718   5.845   9.092  1.0340  0.6000  0.2394
   54CHL1  H21B 6456   5.730   5.879   9.273 -0.7169  1.5596 -0.3865
   54CHL1  H21C 6457   5.676   5.717   9.213 -1.7648  1.3729  1.2387
   54CHL1   C22 6458   5.923   5.680   9.053  0.0168  0.2962 -0.0067
   54CHL1  H22A 6459   6.016   5.622   9.070  0.3778  1.5216  2.5311
   54CHL1  H22B 6460   5.831   5.620   9.040 -0.1199  0.0972  1.6690
   54CHL1   C23 6461   5.945   5.778   8.936  0.4654  0.3129  0.5568
   54CHL1  H23A 6462   5.937   5.732   8.835 -1.3901  1.3308  0.2159
   54CHL1  H23B 6463   5.861   5.850   8.931 -0.2789 -0.4563  1.7929
   54CHL1   C24 6464   6.082   5.846   8.948 -0.0632  0.0254 -0.1501
   54CHL1  H24A 6465   6.089   5.916   9.034 -2.3307  0.8253 -0.5892
   54CHL1  H24B 6466   6.145   5.756   8.967  0.1800  0.0775 -0.7068
   54CHL1   C25 6467   6.143   5.916   8.822  0.3848 -0.2194 -0.2758
   54CHL1   H25 6468   6.148   5.839   8.742  0.7153  2.4753 -2.9411
   54CHL1   C26 6469   6.032   6.016   8.781 -0.4974 -0.0558  0.4806
   54CHL1  H26A 6470   5.994   6.068   8.872 -0.8840 -2.2266  1.5807
   54CHL1  H26B 6471   6.058   6.082   8.695 -1.6685  0.7887  0.7495
   54CHL1  H26C 6472   5.950   5.955   8.736  2.7746 -2.9225 -1.7996
   54CHL1   C27 6473   6.272   5.978   8.861 -0.6834  0.1479 -0.5306
   54CHL1  H27A 6474   6.343   5.894   8.873  0.6846  1.1563 -1.4326
   54CHL1  H27B 6475   6.316   6.041   8.780  0.8270 -0.7766 -0.4391
   54CHL1  H27C 6476   6.268   6.031   8.959 -1.0302 -0.7354 -0.0604
   55CHL1    C3 6477   0.005   3.572  10.148 -1.2179 -0.3657  0.3080
   55CHL1    H3 6478  -0.014   3.462  10.143 -0.6785 -0.4192 -0.6634
   55CHL1    O3 6479   0.003   3.628  10.278  0.7343  0.3756  0.3212
   55CHL1   H3' 6480  -0.075   3.684  10.278  0.6035  0.1947  0.0084
   55CHL1    C4 6481   0.137   3.599  10.091  0.6893 -0.4225  0.3334
   55CHL1   H4A 6482   0.164   3.707  10.100  0.9783 -0.2174 -2.6757
   55CHL1   H4B 6483   0.221   3.561  10.154  1.4051  1.3709  0.5020
   55CHL1    C5 6484   0.148   3.549   9.951  0.2336  0.5681  0.2768
   55CHL1    C6 6485   0.236   3.458   9.904 -0.1460 -1.1916 -0.4853
   55CHL1    H6 6486   0.303   3.412   9.979  1.8198 -0.0224 -1.5166
   55CHL1    C7 6487   0.256   3.422   9.757 -0.3325  0.0642 -0.8227
   55CHL1   H7A 6488   0.364   3.442   9.738 -1.2181  4.2966 -1.8997
   55CHL1   H7B 6489   0.230   3.317   9.731  0.2745 -0.2758 -0.0720
   55CHL1    C8 6490   0.178   3.516   9.656 -0.3476  0.1070 -0.0488
   55CHL1    H8 6491   0.230   3.614   9.649 -0.8523  0.4407  0.8313
   55CHL1   C14 6492   0.163   3.449   9.520  0.0550 -0.1031  0.3172
   55CHL1   H14 6493   0.100   3.359   9.533  0.9635 -0.8526 -0.3644
   55CHL1   C15 6494   0.288   3.393   9.456 -0.1710 -0.1550  0.2340
   55CHL1  H15A 6495   0.366   3.471   9.468  0.1309 -0.2086 -1.2967
   55CHL1  H15B 6496   0.320   3.293   9.493 -1.8207 -1.0960 -0.8146
   55CHL1   C16 6497   0.243   3.390   9.307 -0.1890 -0.9558 -0.3879
   55CHL1  H16A 6498   0.324   3.443   9.252 -1.8864  0.9641 -1.1380
   55CHL1  H16B 6499   0.243   3.285   9.273 -1.5100 -0.6573 -1.3798
   55CHL1   C17 6500   0.099   3.451   9.298  0.1885 -0.0809  0.3081
   55CHL1   H17 6501   0.035   3.364   9.321 -0.7497  1.2317  2.8765
   55CHL1   C13 6502   0.088   3.534   9.422 -0.9612  0.3048  0.0684
   55CHL1   C18 6503   0.157   3.674   9.406 -0.7531  0.2573  0.2112
   55CHL1  H18A 6504   0.112   3.732   9.322  0.0699 -1.4980 -1.4831
   55CHL1  H18B 6505   0.157   3.736   9.498  1.0895 -1.1820  1.2063
   55CHL1  H18C 6506   0.260   3.644   9.378 -1.1715 -0.2441 -0.8386
   55CHL1   C12 6507  -0.058   3.546   9.473 -0.3026 -0.1734  0.5600
   55CHL1  H12A 6508  -0.111   3.632   9.427  1.5721  0.9433  0.4558
   55CHL1  H12B 6509  -0.124   3.457   9.459  1.4846 -1.5503  0.7501
   55CHL1   C11 6510  -0.057   3.613   9.621  0.0805 -0.4335 -0.2723
   55CHL1  H11A 6511  -0.035   3.721   9.609  3.3909 -0.8102  1.8057
   55CHL1  H11B 6512  -0.162   3.603   9.658  0.2733  2.4932  1.2330
   55CHL1    C9 6513   0.040   3.550   9.719  0.2153  0.1484 -0.2361
   55CHL1    H9 6514   0.001   3.450   9.747 -0.2751  0.6436  0.8576
   55CHL1   C10 6515   0.043   3.618   9.859 -0.1876 -0.3227  0.7759
   55CHL1   C19 6516   0.066   3.764   9.844  1.1456 -1.0778 -0.1516
   55CHL1  H19A 6517   0.079   3.814   9.942  1.0791 -0.3836 -0.4964
   55CHL1  H19B 6518   0.159   3.796   9.793  0.1931  0.3802 -1.0094
   55CHL1  H19C 6519  -0.010   3.826   9.793  2.7107  0.9311 -0.1138
   55CHL1    C1 6520  -0.099   3.586   9.918  0.2527  0.3048 -1.0275
   55CHL1   H1A 6521  -0.178   3.642   9.864  0.3382  1.3500 -0.0849
   55CHL1   H1B 6522  -0.120   3.477   9.916 -1.3944  0.3993  3.5656
   55CHL1    C2 6523  -0.111   3.630  10.065  0.5351 -0.0057  0.2840
   55CHL1   H2A 6524  -0.210   3.608  10.111 -0.5225 -1.6652 -2.6475
   55CHL1   H2B 6525  -0.090   3.739  10.061  0.1818  0.0162 -1.2102
   55CHL1   C20 6526   0.057   3.506   9.166  0.3631 -0.2981 -0.2875
   55CHL1   H20 6527  -0.013   3.588   9.194 -2.0580 -1.8613 -1.5936
   55CHL1   C21 6528  -0.011   3.383   9.097 -0.5429 -0.1552 -0.1636
   55CHL1  H21A 6529  -0.091   3.350   9.167  0.1255  0.3746  0.8590
   55CHL1  H21B 6530   0.062   3.299   9.089  0.2361  0.6917 -2.2533
   55CHL1  H21C 6531  -0.065   3.411   9.004 -1.2025  0.5964  0.4390
   55CHL1   C22 6532   0.169   3.558   9.069  0.1454 -0.1679 -0.3028
   55CHL1  H22A 6533   0.244   3.616   9.127 -1.1536 -0.0695  1.2956
   55CHL1  H22B 6534   0.215   3.465   9.029 -4.0739 -1.7780 -1.7337
   55CHL1   C23 6535   0.119   3.644   8.958  0.4535  0.5478  0.4679
   55CHL1  H23A 6536   0.040   3.596   8.895  0.7456 -0.1390  0.6253
   55CHL1  H23B 6537   0.069   3.735   8.997  1.6302  0.6582  1.7239
   55CHL1   C24 6538   0.239   3.673   8.868  0.1218 -1.1274 -0.2770
   55CHL1  H24A 6539   0.316   3.718   8.934  1.2575 -3.2100 -0.1752
   55CHL1  H24B 6540   0.266   3.570   8.838  3.3070 -0.4923  0.2855
   55CHL1   C25 6541   0.212   3.765   8.745 -0.4788 -0.3154  0.3263
   55CHL1   H25 6542   0.148   3.852   8.773 -0.0381 -0.2361  1.0881
   55CHL1   C26 6543   0.341   3.821   8.696  0.0833  0.2351 -0.1171
   55CHL1  H26A 6544   0.413   3.741   8.669 -0.7244 -0.1211 -1.2682
   55CHL1  H26B 6545   0.319   3.877   8.603  1.4751  1.0720  0.0474
   55CHL1  H26C 6546   0.396   3.886   8.767  1.2374 -0.5641 -0.2643
   55CHL1   C27 6547   0.137   3.691   8.636 -0.2479 -0.3695 -0.1060
   55CHL1  H27A 6548   0.038   3.649   8.665 -0.1702  0.1496  0.9361
   55CHL1  H27B 6549   0.119   3.758   8.550 -0.6256 -2.2433 -1.5101
   55CHL1  H27C 6550   0.197   3.609   8.591 -1.2777 -0.9766 -0.3893
   56CHL1    C3 6551   4.574   1.960  10.078 -0.1948 -0.8499 -0.8317
   56CHL1    H3 6552   4.640   1.872  10.067 -0.9261 -1.7406  1.6145
   56CHL1    O3 6553   4.562   1.975  10.218  0.3197  0.1966  0.4989
   56CHL1   H3' 6554   4.519   2.060  10.229 -0.2666 -0.1746  1.1005
   56CHL1    C4 6555   4.636   2.089  10.019 -0.0193 -0.0411  0.0846
   56CHL1   H4A 6556   4.568   2.174  10.040  2.6785  1.6355  2.3345
   56CHL1   H4B 6557   4.738   2.099  10.062 -0.0695 -1.3055  0.5208
   56CHL1    C5 6558   4.650   2.085   9.862  0.3008 -0.5482 -0.5877
   56CHL1    C6 6559   4.771   2.088   9.798 -0.4238 -0.2495  0.0373
   56CHL1    H6 6560   4.857   2.098   9.866 -0.3006  3.9709 -0.5961
   56CHL1    C7 6561   4.789   2.086   9.647 -0.6807  0.4206  0.7326
   56CHL1   H7A 6562   4.865   2.161   9.615 -2.1037  0.2476 -3.3282
   56CHL1   H7B 6563   4.835   1.992   9.610  1.7276  1.5447  0.7803
   56CHL1    C8 6564   4.648   2.101   9.580 -0.1259  1.0683 -0.0601
   56CHL1    H8 6565   4.614   2.207   9.578  1.4150  1.6080  0.8478
   56CHL1   C14 6566   4.657   2.045   9.436  0.6983 -0.7599 -0.3664
   56CHL1   H14 6567   4.684   1.937   9.444  0.9894 -0.6173  0.5767
   56CHL1   C15 6568   4.770   2.102   9.352 -0.2743  0.1230  0.2047
   56CHL1  H15A 6569   4.766   2.212   9.368 -0.9887 -0.0801  1.5015
   56CHL1  H15B 6570   4.861   2.054   9.393 -1.6086 -2.5761  0.0946
   56CHL1   C16 6571   4.737   2.083   9.202  0.0114 -0.3883  0.3641
   56CHL1  H16A 6572   4.734   2.180   9.148  1.9566 -0.2978  0.3896
   56CHL1  H16B 6573   4.798   2.009   9.145 -1.2514 -0.6031 -0.7359
   56CHL1   C17 6574   4.588   2.020   9.205  0.3505 -1.0128  0.9206
   56CHL1   H17 6575   4.596   1.910   9.208 -2.2700 -1.2932 -0.9162
   56CHL1   C13 6576   4.532   2.071   9.346 -0.1120  0.2555  0.7122
   56CHL1   C18 6577   4.489   2.219   9.326 -0.5559  0.3497  0.2624
   56CHL1  H18A 6578   4.489   2.275   9.422  1.9186 -0.3858  0.7039
   56CHL1  H18B 6579   4.555   2.283   9.265 -2.8063  1.2010 -1.3494
   56CHL1  H18C 6580   4.383   2.223   9.291 -0.7194  1.9777  0.9237
   56CHL1   C12 6581   4.423   1.990   9.410  0.3609 -0.2674  0.1852
   56CHL1  H12A 6582   4.334   2.003   9.345  1.8613  0.1055 -1.8485
   56CHL1  H12B 6583   4.451   1.882   9.416  0.7268 -0.2144 -0.4873
   56CHL1   C11 6584   4.396   2.033   9.561 -0.3196 -0.7449  0.6606
   56CHL1  H11A 6585   4.358   2.137   9.558  1.2126 -0.1980  0.0337
   56CHL1  H11B 6586   4.322   1.960   9.601 -2.4549  0.3737 -1.1153
   56CHL1    C9 6587   4.535   2.027   9.649  0.6220 -0.0832 -0.3436
   56CHL1    H9 6588   4.570   1.922   9.637  1.9486  0.4401 -1.2173
   56CHL1   C10 6589   4.518   2.064   9.791 -0.1657  0.8888  0.5651
   56CHL1   C19 6590   4.425   2.184   9.808 -0.2521 -0.2947 -0.6730
   56CHL1  H19A 6591   4.324   2.165   9.766  0.6245  0.0163 -2.9628
   56CHL1  H19B 6592   4.405   2.211   9.914 -0.5527 -0.2612 -0.7368
   56CHL1  H19C 6593   4.466   2.276   9.762 -0.4145  2.3026  4.0167
   56CHL1    C1 6594   4.435   1.944   9.857  0.2275  0.2989  0.3501
   56CHL1   H1A 6595   4.329   1.934   9.827  1.1429  0.3139 -3.1378
   56CHL1   H1B 6596   4.492   1.851   9.834 -0.2391  0.3310 -0.9882
   56CHL1    C2 6597   4.437   1.932  10.015 -0.4557  0.1288  0.8879
   56CHL1   H2A 6598   4.396   1.835  10.050 -0.7850  0.8278  2.4615
   56CHL1   H2B 6599   4.358   2.008  10.035 -0.0400  1.4285 -2.0442
   56CHL1   C20 6600   4.511   2.059   9.077  0.0839 -0.1007  0.0720
   56CHL1   H20 6601   4.489   2.168   9.073  0.3311 -0.0247  0.8986
   56CHL1   C21 6602   4.374   1.984   9.080  0.2909 -0.2981 -0.1607
   56CHL1  H21A 6603   4.394   1.886   9.129 -0.1295 -0.3990 -0.1844
   56CHL1  H21B 6604   4.318   1.984   8.984 -1.1587 -3.2237  0.6155
   56CHL1  H21C 6605   4.313   2.047   9.149  1.4687 -0.4609  1.0498
   56CHL1   C22 6606   4.589   2.024   8.948  0.1928 -0.6476 -0.3289
   56CHL1  H22A 6607   4.537   2.076   8.865  1.6568  2.7863  0.8267
   56CHL1  H22B 6608   4.694   2.061   8.956 -0.1041  0.0588  0.4093
   56CHL1   C23 6609   4.577   1.876   8.908 -0.1981  0.5091  0.0153
   56CHL1  H23A 6610   4.626   1.813   8.986  0.2944  2.1243  1.0466
   56CHL1  H23B 6611   4.473   1.841   8.920  0.2284 -0.4857  0.9270
   56CHL1   C24 6612   4.642   1.838   8.777  0.5918 -0.0014  0.2026
   56CHL1  H24A 6613   4.596   1.908   8.704  1.6329  1.0997  0.5765
   56CHL1  H24B 6614   4.748   1.873   8.777  0.3450  0.7983  1.7399
   56CHL1   C25 6615   4.621   1.698   8.714  0.9530  0.8509  0.2264
   56CHL1   H25 6616   4.691   1.629   8.766 -0.8975 -0.4483  1.0678
   56CHL1   C26 6617   4.476   1.649   8.732  0.4175  0.0360 -0.1521
   56CHL1  H26A 6618   4.484   1.585   8.822  2.0223  0.0861 -0.2284
   56CHL1  H26B 6619   4.406   1.735   8.736  0.7540  0.3899 -1.6698
   56CHL1  H26C 6620   4.444   1.585   8.647 -0.2220 -0.4757  0.4721
   56CHL1   C27 6621   4.656   1.710   8.568 -0.2935 -0.8560 -0.0779
   56CHL1  H27A 6622   4.759   1.750   8.555 -0.8911 -0.2670 -3.7258
   56CHL1  H27B 6623   4.650   1.609   8.523 -2.3400  0.0240 -1.8624
   56CHL1  H27C 6624   4.584   1.780   8.519  2.4104  0.5042 -2.3005
   57CHL1    C3 6625   0.462   4.231  10.262  0.3151  0.2085  0.8622
   57CHL1    H3 6626   0.548   4.204  10.196 -1.4210 -1.6200 -0.6998
   57CHL1    O3 6627   0.466   4.178  10.391 -0.1777 -0.1557 -0.0013
   57CHL1   H3' 6628   0.394   4.225  10.433  0.8310 -0.8475  2.5981
   57CHL1    C4 6629   0.437   4.381  10.268  0.2221  0.4416 -0.3497
   57CHL1   H4A 6630   0.343   4.400  10.323  0.0180 -1.2561 -0.0624
   57CHL1   H4B 6631   0.517   4.437  10.321  0.9878  0.9130 -1.9461
   57CHL1    C5 6632   0.424   4.432  10.125  0.2084 -1.0342  0.4085
   57CHL1    C6 6633   0.515   4.511  10.076 -0.9770 -0.5001  0.2139
   57CHL1    H6 6634   0.597   4.551  10.137 -0.2037  0.4648 -1.4046
   57CHL1    C7 6635   0.512   4.569   9.936  0.0948  0.2909 -0.4737
   57CHL1   H7A 6636   0.539   4.676   9.953 -1.6310  0.8480 -1.1586
   57CHL1   H7B 6637   0.593   4.523   9.876 -0.5516  0.5255 -1.5332
   57CHL1    C8 6638   0.378   4.557   9.865 -0.1178 -0.6727 -0.2433
   57CHL1    H8 6639   0.310   4.628   9.916  0.1144 -0.9803  0.5159
   57CHL1   C14 6640   0.392   4.590   9.723  0.0069 -0.4495 -0.0934
   57CHL1   H14 6641   0.441   4.508   9.666 -2.4852 -1.3854 -0.9323
   57CHL1   C15 6642   0.456   4.731   9.688 -0.3471 -0.6552 -0.0322
   57CHL1  H15A 6643   0.414   4.802   9.763  1.3257 -0.2916  0.6005
   57CHL1  H15B 6644   0.566   4.717   9.679  0.0948  3.3453 -2.0281
   57CHL1   C16 6645   0.412   4.763   9.541 -0.1168  0.3801  0.1832
   57CHL1  H16A 6646   0.359   4.861   9.546 -0.6085  0.0800  0.8469
   57CHL1  H16B 6647   0.499   4.770   9.472  0.0952 -0.2705  0.3877
   57CHL1   C17 6648   0.307   4.644   9.506  0.4586 -0.1566 -0.0462
   57CHL1   H17 6649   0.364   4.557   9.466 -2.1337 -0.6466 -2.8629
   57CHL1   C13 6650   0.260   4.590   9.649 -0.9798  0.5769 -0.1256
   57CHL1   C18 6651   0.155   4.687   9.702 -0.3468  0.1020 -0.5138
   57CHL1  H18A 6652   0.060   4.668   9.648  0.5939 -2.1339 -1.4525
   57CHL1  H18B 6653   0.134   4.667   9.809  1.2848  2.7698  0.3731
   57CHL1  H18C 6654   0.178   4.793   9.679 -3.3084  0.4611 -2.0632
   57CHL1   C12 6655   0.201   4.448   9.661  0.5026 -0.0953  0.3100
   57CHL1  H12A 6656   0.114   4.436   9.593 -0.5973  4.0687  0.8252
   57CHL1  H12B 6657   0.279   4.396   9.601  2.9237  1.7013  1.8220
   57CHL1   C11 6658   0.195   4.392   9.804  0.3634  0.5357  0.7516
   57CHL1  H11A 6659   0.111   4.441   9.859  0.2911 -1.5214  2.5563
   57CHL1  H11B 6660   0.172   4.284   9.799  1.1770  0.4430 -1.5351
   57CHL1    C9 6661   0.320   4.421   9.891 -0.4143 -0.2983 -0.3667
   57CHL1    H9 6662   0.395   4.352   9.847 -0.5889 -1.5235  1.2283
   57CHL1   C10 6663   0.313   4.379  10.037  0.5176  0.0145  0.1417
   57CHL1   C19 6664   0.182   4.422  10.105  0.1330 -0.2852 -0.1757
   57CHL1  H19A 6665   0.098   4.361  10.067 -0.8510  1.4915 -0.8554
   57CHL1  H19B 6666   0.178   4.400  10.214 -0.8837  0.2123 -0.1080
   57CHL1  H19C 6667   0.168   4.531  10.090  0.4134 -0.6353 -3.3879
   57CHL1    C1 6668   0.318   4.228  10.046 -1.2932 -0.0912 -0.6480
   57CHL1   H1A 6669   0.239   4.171   9.993 -1.3677 -0.2165 -0.4012
   57CHL1   H1B 6670   0.405   4.207   9.980 -2.1880  0.2849 -1.9844
   57CHL1    C2 6671   0.343   4.168  10.187  0.4968 -0.4336 -0.3634
   57CHL1   H2A 6672   0.357   4.058  10.178  1.9953 -0.4045  1.3428
   57CHL1   H2B 6673   0.253   4.182  10.251 -0.1018 -2.2464 -0.7671
   57CHL1   C20 6674   0.204   4.684   9.400  0.1452  0.2188 -0.6183
   57CHL1   H20 6675   0.147   4.766   9.447  0.5021 -1.5183  3.0228
   57CHL1   C21 6676   0.096   4.572   9.378 -0.5766 -0.0338  0.0241
   57CHL1  H21A 6677   0.133   4.467   9.377  2.0447  0.8105  1.4530
   57CHL1  H21B 6678   0.042   4.593   9.284 -1.7348 -2.0665  0.2116
   57CHL1  H21C 6679   0.026   4.577   9.465 -0.0676  1.3925  0.3818
   57CHL1   C22 6680   0.274   4.723   9.263  0.2373  0.0588  0.2614
   57CHL1  H22A 6681   0.341   4.811   9.276  1.3135 -0.5508 -0.9255
   57CHL1  H22B 6682   0.325   4.630   9.229 -0.1151  0.4398 -1.3866
   57CHL1   C23 6683   0.170   4.774   9.151 -0.1096  0.4511  0.3448
   57CHL1  H23A 6684   0.105   4.687   9.126  0.3907 -0.2369  1.3808
   57CHL1  H23B 6685   0.103   4.847   9.201 -0.5746  0.9443 -0.9823
   57CHL1   C24 6686   0.245   4.836   9.036 -0.0269 -0.3392  0.2841
   57CHL1  H24A 6687   0.172   4.902   8.984 -0.0199  0.1958  0.9451
   57CHL1  H24B 6688   0.335   4.887   9.077  0.2709 -2.5044  2.4806
   57CHL1   C25 6689   0.285   4.743   8.913  0.2672  0.4439 -0.3261
   57CHL1   H25 6690   0.311   4.810   8.827 -1.5721  0.7793 -0.6526
   57CHL1   C26 6691   0.403   4.648   8.948 -0.1919  0.7978 -0.6355
   57CHL1  H26A 6692   0.495   4.710   8.942  0.9481 -0.9264 -1.3296
   57CHL1  H26B 6693   0.404   4.595   9.045  0.0674 -1.6762 -1.9334
   57CHL1  H26C 6694   0.428   4.574   8.869 -0.4631  1.4740 -1.3662
   57CHL1   C27 6695   0.155   4.665   8.867  0.1767  0.7159 -0.6416
   57CHL1  H27A 6696   0.104   4.596   8.938 -0.0795  0.8315 -0.7121
   57CHL1  H27B 6697   0.081   4.746   8.853  0.5725  1.2622  0.3547
   57CHL1  H27C 6698   0.167   4.605   8.775 -1.9321 -1.5461  0.4800
   58CHL1    C3 6699   2.590   2.561  10.091 -0.0132 -0.0969 -0.6214
   58CHL1    H3 6700   2.522   2.646  10.111 -1.1621 -0.6851 -1.9098
   58CHL1    O3 6701   2.611   2.481  10.210  0.4829  0.3103  0.0671
   58CHL1   H3' 6702   2.613   2.542  10.284  0.5538  0.1406  0.2027
   58CHL1    C4 6703   2.525   2.475   9.983 -0.1073 -0.2053 -0.6610
   58CHL1   H4A 6704   2.586   2.382   9.980 -1.9510 -1.4389 -0.5388
   58CHL1   H4B 6705   2.427   2.453  10.030  1.1523  2.3198  3.3070
   58CHL1    C5 6706   2.515   2.531   9.847 -0.0323 -0.3925  0.2637
   58CHL1    C6 6707   2.399   2.539   9.783 -0.2558  0.2487 -0.4380
   58CHL1    H6 6708   2.308   2.500   9.831  0.6541 -0.3454  0.8183
   58CHL1    C7 6709   2.388   2.595   9.644 -0.2298 -0.0594  0.4579
   58CHL1   H7A 6710   2.319   2.532   9.584 -0.5556 -1.4057  2.1681
   58CHL1   H7B 6711   2.339   2.693   9.658  0.1239  0.6574 -3.0089
   58CHL1    C8 6712   2.520   2.612   9.570  0.3900 -0.1876  1.1834
   58CHL1    H8 6713   2.551   2.509   9.542 -1.9003 -0.5576 -0.1775
   58CHL1   C14 6714   2.495   2.694   9.443  0.5220  0.1836 -0.7612
   58CHL1   H14 6715   2.446   2.781   9.491 -2.0813 -1.9913  0.6470
   58CHL1   C15 6716   2.386   2.648   9.339 -0.0559  0.0955  0.5360
   58CHL1  H15A 6717   2.371   2.542   9.312 -1.4537  0.7827 -1.5384
   58CHL1  H15B 6718   2.286   2.679   9.375 -0.5771 -0.7422 -0.1729
   58CHL1   C16 6719   2.425   2.728   9.216 -0.6382  0.3001  0.2093
   58CHL1  H16A 6720   2.428   2.660   9.129 -2.3344  0.9375 -0.3666
   58CHL1  H16B 6721   2.364   2.817   9.189 -0.0905  0.1198 -1.6672
   58CHL1   C17 6722   2.558   2.801   9.243  0.1303  0.3993 -0.3076
   58CHL1   H17 6723   2.541   2.899   9.293 -0.6735  0.7534 -1.2597
   58CHL1   C13 6724   2.621   2.724   9.365 -0.5053 -0.3366  0.2535
   58CHL1   C18 6725   2.682   2.594   9.308  0.9488 -0.3800  0.0249
   58CHL1  H18A 6726   2.611   2.557   9.231  0.0603  2.1716 -0.4584
   58CHL1  H18B 6727   2.780   2.622   9.264  0.9504  2.3943  1.6506
   58CHL1  H18C 6728   2.706   2.517   9.384 -1.7639 -2.0540 -0.7581
   58CHL1   C12 6729   2.712   2.800   9.462 -0.3833 -0.6215  0.3894
   58CHL1  H12A 6730   2.799   2.832   9.402  0.4504 -0.9314  1.4206
   58CHL1  H12B 6731   2.666   2.894   9.498  0.7881 -0.1498  0.6655
   58CHL1   C11 6732   2.758   2.716   9.582  0.0706  0.1100 -0.0526
   58CHL1  H11A 6733   2.816   2.626   9.552  0.2730  0.9030 -2.1227
   58CHL1  H11B 6734   2.819   2.784   9.645  2.9452 -1.9164 -0.5791
   58CHL1    C9 6735   2.631   2.673   9.659 -0.0163 -0.0127  0.0517
   58CHL1    H9 6736   2.588   2.769   9.693 -2.4575 -1.0549  0.0521
   58CHL1   C10 6737   2.648   2.590   9.785  0.1299 -0.1666 -0.7456
   58CHL1   C19 6738   2.730   2.465   9.767  0.8380  0.1293  0.1596
   58CHL1  H19A 6739   2.692   2.390   9.695 -0.4796 -1.3302  2.3236
   58CHL1  H19B 6740   2.829   2.499   9.727  0.5353  0.5450 -0.2402
   58CHL1  H19C 6741   2.742   2.417   9.866  2.1839 -2.7497 -1.3490
   58CHL1    C1 6742   2.708   2.682   9.901 -0.3834  0.3015 -0.1889
   58CHL1   H1A 6743   2.811   2.704   9.863  0.3440  0.5493  1.8788
   58CHL1   H1B 6744   2.650   2.775   9.918  0.2420  0.3634  1.6953
   58CHL1    C2 6745   2.715   2.620  10.041  0.2936  0.1702  0.2115
   58CHL1   H2A 6746   2.750   2.695  10.116 -1.1597 -0.9582  2.0546
   58CHL1   H2B 6747   2.798   2.546  10.045  1.9559  2.0439  1.1984
   58CHL1   C20 6748   2.646   2.815   9.121 -0.2638 -0.8577 -0.2683
   58CHL1   H20 6749   2.662   2.708   9.096  2.0605 -1.5888  3.9284
   58CHL1   C21 6750   2.780   2.884   9.144 -0.3920 -0.3568  0.2699
   58CHL1  H21A 6751   2.833   2.900   9.048 -0.7236 -0.8919 -0.0053
   58CHL1  H21B 6752   2.846   2.811   9.194 -1.6569 -0.5746  1.6582
   58CHL1  H21C 6753   2.778   2.974   9.209  1.5783  1.7199 -2.4157
   58CHL1   C22 6754   2.571   2.876   8.999 -0.0681 -0.5403  0.6692
   58CHL1  H22A 6755   2.474   2.827   8.979 -0.4617  0.4701  0.0669
   58CHL1  H22B 6756   2.556   2.985   9.017  0.9520 -0.2179 -0.3512
   58CHL1   C23 6757   2.653   2.874   8.866  0.2386  0.0001 -1.2641
   58CHL1  H23A 6758   2.728   2.957   8.867 -1.5382  1.6678 -2.3288
   58CHL1  H23B 6759   2.698   2.773   8.852  1.2553  0.5172 -1.8030
   58CHL1   C24 6760   2.566   2.890   8.732  0.1641 -0.2901  0.1042
   58CHL1  H24A 6761   2.494   2.809   8.709  1.0577 -1.1191  0.1614
   58CHL1  H24B 6762   2.526   2.991   8.754  0.2888 -0.0544 -0.7537
   58CHL1   C25 6763   2.653   2.898   8.602  0.6538  0.1686  0.6500
   58CHL1   H25 6764   2.727   2.979   8.617  1.2127  0.3480 -2.8928
   58CHL1   C26 6765   2.726   2.773   8.562  0.9042 -0.3236  0.2478
   58CHL1  H26A 6766   2.802   2.737   8.634  2.6018  2.2607 -0.1823
   58CHL1  H26B 6767   2.664   2.682   8.570  1.1895 -0.6359 -0.9239
   58CHL1  H26C 6768   2.781   2.770   8.465  1.3394 -2.0082  0.5356
   58CHL1   C27 6769   2.555   2.947   8.489  0.5999 -0.4077 -0.0242
   58CHL1  H27A 6770   2.456   2.899   8.506  0.2974  1.0209  2.5036
   58CHL1  H27B 6771   2.551   3.057   8.497 -0.0380 -0.4443  0.1612
   58CHL1  H27C 6772   2.594   2.925   8.387  2.9953  1.7684  0.3769
   59CHL1    C3 6773   2.194   1.698  10.337 -0.0971 -0.0803  0.0969
   59CHL1    H3 6774   2.291   1.706  10.283 -0.0254 -1.7044 -0.0418
   59CHL1    O3 6775   2.206   1.660  10.472  0.2922  0.3633 -0.1823
   59CHL1   H3' 6776   2.270   1.588  10.473 -2.2761 -2.0001  0.8231
   59CHL1    C4 6777   2.120   1.829  10.335  0.2942 -0.5167 -0.1575
   59CHL1   H4A 6778   2.024   1.814  10.389 -0.8262  2.6145 -1.1874
   59CHL1   H4B 6779   2.184   1.893  10.400  1.5439 -1.6503 -0.2317
   59CHL1    C5 6780   2.105   1.886  10.198  0.0831 -0.1532 -0.1931
   59CHL1    C6 6781   2.149   2.005  10.165 -0.2117 -0.1065 -0.2350
   59CHL1    H6 6782   2.209   2.066  10.234 -1.5060 -0.5647  1.3421
   59CHL1    C7 6783   2.127   2.064  10.025  0.5393  0.2637  0.3515
   59CHL1   H7A 6784   2.093   2.170  10.030  3.6853  1.3569  0.2672
   59CHL1   H7B 6785   2.225   2.080   9.974 -0.0804 -2.4932 -1.8220
   59CHL1    C8 6786   2.040   1.985   9.928 -0.5526  0.9321  0.3871
   59CHL1    H8 6787   1.933   2.013   9.938 -0.9931 -0.9588  1.2768
   59CHL1   C14 6788   2.079   2.016   9.786  0.2014  0.3762  0.0570
   59CHL1   H14 6789   2.180   1.969   9.783  0.6992  1.2488  2.1662
   59CHL1   C15 6790   2.088   2.158   9.741 -0.0981 -0.0948 -0.0961
   59CHL1  H15A 6791   1.991   2.208   9.760 -1.3918 -3.1848  1.6980
   59CHL1  H15B 6792   2.174   2.217   9.781 -1.0927  1.4284 -0.1597
   59CHL1   C16 6793   2.110   2.141   9.593  0.1938 -1.0497  0.1861
   59CHL1  H16A 6794   2.048   2.219   9.543 -0.4879 -0.0581  2.4896
   59CHL1  H16B 6795   2.210   2.185   9.572 -0.5360  1.3018  1.4237
   59CHL1   C17 6796   2.083   1.999   9.554  0.0821  0.5975 -0.0816
   59CHL1   H17 6797   2.179   1.942   9.559 -0.9819 -1.1520  1.2119
   59CHL1   C13 6798   2.002   1.935   9.671  0.2867  0.2040 -0.0227
   59CHL1   C18 6799   1.852   1.975   9.670  0.0867  0.2063  0.0374
   59CHL1  H18A 6800   1.811   1.977   9.773  1.2407 -1.4089  0.5362
   59CHL1  H18B 6801   1.834   2.076   9.627  1.5643 -0.5311 -2.3814
   59CHL1  H18C 6802   1.796   1.896   9.615 -1.9529  1.2155  0.5733
   59CHL1   C12 6803   2.006   1.780   9.703 -0.4156 -0.0128  0.2814
   59CHL1  H12A 6804   1.953   1.713   9.632  1.6100  0.2163 -1.4696
   59CHL1  H12B 6805   2.116   1.766   9.702 -0.1043  2.3803 -1.6542
   59CHL1   C11 6806   1.956   1.759   9.848  0.7983 -0.0700  0.5764
   59CHL1  H11A 6807   1.848   1.781   9.863  0.7368 -0.2394  0.3770
   59CHL1  H11B 6808   1.974   1.651   9.864  0.4048 -0.7001 -2.9015
   59CHL1    C9 6809   2.044   1.834   9.956 -0.3624  0.0241 -0.2051
   59CHL1    H9 6810   2.150   1.808   9.934  0.7132  2.5027  1.7636
   59CHL1   C10 6811   2.026   1.789  10.108 -0.1165  0.5959 -0.4347
   59CHL1   C19 6812   1.876   1.792  10.145 -0.8555  0.0441 -0.0646
   59CHL1  H19A 6813   1.814   1.720  10.089 -1.3421  1.5066 -1.4487
   59CHL1  H19B 6814   1.860   1.771  10.253  1.0050 -3.1206 -0.3517
   59CHL1  H19C 6815   1.840   1.896  10.128 -0.1272  0.3349  0.1562
   59CHL1    C1 6816   2.084   1.645  10.110  0.2789 -0.5994 -0.4103
   59CHL1   H1A 6817   2.018   1.581  10.047 -2.0381 -0.1036  1.4330
   59CHL1   H1B 6818   2.187   1.642  10.068  0.4677  0.7572 -0.0622
   59CHL1    C2 6819   2.095   1.595  10.263  0.4801 -0.3789  0.3658
   59CHL1   H2A 6820   2.144   1.495  10.271 -1.2059 -1.1652  1.1329
   59CHL1   H2B 6821   1.998   1.571  10.312  0.2940 -1.9780 -0.7384
   59CHL1   C20 6822   2.023   1.977   9.410  0.3034 -0.0321  0.8743
   59CHL1   H20 6823   1.927   2.034   9.409 -0.1459 -0.7813  0.9283
   59CHL1   C21 6824   1.974   1.833   9.379  0.0341  0.3357 -0.0349
   59CHL1  H21A 6825   1.907   1.794   9.458 -0.7539  0.0834 -0.8196
   59CHL1  H21B 6826   2.059   1.761   9.376 -1.9053 -1.9689 -1.7626
   59CHL1  H21C 6827   1.926   1.822   9.279 -2.2451  0.4245  1.0400
   59CHL1   C22 6828   2.110   2.042   9.293  0.1445 -0.3299  0.3727
   59CHL1  H22A 6829   2.161   2.134   9.327  1.9875 -1.1229 -0.1994
   59CHL1  H22B 6830   2.188   1.972   9.259 -1.5703 -2.2992  0.3725
   59CHL1   C23 6831   2.029   2.080   9.169  0.1788 -0.2380  0.0867
   59CHL1  H23A 6832   1.981   1.987   9.132  1.1133 -1.4483  1.8555
   59CHL1  H23B 6833   1.949   2.145   9.210 -1.4151 -2.4921  0.6132
   59CHL1   C24 6834   2.115   2.160   9.066 -0.2493  0.3428  0.2728
   59CHL1  H24A 6835   2.144   2.258   9.109 -2.0195  1.5972 -1.3102
   59CHL1  H24B 6836   2.215   2.114   9.054  0.3307  0.9066  2.5628
   59CHL1   C25 6837   2.058   2.185   8.923 -0.0891  0.5031 -0.0979
   59CHL1   H25 6838   2.123   2.261   8.874  2.5922 -0.4552  1.8514
   59CHL1   C26 6839   2.080   2.055   8.844 -0.0117 -0.0316 -0.5267
   59CHL1  H26A 6840   2.047   1.964   8.899 -0.6350  0.3710 -0.2371
   59CHL1  H26B 6841   2.027   2.047   8.748 -2.2034 -0.2860  0.6778
   59CHL1  H26C 6842   2.189   2.034   8.829  0.0743  1.1591 -1.5593
   59CHL1   C27 6843   1.913   2.233   8.920 -0.6447  0.5590 -0.0888
   59CHL1  H27A 6844   1.891   2.321   8.983  0.8825  0.6634  0.3091
   59CHL1  H27B 6845   1.880   2.253   8.816  1.4806  1.0456 -0.6734
   59CHL1  H27C 6846   1.853   2.145   8.954  1.0191 -0.0478  1.3226
   60CHL1    C3 6847   1.884   0.687  10.179  0.5390  0.2030 -0.0429
   60CHL1    H3 6848   1.918   0.584  10.153  1.2784  0.7000 -1.0430
   60CHL1    O3 6849   1.881   0.675  10.323 -0.0112 -0.0066  0.0649
   60CHL1   H3' 6850   1.865   0.762  10.361 -2.6490 -0.1127 -0.6842
   60CHL1    C4 6851   1.972   0.796  10.117 -0.1867 -0.3961 -0.0186
   60CHL1   H4A 6852   1.934   0.892  10.158  0.4477 -0.5363  0.9050
   60CHL1   H4B 6853   2.074   0.791  10.162 -0.0514  0.2972 -0.2440
   60CHL1    C5 6854   1.973   0.804   9.964  0.2626  0.5265  0.6121
   60CHL1    C6 6855   2.088   0.803   9.893  0.7219  0.2872  0.1989
   60CHL1    H6 6856   2.178   0.808   9.956  1.5384  0.8546 -0.9910
   60CHL1    C7 6857   2.108   0.803   9.742  0.6945  0.9155  0.0738
   60CHL1   H7A 6858   2.189   0.877   9.726  2.4311 -1.0971 -0.6087
   60CHL1   H7B 6859   2.151   0.708   9.704  1.6123  1.5496 -0.4907
   60CHL1    C8 6860   1.976   0.844   9.672 -0.2760 -0.1712  0.0162
   60CHL1    H8 6861   1.966   0.952   9.696 -0.6872 -0.6679  2.1066
   60CHL1   C14 6862   1.985   0.812   9.523 -0.0250 -0.5660  0.0627
   60CHL1   H14 6863   1.985   0.701   9.519  0.6946 -0.6312  1.6064
   60CHL1   C15 6864   2.103   0.881   9.437  0.1722 -0.2434 -0.3110
   60CHL1  H15A 6865   2.109   0.989   9.465 -0.2778 -0.2136 -0.3375
   60CHL1  H15B 6866   2.201   0.829   9.446  0.4768 -0.0478 -2.3475
   60CHL1   C16 6867   2.052   0.851   9.292  0.1204  0.2519  0.2080
   60CHL1  H16A 6868   2.078   0.934   9.222  1.3902 -0.4755 -0.2114
   60CHL1  H16B 6869   2.106   0.762   9.251  0.7436 -1.3174  4.2408
   60CHL1   C17 6870   1.900   0.826   9.292 -0.0502  0.4318  0.4094
   60CHL1   H17 6871   1.876   0.722   9.263 -0.6099  0.1704  1.7645
   60CHL1   C13 6872   1.862   0.851   9.443 -0.3083  0.0052  0.5734
   60CHL1   C18 6873   1.846   1.009   9.453  0.6111  0.1084 -0.3923
   60CHL1  H18A 6874   1.741   1.037   9.428  0.7695  0.2309 -0.9245
   60CHL1  H18B 6875   1.858   1.047   9.556 -1.2770  1.7753 -0.7679
   60CHL1  H18C 6876   1.924   1.060   9.392  1.5807 -1.2109 -0.2826
   60CHL1   C12 6877   1.743   0.776   9.510  0.3002 -0.1720 -0.5591
   60CHL1  H12A 6878   1.649   0.815   9.465  0.6559 -1.3696 -2.3770
   60CHL1  H12B 6879   1.750   0.667   9.490 -0.2661  0.2018 -2.9020
   60CHL1   C11 6880   1.726   0.804   9.660 -0.3116 -0.0369 -0.3128
   60CHL1  H11A 6881   1.712   0.915   9.655  0.0831 -0.0484 -1.8919
   60CHL1  H11B 6882   1.629   0.769   9.702  0.1073  0.1954  0.8782
   60CHL1    C9 6883   1.856   0.771   9.741 -0.6734 -0.4275  0.1206
   60CHL1    H9 6884   1.869   0.661   9.742  1.2359 -0.2313 -0.6505
   60CHL1   C10 6885   1.838   0.806   9.898  0.8102 -0.1584  0.1840
   60CHL1   C19 6886   1.792   0.953   9.919 -0.4022  0.4059  0.0418
   60CHL1  H19A 6887   1.854   1.025   9.861  0.9562 -0.0253  0.9457
   60CHL1  H19B 6888   1.686   0.954   9.885 -1.2639 -2.2236  2.5166
   60CHL1  H19C 6889   1.789   0.980  10.026  1.5826  1.3700 -0.1264
   60CHL1    C1 6890   1.743   0.713   9.971  0.3822  0.5485  0.7833
   60CHL1   H1A 6891   1.642   0.732   9.928  1.4917  2.2615 -1.1839
   60CHL1   H1B 6892   1.776   0.612   9.940  1.3853  0.6414  1.5357
   60CHL1    C2 6893   1.747   0.710  10.126  0.1889  0.0286  1.3156
   60CHL1   H2A 6894   1.668   0.640  10.160  1.5022 -1.4608  1.3512
   60CHL1   H2B 6895   1.703   0.809  10.153 -1.2239  0.3631 -1.9408
   60CHL1   C20 6896   1.822   0.898   9.177 -0.9101 -0.2620 -0.3855
   60CHL1   H20 6897   1.827   1.009   9.178 -0.2037 -0.2540 -2.4103
   60CHL1   C21 6898   1.673   0.861   9.191  0.3754 -0.1071 -0.2389
   60CHL1  H21A 6899   1.633   0.901   9.287  0.5346  3.1958 -1.5048
   60CHL1  H21B 6900   1.658   0.751   9.181 -1.1142  0.1735 -1.2419
   60CHL1  H21C 6901   1.613   0.899   9.105  1.8076 -1.5234 -1.8952
   60CHL1   C22 6902   1.866   0.845   9.038 -0.6596  0.2275 -0.2867
   60CHL1  H22A 6903   1.974   0.871   9.035 -0.1360 -1.5140  1.7342
   60CHL1  H22B 6904   1.868   0.734   9.039  0.1878  0.2044 -2.2522
   60CHL1   C23 6905   1.794   0.899   8.918 -0.0940  0.8686 -0.5045
   60CHL1  H23A 6906   1.698   0.842   8.910  0.7050 -0.3090 -2.0931
   60CHL1  H23B 6907   1.774   1.005   8.945 -2.0307  0.1130  1.1389
   60CHL1   C24 6908   1.880   0.895   8.792  0.2134  0.2717  0.1240
   60CHL1  H24A 6909   1.826   0.941   8.707 -0.4547  0.7586  0.8068
   60CHL1  H24B 6910   1.974   0.953   8.807  0.5940  0.3967 -2.5145
   60CHL1   C25 6911   1.912   0.753   8.748 -0.3766 -0.2235  0.2603
   60CHL1   H25 6912   1.944   0.695   8.837  0.0098  0.6227  0.6735
   60CHL1   C26 6913   1.787   0.680   8.688  0.2410  0.0849  0.3946
   60CHL1  H26A 6914   1.773   0.710   8.581  0.9734 -1.8820 -0.2671
   60CHL1  H26B 6915   1.819   0.574   8.691 -1.5740 -0.5430 -1.1924
   60CHL1  H26C 6916   1.695   0.689   8.750 -0.3556  0.2375 -0.4989
   60CHL1   C27 6917   2.041   0.762   8.659  0.0096  0.1084 -0.0464
   60CHL1  H27A 6918   2.058   0.668   8.603 -2.3704  0.2974 -1.1595
   60CHL1  H27B 6919   2.052   0.840   8.581  2.7323 -0.5211 -0.3301
   60CHL1  H27C 6920   2.128   0.778   8.727  0.5124 -0.2635 -0.5972
   61CHL1    C3 6921   5.255   0.444  10.264  0.0555  0.7513 -0.1090
   61CHL1    H3 6922   5.361   0.412  10.266  0.3014  1.6209  2.7493
   61CHL1    O3 6923   5.196   0.425  10.390  0.4658  0.2674  0.1711
   61CHL1   H3' 6924   5.245   0.348  10.421 -0.8900 -0.8713 -0.4858
   61CHL1    C4 6925   5.239   0.593  10.215 -0.1067  0.3228  0.3377
   61CHL1   H4A 6926   5.132   0.620  10.228  0.0666  0.5540  1.3591
   61CHL1   H4B 6927   5.309   0.651  10.279  0.2612 -0.4865  0.6717
   61CHL1    C5 6928   5.259   0.620  10.068 -0.6288  0.0800  0.2470
   61CHL1    C6 6929   5.334   0.719  10.020 -0.0092  0.0359 -0.0364
   61CHL1    H6 6930   5.377   0.793  10.089 -0.6399 -0.4519  0.8911
   61CHL1    C7 6931   5.357   0.756   9.875 -0.7727 -0.0553 -0.3226
   61CHL1   H7A 6932   5.339   0.865   9.866  0.3316  0.2682  1.2375
   61CHL1   H7B 6933   5.466   0.741   9.859 -0.3851  1.1303  1.0987
   61CHL1    C8 6934   5.276   0.671   9.776 -0.5572  0.5557  0.1607
   61CHL1    H8 6935   5.175   0.716   9.778 -1.0998 -0.3922 -3.3486
   61CHL1   C14 6936   5.329   0.681   9.632  0.4240 -0.0159  0.5297
   61CHL1   H14 6937   5.429   0.632   9.633  1.2991  1.5070 -3.1721
   61CHL1   C15 6938   5.351   0.818   9.572 -0.1968 -0.3867  0.4694
   61CHL1  H15A 6939   5.260   0.880   9.585 -2.1000 -2.7481 -1.1916
   61CHL1  H15B 6940   5.436   0.878   9.610 -0.4468 -0.5523  1.2886
   61CHL1   C16 6941   5.363   0.790   9.416  0.0188 -0.2385  0.4298
   61CHL1  H16A 6942   5.298   0.868   9.369  0.5068 -0.1801 -0.1517
   61CHL1  H16B 6943   5.463   0.809   9.372  0.5712  2.0488  2.5200
   61CHL1   C17 6944   5.314   0.645   9.398 -0.7063  0.3207 -0.2685
   61CHL1   H17 6945   5.399   0.573   9.393 -1.4029 -0.6207  0.8832
   61CHL1   C13 6946   5.246   0.600   9.530  0.0440 -1.0545  1.0195
   61CHL1   C18 6947   5.102   0.657   9.526 -0.1541 -0.6212 -0.0413
   61CHL1  H18A 6948   5.049   0.659   9.623  0.2963  2.6324  0.1884
   61CHL1  H18B 6949   5.101   0.761   9.487 -0.5829 -1.0853 -1.2838
   61CHL1  H18C 6950   5.045   0.595   9.453 -0.4420  2.2291 -2.3375
   61CHL1   C12 6951   5.257   0.455   9.570 -0.2751 -0.7648  0.5762
   61CHL1  H12A 6952   5.189   0.393   9.508 -1.4241  0.7476  0.2713
   61CHL1  H12B 6953   5.362   0.422   9.575 -0.4716 -1.4924  0.0076
   61CHL1   C11 6954   5.200   0.441   9.707 -0.4726 -0.1649  0.6932
   61CHL1  H11A 6955   5.091   0.463   9.708 -0.5086  0.3903 -4.0217
   61CHL1  H11B 6956   5.220   0.334   9.731 -1.4835 -1.0980 -2.3953
   61CHL1    C9 6957   5.267   0.527   9.819 -0.2449  0.6226  0.7838
   61CHL1    H9 6958   5.370   0.488   9.829 -0.6135 -0.3486  0.8845
   61CHL1   C10 6959   5.206   0.514   9.968 -0.2188 -0.2315 -0.6882
   61CHL1   C19 6960   5.057   0.526   9.961 -0.3350  0.3518 -0.2608
   61CHL1  H19A 6961   5.026   0.423   9.931 -3.5572  0.9568  0.8081
   61CHL1  H19B 6962   5.015   0.547  10.061 -1.0538  0.0039 -0.4827
   61CHL1  H19C 6963   5.018   0.599   9.886 -0.0500  1.2432  0.4638
   61CHL1    C1 6964   5.247   0.367  10.022  0.2643  0.7561 -0.0773
   61CHL1   H1A 6965   5.198   0.294   9.953  2.3564 -0.3913 -0.3764
   61CHL1   H1B 6966   5.354   0.340  10.012 -0.5549 -2.5586 -0.7665
   61CHL1    C2 6967   5.194   0.341  10.166 -0.4134  0.0057  0.2305
   61CHL1   H2A 6968   5.235   0.243  10.199  1.5649  0.7330 -0.0277
   61CHL1   H2B 6969   5.083   0.343  10.167 -0.4164 -0.1933  0.1920
   61CHL1   C20 6970   5.250   0.610   9.263  0.7647  0.3748  0.2893
   61CHL1   H20 6971   5.144   0.645   9.268 -0.0207 -1.6232 -1.6371
   61CHL1   C21 6972   5.255   0.458   9.239  0.6568  0.1075 -0.5943
   61CHL1  H21A 6973   5.230   0.437   9.133  1.0923 -0.0580 -0.6650
   61CHL1  H21B 6974   5.181   0.407   9.304  2.2837 -0.9076  0.4982
   61CHL1  H21C 6975   5.354   0.421   9.272 -0.1041 -0.0902  1.5730
   61CHL1   C22 6976   5.315   0.684   9.142 -0.0819 -0.1752  0.3045
   61CHL1  H22A 6977   5.312   0.794   9.157  1.1063 -0.1646  0.5225
   61CHL1  H22B 6978   5.420   0.655   9.122 -0.1866 -0.2583 -0.1153
   61CHL1   C23 6979   5.251   0.671   9.002 -0.1709 -0.4152 -0.7923
   61CHL1  H23A 6980   5.304   0.744   8.937  1.2205 -0.0157  0.7733
   61CHL1  H23B 6981   5.289   0.571   8.974  0.7801 -0.4095  0.4490
   61CHL1   C24 6982   5.096   0.692   8.998  0.0489  0.3145 -0.6895
   61CHL1  H24A 6983   5.063   0.613   9.068  0.7992  1.0344  0.4949
   61CHL1  H24B 6984   5.072   0.791   9.043 -0.1922  0.9232 -2.1137
   61CHL1   C25 6985   5.032   0.682   8.859  0.1074 -0.4659 -0.1696
   61CHL1   H25 6986   5.107   0.629   8.796  0.6513  3.4054 -2.9143
   61CHL1   C26 6987   4.896   0.606   8.857  0.0152 -0.3309  0.0150
   61CHL1  H26A 6988   4.924   0.505   8.895  0.3746 -0.5280 -0.7495
   61CHL1  H26B 6989   4.823   0.651   8.927 -1.8951 -2.0743 -0.8311
   61CHL1  H26C 6990   4.855   0.586   8.756  0.0606 -0.7563  0.0798
   61CHL1   C27 6991   5.022   0.817   8.789 -0.4620  0.0527 -0.0950
   61CHL1  H27A 6992   4.943   0.818   8.711  0.8636  1.3052 -1.4694
   61CHL1  H27B 6993   5.006   0.897   8.864  0.5720 -0.5505  0.7959
   61CHL1  H27C 6994   5.114   0.842   8.731  1.3294 -0.0127  2.6390
   62CHL1    C3 6995   6.664   4.057   9.987 -0.4257 -0.5466  0.1627
   62CHL1    H3 6996   6.631   3.955   9.956  2.1048 -1.9392  1.8695
   62CHL1    O3 6997   6.707   4.059  10.121 -0.4757  0.3001  0.0259
   62CHL1   H3' 6998   6.667   4.139  10.156 -0.6824  0.4407 -0.5256
   62CHL1    C4 6999   6.784   4.114   9.910  0.5247 -0.0501  0.5998
   62CHL1   H4A 7000   6.809   4.207   9.966 -0.0240 -0.8282  2.1523
   62CHL1   H4B 7001   6.871   4.045   9.913 -0.2085 -1.1077 -1.4401
   62CHL1    C5 7002   6.754   4.148   9.769 -0.5989  0.5172 -1.0495
   62CHL1    C6 7003   6.820   4.093   9.665  0.1864  0.3653  0.0352
   62CHL1    H6 7004   6.915   4.040   9.678  0.6857  1.6459  1.7954
   62CHL1    C7 7005   6.777   4.122   9.521  0.3488  0.3288 -0.3150
   62CHL1   H7A 7006   6.864   4.155   9.460 -0.9281 -0.7043 -2.7728
   62CHL1   H7B 7007   6.734   4.032   9.471  0.9130 -0.5283  0.7451
   62CHL1    C8 7008   6.676   4.239   9.498  0.6926  0.3843  0.4391
   62CHL1    H8 7009   6.722   4.338   9.521  0.2853  0.2374  1.9935
   62CHL1   C14 7010   6.615   4.232   9.355  0.1981 -0.3342 -0.8772
   62CHL1   H14 7011   6.558   4.137   9.357 -0.8239  0.2582 -0.9361
   62CHL1   C15 7012   6.714   4.238   9.234 -0.4419  0.0454  0.2886
   62CHL1  H15A 7013   6.790   4.316   9.251  0.3453 -0.5513 -0.4539
   62CHL1  H15B 7014   6.769   4.142   9.223  1.0163  1.1115 -2.1830
   62CHL1   C16 7015   6.624   4.268   9.111  0.3158 -0.0247  0.3451
   62CHL1  H16A 7016   6.654   4.359   9.054 -3.5888  1.0541 -0.1865
   62CHL1  H16B 7017   6.615   4.182   9.042  1.8976  1.3506 -1.6264
   62CHL1   C17 7018   6.479   4.284   9.171  0.8769 -0.8436  0.2809
   62CHL1   H17 7019   6.440   4.181   9.187  0.4792 -0.8392 -0.6219
   62CHL1   C13 7020   6.508   4.329   9.315 -0.5595  0.9517 -0.0488
   62CHL1   C18 7021   6.556   4.476   9.322  0.9009 -0.4566  0.4911
   62CHL1  H18A 7022   6.488   4.557   9.289 -1.5856 -2.2208  1.1749
   62CHL1  H18B 7023   6.595   4.513   9.419  0.0194  2.8596 -0.3722
   62CHL1  H18C 7024   6.641   4.495   9.253  1.0840 -1.2100  0.4989
   62CHL1   C12 7025   6.397   4.305   9.418  0.6563  0.0478  0.6828
   62CHL1  H12A 7026   6.320   4.380   9.393  1.8973  1.7698  1.8950
   62CHL1  H12B 7027   6.367   4.198   9.411 -0.0768  0.1541  2.0469
   62CHL1   C11 7028   6.447   4.314   9.564  0.2007  0.6370 -0.0105
   62CHL1  H11A 7029   6.468   4.422   9.583 -1.5908  0.5624  2.6599
   62CHL1  H11B 7030   6.363   4.280   9.628  2.3122  0.1604  2.6285
   62CHL1    C9 7031   6.561   4.218   9.599 -0.4034 -0.0039 -0.3010
   62CHL1    H9 7032   6.522   4.114   9.589 -0.2089  0.0049 -1.1886
   62CHL1   C10 7033   6.626   4.232   9.746  0.3065  1.1072 -0.9096
   62CHL1   C19 7034   6.662   4.377   9.785 -0.3062  0.7940 -0.3929
   62CHL1  H19A 7035   6.684   4.391   9.893  1.7726 -0.7483 -0.5840
   62CHL1  H19B 7036   6.736   4.416   9.712  0.6538  0.7851  0.5732
   62CHL1  H19C 7037   6.579   4.450   9.781 -0.5423  0.6052  0.8826
   62CHL1    C1 7038   6.506   4.192   9.842 -0.4066  0.0289 -0.3629
   62CHL1   H1A 7039   6.433   4.275   9.849 -0.4673  0.0378 -1.0974
   62CHL1   H1B 7040   6.448   4.114   9.789 -1.9976 -0.6955  2.3436
   62CHL1    C2 7041   6.546   4.147   9.984 -0.3912 -0.1787 -0.1565
   62CHL1   H2A 7042   6.469   4.103  10.051 -1.5778  1.2264 -0.5540
   62CHL1   H2B 7043   6.568   4.244  10.035 -0.6301 -0.6620  0.8823
   62CHL1   C20 7044   6.384   4.353   9.073  1.3151  0.5109 -0.0602
   62CHL1   H20 7045   6.410   4.460   9.063  0.1552  0.9367  1.4424
   62CHL1   C21 7046   6.240   4.323   9.120  0.0854 -0.4468  0.0174
   62CHL1  H21A 7047   6.219   4.357   9.223 -1.2203  1.2897 -0.8040
   62CHL1  H21B 7048   6.218   4.214   9.112 -1.9446  0.0679 -1.8571
   62CHL1  H21C 7049   6.167   4.380   9.059  0.3428 -0.4157 -0.2690
   62CHL1   C22 7050   6.404   4.295   8.928  0.3914  0.0985 -0.2083
   62CHL1  H22A 7051   6.497   4.338   8.885  0.2495  0.5312 -0.0836
   62CHL1  H22B 7052   6.429   4.187   8.920 -2.7893 -0.6439 -0.6550
   62CHL1   C23 7053   6.301   4.333   8.823  0.2291 -0.2147  0.4094
   62CHL1  H23A 7054   6.215   4.267   8.846 -1.1688  0.6088 -2.3264
   62CHL1  H23B 7055   6.271   4.437   8.848  1.4712  0.1516  0.4508
   62CHL1   C24 7056   6.339   4.316   8.681  0.1172 -0.8305  0.8143
   62CHL1  H24A 7057   6.252   4.357   8.626  0.0040  0.0966  1.6656
   62CHL1  H24B 7058   6.418   4.386   8.646 -0.2542 -0.6151  0.4001
   62CHL1   C25 7059   6.365   4.170   8.640 -0.0656  0.6749 -0.0554
   62CHL1   H25 7060   6.457   4.139   8.695  0.3916  2.0133 -0.0272
   62CHL1   C26 7061   6.253   4.071   8.672  0.0192  0.4374  0.5709
   62CHL1  H26A 7062   6.288   3.967   8.656 -0.2168  0.5605 -0.7618
   62CHL1  H26B 7063   6.232   4.071   8.781 -1.6247  2.3877  0.2775
   62CHL1  H26C 7064   6.168   4.105   8.609 -0.0286 -1.3914 -0.3808
   62CHL1   C27 7065   6.400   4.167   8.493  0.0886 -0.1254 -0.0548
   62CHL1  H27A 7066   6.434   4.065   8.467 -0.5360 -0.2119 -0.5247
   62CHL1  H27B 7067   6.308   4.193   8.438 -1.4112 -1.5055  1.7483
   62CHL1  H27C 7068   6.473   4.248   8.471 -1.2026  0.3294 -2.8117
   63CHL1    C3 7069   1.194   5.847  10.332 -0.1227 -0.5223 -0.2111
   63CHL1    H3 7070   1.305   5.853  10.331 -0.1491 -0.1283 -0.5565
   63CHL1    O3 7071   1.150   5.835  10.466 -0.0648  0.3619  0.6576
   63CHL1   H3' 7072   1.055   5.843  10.452 -0.5232  0.8156  3.7367
   63CHL1    C4 7073   1.122   5.973  10.271  0.3802  0.9528 -0.1537
   63CHL1   H4A 7074   1.014   5.957  10.294  1.1160 -2.5072  1.2300
   63CHL1   H4B 7075   1.151   6.063  10.329  0.2010  1.1908 -0.4359
   63CHL1    C5 7076   1.145   5.988  10.121  0.7552 -0.1675 -0.3226
   63CHL1    C6 7077   1.215   6.095  10.074  1.1503  0.6236  0.1402
   63CHL1    H6 7078   1.246   6.177  10.141 -0.8820  0.8441  0.8428
   63CHL1    C7 7079   1.241   6.123   9.927  0.1031  0.1275 -0.3418
   63CHL1   H7A 7080   1.222   6.227   9.892 -1.1739 -0.0964 -0.3132
   63CHL1   H7B 7081   1.347   6.098   9.903  0.4229  0.8900  0.2205
   63CHL1    C8 7082   1.153   6.036   9.836 -0.5886 -0.6430 -0.0788
   63CHL1    H8 7083   1.050   6.075   9.834  0.4286  2.0897 -0.5795
   63CHL1   C14 7084   1.193   6.043   9.689 -0.1992 -0.0081 -0.6753
   63CHL1   H14 7085   1.297   6.006   9.677 -0.1336  0.1309 -0.5258
   63CHL1   C15 7086   1.211   6.184   9.632 -1.0364 -0.0245  0.5000
   63CHL1  H15A 7087   1.130   6.251   9.666 -0.6209  1.1262 -0.7071
   63CHL1  H15B 7088   1.309   6.227   9.661 -0.8607 -0.3197  0.3448
   63CHL1   C16 7089   1.208   6.161   9.478  0.5288  0.5991 -0.4831
   63CHL1  H16A 7090   1.117   6.212   9.440  0.2612  0.2905 -0.2612
   63CHL1  H16B 7091   1.297   6.204   9.428 -0.2621  2.5440 -0.2586
   63CHL1   C17 7092   1.190   6.010   9.452  0.1041  0.0032  0.6106
   63CHL1   H17 7093   1.290   5.963   9.450  1.9932  3.8730 -1.2468
   63CHL1   C13 7094   1.119   5.962   9.587  0.7351 -0.5303  0.2157
   63CHL1   C18 7095   0.978   6.006   9.585  0.0969 -0.0223  0.0712
   63CHL1  H18A 7096   0.957   6.112   9.559  1.6146  0.3074  0.1457
   63CHL1  H18B 7097   0.921   5.930   9.528  1.1113  0.7718 -2.0652
   63CHL1  H18C 7098   0.943   5.983   9.688 -1.4772 -0.2830 -0.5223
   63CHL1   C12 7099   1.146   5.819   9.628 -0.4814  0.1467 -0.9607
   63CHL1  H12A 7100   1.091   5.749   9.562 -0.1456 -0.5522 -0.5027
   63CHL1  H12B 7101   1.253   5.793   9.616 -0.5155 -0.5188  0.1553
   63CHL1   C11 7102   1.100   5.790   9.778 -0.0865  0.3463  0.1087
   63CHL1  H11A 7103   0.989   5.791   9.781 -0.0768  1.5853  0.3523
   63CHL1  H11B 7104   1.122   5.686   9.810  3.2686  0.5059 -1.4543
   63CHL1    C9 7105   1.158   5.890   9.880 -0.4687  0.4215  0.6234
   63CHL1    H9 7106   1.266   5.864   9.885 -0.7572 -0.7763  0.8236
   63CHL1   C10 7107   1.112   5.870  10.034  0.3205 -0.0286  0.4617
   63CHL1   C19 7108   0.966   5.852  10.037  0.4205  0.6297  0.2682
   63CHL1  H19A 7109   0.920   5.867  10.138  0.5204 -3.7247  1.0796
   63CHL1  H19B 7110   0.918   5.928   9.973 -0.8225  0.7098  1.2672
   63CHL1  H19C 7111   0.938   5.751  10.000 -1.4573  1.7543 -1.5028
   63CHL1    C1 7112   1.190   5.744  10.091 -0.6426 -0.2974 -0.1479
   63CHL1   H1A 7113   1.149   5.661  10.030 -0.8201  1.0208 -1.8742
   63CHL1   H1B 7114   1.298   5.765  10.079  0.2596 -3.6698  1.6955
   63CHL1    C2 7115   1.175   5.718  10.242 -0.0999 -0.0458 -0.9213
   63CHL1   H2A 7116   1.247   5.636  10.264  0.7307  1.5881  2.7585
   63CHL1   H2B 7117   1.070   5.684  10.257 -0.2688  1.3293  1.2369
   63CHL1   C20 7118   1.114   5.987   9.317 -0.5194  0.2721 -0.7768
   63CHL1   H20 7119   1.006   6.012   9.325 -0.1764  0.8377  2.6722
   63CHL1   C21 7120   1.127   5.837   9.285 -0.3572  0.2217 -0.1361
   63CHL1  H21A 7121   1.227   5.790   9.280 -1.3992 -2.0021 -0.9889
   63CHL1  H21B 7122   1.069   5.807   9.195 -0.9436  0.0848  0.2827
   63CHL1  H21C 7123   1.074   5.772   9.358 -0.2265 -0.9611 -1.0792
   63CHL1   C22 7124   1.169   6.078   9.196 -0.3502 -0.1817  1.3119
   63CHL1  H22A 7125   1.117   6.041   9.105  3.0142 -0.3077 -0.6681
   63CHL1  H22B 7126   1.166   6.185   9.223  3.6315  0.4133 -0.1567
   63CHL1   C23 7127   1.315   6.052   9.147  0.3359  0.4589  0.1008
   63CHL1  H23A 7128   1.378   6.075   9.235  1.1788  0.5567 -0.5256
   63CHL1  H23B 7129   1.331   5.946   9.118 -1.2162  0.1418  0.3643
   63CHL1   C24 7130   1.361   6.155   9.034 -0.1604  0.2542  0.1137
   63CHL1  H24A 7131   1.304   6.113   8.948 -0.7062  1.0548  0.0783
   63CHL1  H24B 7132   1.332   6.261   9.054 -0.9955 -0.2453  1.6739
   63CHL1   C25 7133   1.510   6.133   9.001  0.3149  0.3368  0.0990
   63CHL1   H25 7134   1.575   6.110   9.088 -0.1118 -0.5040  0.1952
   63CHL1   C26 7135   1.522   5.998   8.923 -0.0584 -0.3353 -0.4984
   63CHL1  H26A 7136   1.626   5.990   8.885 -0.3344 -2.3334 -0.9054
   63CHL1  H26B 7137   1.499   5.905   8.981 -1.0484 -0.0281 -0.3924
   63CHL1  H26C 7138   1.455   6.005   8.834 -0.4081 -1.2072 -0.3123
   63CHL1   C27 7139   1.570   6.235   8.906  0.4592  0.1203  0.5109
   63CHL1  H27A 7140   1.661   6.188   8.860 -0.2164 -1.2639  0.5682
   63CHL1  H27B 7141   1.492   6.235   8.827 -0.3413  1.0267  1.2946
   63CHL1  H27C 7142   1.603   6.336   8.939 -2.1537  1.2831 -0.3750
   64CHL1    C3 7143   0.551   5.490  10.188  0.3305 -0.7382  0.1444
   64CHL1    H3 7144   0.648   5.532  10.152 -0.5264  1.9711  0.8540
   64CHL1    O3 7145   0.556   5.497  10.330  0.1167  0.3890  0.0391
   64CHL1   H3' 7146   0.482   5.443  10.357  1.4839 -2.2148 -1.1957
   64CHL1    C4 7147   0.438   5.584  10.143  0.3053 -0.7529  0.5548
   64CHL1   H4A 7148   0.348   5.541  10.192 -1.0058  0.3322 -0.8475
   64CHL1   H4B 7149   0.454   5.686  10.185  2.9104 -0.9043 -0.0230
   64CHL1    C5 7150   0.432   5.585   9.992 -0.1853  0.8177  0.3376
   64CHL1    C6 7151   0.453   5.691   9.915 -0.0887 -0.1244  0.1718
   64CHL1    H6 7152   0.478   5.788   9.962 -1.1992  0.1774  0.1458
   64CHL1    C7 7153   0.449   5.701   9.763  0.3026 -0.4467  0.1929
   64CHL1   H7A 7154   0.384   5.790   9.743 -0.2292 -0.8971 -0.0945
   64CHL1   H7B 7155   0.550   5.714   9.720  0.5669  1.0590  1.2131
   64CHL1    C8 7156   0.375   5.576   9.705 -0.4420 -0.3169  0.5992
   64CHL1    H8 7157   0.267   5.601   9.716 -0.4233  0.5997 -1.2555
   64CHL1   C14 7158   0.401   5.565   9.553 -0.1323 -1.0477 -0.5630
   64CHL1   H14 7159   0.512   5.569   9.542 -0.0621  2.4997  0.8882
   64CHL1   C15 7160   0.365   5.689   9.465 -0.2690 -0.7353 -0.5317
   64CHL1  H15A 7161   0.265   5.730   9.492 -0.5762 -0.7169 -1.6466
   64CHL1  H15B 7162   0.448   5.761   9.482 -0.8976 -0.7035  2.5439
   64CHL1   C16 7163   0.356   5.631   9.324  0.4361 -0.0464  0.0875
   64CHL1  H16A 7164   0.252   5.643   9.285  0.9076  0.8785 -0.9042
   64CHL1  H16B 7165   0.430   5.674   9.254  1.4166 -1.8227 -0.0042
   64CHL1   C17 7166   0.395   5.482   9.336 -0.7989 -0.0562 -0.2510
   64CHL1   H17 7167   0.506   5.480   9.340 -0.8000  1.7294  1.0028
   64CHL1   C13 7168   0.353   5.444   9.482 -0.0422  0.0410 -0.1370
   64CHL1   C18 7169   0.202   5.442   9.503  0.0360  0.3029 -0.4729
   64CHL1  H18A 7170   0.177   5.425   9.610 -1.3261  1.4291 -0.5981
   64CHL1  H18B 7171   0.154   5.537   9.469 -0.4193 -0.4428 -1.9541
   64CHL1  H18C 7172   0.156   5.366   9.436  0.1141  0.2706 -0.4879
   64CHL1   C12 7173   0.422   5.321   9.549  0.4144 -0.1676  0.2629
   64CHL1  H12A 7174   0.387   5.223   9.509  0.6172  0.4122 -1.3622
   64CHL1  H12B 7175   0.531   5.326   9.528  0.7857 -0.0188  2.1934
   64CHL1   C11 7176   0.400   5.323   9.701 -0.1249  0.7318  0.7106
   64CHL1  H11A 7177   0.295   5.296   9.725  0.4205 -2.2280 -0.0574
   64CHL1  H11B 7178   0.459   5.237   9.739  1.8182  1.4802 -0.5475
   64CHL1    C9 7179   0.431   5.452   9.772  0.0084  0.1156 -1.6131
   64CHL1    H9 7180   0.540   5.455   9.750 -0.2312  1.5771 -2.6307
   64CHL1   C10 7181   0.411   5.446   9.927  0.1520 -0.3059 -0.3156
   64CHL1   C19 7182   0.260   5.414   9.948 -0.5875  0.2988  0.1485
   64CHL1  H19A 7183   0.248   5.304   9.934 -0.1268  0.1622  0.7799
   64CHL1  H19B 7184   0.228   5.436  10.052 -0.4359  1.6775 -0.0901
   64CHL1  H19C 7185   0.191   5.476   9.887 -0.2777  0.2365 -0.2615
   64CHL1    C1 7186   0.505   5.340   9.994  0.6629 -0.0801  0.1005
   64CHL1   H1A 7187   0.467   5.238   9.972 -2.3619  0.9534  0.2866
   64CHL1   H1B 7188   0.604   5.354   9.945 -0.3279  0.0704 -1.9302
   64CHL1    C2 7189   0.521   5.351  10.145  0.2120  0.2330 -0.0151
   64CHL1   H2A 7190   0.602   5.285  10.182  1.7076  2.4853  0.8430
   64CHL1   H2B 7191   0.422   5.319  10.182 -1.1624 -1.3071 -4.5923
   64CHL1   C20 7192   0.348   5.391   9.218  0.9314 -0.0488  0.1116
   64CHL1   H20 7193   0.239   5.409   9.205  0.6949  0.3989  2.5252
   64CHL1   C21 7194   0.373   5.242   9.253  0.0182 -0.4003 -0.0494
   64CHL1  H21A 7195   0.282   5.232   9.316  1.3158  1.8291  2.2960
   64CHL1  H21B 7196   0.471   5.232   9.306 -0.2360  2.0629  0.9833
   64CHL1  H21C 7197   0.370   5.188   9.157 -0.4208  1.8425 -1.3281
   64CHL1   C22 7198   0.420   5.432   9.082 -0.5352 -0.6413 -0.0337
   64CHL1  H22A 7199   0.395   5.535   9.048 -1.1480 -0.7954 -0.0544
   64CHL1  H22B 7200   0.529   5.441   9.097 -0.6916  2.3260 -0.3646
   64CHL1   C23 7201   0.377   5.340   8.968  0.6665 -0.6672  0.5347
   64CHL1  H23A 7202   0.434   5.245   8.974 -1.2022 -1.8627 -0.0934
   64CHL1  H23B 7203   0.268   5.320   8.981  0.2792 -0.1839 -1.6870
   64CHL1   C24 7204   0.392   5.407   8.834 -0.3109 -0.0463  0.2296
   64CHL1  H24A 7205   0.326   5.497   8.831  0.4761  0.5749  1.1503
   64CHL1  H24B 7206   0.498   5.441   8.837 -0.0937 -0.4587 -2.0530
   64CHL1   C25 7207   0.378   5.314   8.709  0.6850  0.0367  0.0213
   64CHL1   H25 7208   0.435   5.221   8.730 -1.0197 -1.1939 -0.6811
   64CHL1   C26 7209   0.234   5.261   8.688 -0.6274 -0.2043 -0.3535
   64CHL1  H26A 7210   0.187   5.222   8.781  0.2230 -0.5845 -0.0756
   64CHL1  H26B 7211   0.165   5.332   8.639  2.0621  1.7384 -1.4413
   64CHL1  H26C 7212   0.245   5.181   8.611  1.5466  0.2278 -0.5206
   64CHL1   C27 7213   0.423   5.391   8.582  0.1159  0.1572  0.4303
   64CHL1  H27A 7214   0.424   5.319   8.497  0.6238 -0.7549  1.2037
   64CHL1  H27B 7215   0.336   5.459   8.568 -0.4011 -0.7889 -1.1885
   64CHL1  H27C 7216   0.520   5.443   8.598 -1.6897  3.8667 -0.0238
   65CHL1    C3 7217   3.026   1.938  10.258 -0.6036  1.1794 -0.6113
   65CHL1    H3 7218   3.091   1.850  10.239 -0.6084  1.0117  0.1359
   65CHL1    O3 7219   2.993   1.929  10.392  0.3073 -0.1529  0.5562
   65CHL1   H3' 7220   2.956   2.014  10.419 -3.3978 -1.5880  0.2402
   65CHL1    C4 7221   3.101   2.068  10.226 -0.4294  0.4242 -0.5518
   65CHL1   H4A 7222   3.033   2.149  10.261 -0.6270  0.1408 -0.2788
   65CHL1   H4B 7223   3.196   2.077  10.285 -0.4508 -1.2344 -0.2529
   65CHL1    C5 7224   3.141   2.078  10.082  0.3748  0.1264  0.3272
   65CHL1    C6 7225   3.260   2.109  10.041 -0.5623 -0.3385 -0.4547
   65CHL1    H6 7226   3.343   2.128  10.111 -2.3244  2.5069  0.9512
   65CHL1    C7 7227   3.282   2.145   9.893 -0.3012 -0.0798  0.1092
   65CHL1   H7A 7228   3.338   2.240   9.884  0.6568 -0.5765  0.7676
   65CHL1   H7B 7229   3.340   2.063   9.844 -0.7557 -0.9363  0.9767
   65CHL1    C8 7230   3.163   2.158   9.805 -0.4475  0.8994  0.2148
   65CHL1    H8 7231   3.119   2.259   9.818 -2.0272  0.1692  0.6636
   65CHL1   C14 7232   3.190   2.143   9.656 -0.5721  0.0506 -0.3685
   65CHL1   H14 7233   3.231   2.042   9.637  0.2075  0.3957 -0.5562
   65CHL1   C15 7234   3.298   2.231   9.600 -0.1587 -0.4221 -0.1962
   65CHL1  H15A 7235   3.273   2.338   9.615  0.0356 -0.4123  0.0646
   65CHL1  H15B 7236   3.392   2.213   9.657 -0.4276  0.1592  0.4423
   65CHL1   C16 7237   3.291   2.199   9.457  0.4407  0.5484  0.3935
   65CHL1  H16A 7238   3.310   2.289   9.395 -0.0627 -1.3059 -2.5569
   65CHL1  H16B 7239   3.362   2.119   9.426 -0.0126  0.2877  0.0097
   65CHL1   C17 7240   3.149   2.142   9.426  0.1227  0.2510 -0.7934
   65CHL1   H17 7241   3.167   2.034   9.405  1.2322  0.0345  1.1566
   65CHL1   C13 7242   3.072   2.149   9.558 -0.9592  0.8322 -0.0494
   65CHL1   C18 7243   3.021   2.296   9.573 -0.2168  0.1653 -0.2454
   65CHL1  H18A 7244   3.086   2.373   9.526  0.0944 -0.3525 -0.6704
   65CHL1  H18B 7245   2.921   2.294   9.525 -0.2958 -3.1127 -0.0327
   65CHL1  H18C 7246   2.997   2.317   9.680  1.6843  0.9581  0.0445
   65CHL1   C12 7247   2.973   2.045   9.592  0.1693  0.6712 -0.2257
   65CHL1  H12A 7248   2.885   2.056   9.525  0.2372 -0.0690 -0.4478
   65CHL1  H12B 7249   3.011   1.942   9.571 -2.9610 -0.4267 -0.8815
   65CHL1   C11 7250   2.937   2.051   9.743 -0.7085  0.2124  0.2012
   65CHL1  H11A 7251   2.862   2.132   9.755 -3.8117 -2.4065 -0.7991
   65CHL1  H11B 7252   2.878   1.958   9.758  1.8111 -1.2139  1.4841
   65CHL1    C9 7253   3.056   2.056   9.842 -0.7325 -0.3984 -0.1866
   65CHL1    H9 7254   3.116   1.963   9.843  0.7254  0.5233 -0.1656
   65CHL1   C10 7255   3.016   2.065   9.992  0.1710 -0.3973  0.1875
   65CHL1   C19 7256   2.923   2.195  10.014 -0.1509  0.2490  0.1470
   65CHL1  H19A 7257   2.984   2.285   9.988 -0.9280  0.3899 -1.2349
   65CHL1  H19B 7258   2.830   2.192   9.953 -0.0802  3.2324 -0.1857
   65CHL1  H19C 7259   2.888   2.202  10.119  0.0598 -0.5339  0.2715
   65CHL1    C1 7260   2.948   1.933  10.026 -0.1027 -0.2558  0.2155
   65CHL1   H1A 7261   2.848   1.919   9.981  0.1972  0.4908 -0.7179
   65CHL1   H1B 7262   3.017   1.848  10.008  1.4142  0.8711  0.5731
   65CHL1    C2 7263   2.898   1.936  10.176  0.4770 -0.6002  0.1790
   65CHL1   H2A 7264   2.847   1.841  10.205  1.8693 -1.3550  0.2225
   65CHL1   H2B 7265   2.841   2.029  10.195  0.7518 -1.1198  4.0739
   65CHL1   C20 7266   3.083   2.204   9.305  0.1543 -0.6082 -0.1420
   65CHL1   H20 7267   3.073   2.314   9.316 -0.3034 -0.4882 -1.6539
   65CHL1   C21 7268   2.939   2.150   9.277  0.1951  0.2210 -0.0944
   65CHL1  H21A 7269   2.910   2.158   9.170  0.0503 -1.3859 -0.1898
   65CHL1  H21B 7270   2.862   2.200   9.340  0.8852  2.5448 -1.0642
   65CHL1  H21C 7271   2.945   2.040   9.293 -0.6261 -0.1706 -2.3228
   65CHL1   C22 7272   3.169   2.169   9.182 -0.9191 -0.5782 -0.6856
   65CHL1  H22A 7273   3.276   2.171   9.209 -0.3874  0.1910 -2.7342
   65CHL1  H22B 7274   3.160   2.059   9.166  1.3728 -1.3814  2.9928
   65CHL1   C23 7275   3.155   2.245   9.051 -0.0945 -0.4146  0.4016
   65CHL1  H23A 7276   3.053   2.267   9.012  1.4338  1.5946 -2.7789
   65CHL1  H23B 7277   3.201   2.346   9.046  0.4679 -0.6903 -0.0453
   65CHL1   C24 7278   3.235   2.173   8.943 -0.5036  0.0542  0.4363
   65CHL1  H24A 7279   3.344   2.183   8.966 -0.3978 -1.7934  0.8064
   65CHL1  H24B 7280   3.212   2.066   8.962  2.7493 -0.5722  1.1845
   65CHL1   C25 7281   3.213   2.217   8.796 -0.5571  0.1261  0.9184
   65CHL1   H25 7282   3.110   2.183   8.770 -0.1705  0.5310 -1.1959
   65CHL1   C26 7283   3.225   2.369   8.765 -0.0079  0.7662 -0.1758
   65CHL1  H26A 7284   3.325   2.409   8.789  0.5267  1.0385 -2.6601
   65CHL1  H26B 7285   3.209   2.408   8.662  1.2416  0.2754 -0.5662
   65CHL1  H26C 7286   3.162   2.423   8.839 -0.3156  0.0409  0.1048
   65CHL1   C27 7287   3.307   2.132   8.705 -0.5574 -0.9622  0.1790
   65CHL1  H27A 7288   3.407   2.138   8.755  0.0546 -0.3785 -1.0900
   65CHL1  H27B 7289   3.276   2.026   8.706  1.5758 -1.6465 -1.6110
   65CHL1  H27C 7290   3.313   2.170   8.601  0.9179 -1.7526 -0.0544
   66CHL1    C3 7291   0.155   0.673  10.638  0.0014 -0.3043 -0.3075
   66CHL1    H3 7292   0.077   0.603  10.601 -1.6594  0.5064  1.6066
   66CHL1    O3 7293   0.164   0.659  10.782 -0.0129  0.3445 -0.5991
   66CHL1   H3' 7294   0.240   0.716  10.796 -0.1970  0.8882 -1.7204
   66CHL1    C4 7295   0.290   0.636  10.577 -0.3353  0.6279 -0.6275
   66CHL1   H4A 7296   0.365   0.700  10.629 -0.6220 -0.0191  0.5909
   66CHL1   H4B 7297   0.322   0.532  10.599  2.2440  1.5916  0.3219
   66CHL1    C5 7298   0.302   0.655  10.434 -0.0151 -0.0850  0.5656
   66CHL1    C6 7299   0.339   0.550  10.356  0.3057 -0.6493 -0.5118
   66CHL1    H6 7300   0.382   0.462  10.406  0.3750 -1.2389 -1.5841
   66CHL1    C7 7301   0.350   0.558  10.213 -0.2556 -0.8276  0.6846
   66CHL1   H7A 7302   0.448   0.518  10.179 -1.8280 -3.2519 -1.1949
   66CHL1   H7B 7303   0.282   0.479  10.173 -1.2079 -0.3882  1.4051
   66CHL1    C8 7304   0.327   0.697  10.157  0.1785  0.1731 -0.0031
   66CHL1    H8 7305   0.426   0.747  10.168  0.3060 -0.2481  0.7539
   66CHL1   C14 7306   0.274   0.683  10.011  0.2945  0.3092 -0.9699
   66CHL1   H14 7307   0.179   0.626  10.019  2.1453 -2.5583  1.7139
   66CHL1   C15 7308   0.334   0.587   9.904 -0.1931 -0.5996  0.1923
   66CHL1  H15A 7309   0.444   0.596   9.890 -0.7301  0.6076 -4.0244
   66CHL1  H15B 7310   0.309   0.488   9.948 -0.5856 -1.1157 -1.1527
   66CHL1   C16 7311   0.259   0.622   9.779 -0.3010 -0.1041 -0.3630
   66CHL1  H16A 7312   0.324   0.601   9.691  0.0695 -0.8028  0.0756
   66CHL1  H16B 7313   0.172   0.556   9.760  0.5882 -0.8719 -1.8723
   66CHL1   C17 7314   0.211   0.769   9.797 -0.3744 -0.0980  0.0686
   66CHL1   H17 7315   0.100   0.764   9.797 -0.4005  0.4851  0.6296
   66CHL1   C13 7316   0.250   0.809   9.942 -0.0820  0.7078  0.3777
   66CHL1   C18 7317   0.391   0.877   9.926 -0.3838  0.2941 -0.1282
   66CHL1  H18A 7318   0.464   0.821   9.864 -0.7953 -1.0994  0.6266
   66CHL1  H18B 7319   0.384   0.981   9.887  1.6847  0.1561 -0.9308
   66CHL1  H18C 7320   0.441   0.895  10.024  0.6301 -0.8956 -0.4110
   66CHL1   C12 7321   0.149   0.894  10.018  1.0241  0.1334  0.7608
   66CHL1  H12A 7322   0.126   0.989   9.966  0.9288 -1.5619 -2.4878
   66CHL1  H12B 7323   0.051   0.841  10.021 -0.5984  3.0503  1.2424
   66CHL1   C11 7324   0.201   0.915  10.167  0.1069  0.2171 -0.1250
   66CHL1  H11A 7325   0.296   0.973  10.167  1.4328 -1.8487  2.1915
   66CHL1  H11B 7326   0.129   0.986  10.213 -0.2036  1.2313 -2.1299
   66CHL1    C9 7327   0.225   0.778  10.234  0.7520 -0.5705 -0.4606
   66CHL1    H9 7328   0.128   0.724  10.229  0.1565  0.1227  2.4247
   66CHL1   C10 7329   0.246   0.792  10.388 -0.1961 -0.5191 -0.6106
   66CHL1   C19 7330   0.355   0.898  10.429  0.1204 -0.4723  0.1589
   66CHL1  H19A 7331   0.452   0.884  10.376  0.1348  3.4105 -0.9895
   66CHL1  H19B 7332   0.322   1.000  10.402  1.8974 -0.3701 -1.7467
   66CHL1  H19C 7333   0.361   0.896  10.540 -2.5409  4.7935  0.5537
   66CHL1    C1 7334   0.109   0.833  10.458 -0.0895 -0.7422 -0.4822
   66CHL1   H1A 7335   0.099   0.942  10.439  0.8986 -0.7084 -0.8266
   66CHL1   H1B 7336   0.021   0.788  10.406 -2.4334  1.2762  1.6288
   66CHL1    C2 7337   0.112   0.815  10.605 -0.5163 -0.1151  0.0414
   66CHL1   H2A 7338   0.011   0.843  10.643  0.0691  0.1911  1.4296
   66CHL1   H2B 7339   0.178   0.888  10.657  0.0626 -0.9144  0.4342
   66CHL1   C20 7340   0.236   0.863   9.679 -0.0335 -0.1872 -0.2467
   66CHL1   H20 7341   0.346   0.878   9.670 -0.2904  0.5474 -2.3930
   66CHL1   C21 7342   0.159   1.005   9.689  0.2873 -0.0791  0.1143
   66CHL1  H21A 7343   0.159   1.068   9.597  1.8882  1.7481  1.3285
   66CHL1  H21B 7344   0.216   1.065   9.763 -0.6244  1.6284 -0.5364
   66CHL1  H21C 7345   0.053   0.984   9.715 -0.2163 -1.1956 -2.6254
   66CHL1   C22 7346   0.204   0.804   9.538  0.3643  0.4944  0.0079
   66CHL1  H22A 7347   0.246   0.704   9.514 -2.1253 -0.2483 -1.4403
   66CHL1  H22B 7348   0.094   0.794   9.551  0.5242 -1.3509  0.0895
   66CHL1   C23 7349   0.226   0.893   9.412  0.2561  0.2599  0.0748
   66CHL1  H23A 7350   0.139   0.958   9.388  0.1544 -0.3703 -1.3227
   66CHL1  H23B 7351   0.310   0.961   9.439 -0.3581  2.0496 -2.3244
   66CHL1   C24 7352   0.271   0.819   9.283  0.7963  0.2883 -0.7621
   66CHL1  H24A 7353   0.208   0.730   9.262 -0.5272  1.5058 -2.0197
   66CHL1  H24B 7354   0.259   0.882   9.192 -0.8258  0.9384 -0.1129
   66CHL1   C25 7355   0.419   0.792   9.300 -1.6609  0.5154  0.3504
   66CHL1   H25 7356   0.452   0.790   9.406  0.1639  2.4685 -0.1458
   66CHL1   C26 7357   0.472   0.662   9.225  0.6225  0.0287 -0.2969
   66CHL1  H26A 7358   0.438   0.570   9.277  0.2493  1.1836  1.5367
   66CHL1  H26B 7359   0.441   0.665   9.118  1.6110  3.3019 -0.5273
   66CHL1  H26C 7360   0.582   0.666   9.232  0.5824  1.2970 -0.3223
   66CHL1   C27 7361   0.496   0.913   9.243 -0.3085  1.2650 -0.0758
   66CHL1  H27A 7362   0.482   0.932   9.134 -0.2506  0.5451 -0.2126
   66CHL1  H27B 7363   0.492   1.007   9.300  1.9825  0.6900  1.1124
   66CHL1  H27C 7364   0.602   0.881   9.252 -1.2578 -2.7090 -1.6998
   67CHL1    C3 7365   4.832   0.902  10.146  0.3288  0.0419 -0.3298
   67CHL1    H3 7366   4.938   0.919  10.116  0.9335 -1.0751  1.0938
   67CHL1    O3 7367   4.835   0.890  10.288  0.5121  0.1479 -0.0667
   67CHL1   H3' 7368   4.795   0.808  10.318  1.3181 -0.1374  0.2388
   67CHL1    C4 7369   4.731   1.013  10.102  0.1860 -0.5345 -0.4378
   67CHL1   H4A 7370   4.632   0.992  10.147 -0.2702  1.3063 -0.5771
   67CHL1   H4B 7371   4.777   1.099  10.155 -1.2514 -0.3019  0.4604
   67CHL1    C5 7372   4.732   1.040   9.949 -0.3555 -0.2833 -0.8500
   67CHL1    C6 7373   4.754   1.163   9.896  0.2840  0.3000 -0.7543
   67CHL1    H6 7374   4.771   1.252   9.959 -0.1419  0.1428 -0.4185
   67CHL1    C7 7375   4.754   1.188   9.751 -0.3828  0.2882  0.1392
   67CHL1   H7A 7376   4.688   1.273   9.723 -0.7551 -0.6316 -1.8941
   67CHL1   H7B 7377   4.859   1.214   9.725 -0.7214  1.5674  0.0435
   67CHL1    C8 7378   4.704   1.067   9.666  0.0792  0.4575 -0.4856
   67CHL1    H8 7379   4.594   1.056   9.673 -0.1124  0.3061 -3.3339
   67CHL1   C14 7380   4.757   1.087   9.522  0.6360 -0.3867  1.0608
   67CHL1   H14 7381   4.868   1.085   9.529  0.8439 -0.5666 -1.6483
   67CHL1   C15 7382   4.726   1.221   9.445  0.4347  0.5922  0.8802
   67CHL1  H15A 7383   4.616   1.231   9.455  0.3648  1.2667 -0.4270
   67CHL1  H15B 7384   4.772   1.321   9.460  0.4502  1.3843 -3.8131
   67CHL1   C16 7385   4.754   1.183   9.298 -0.4342  0.0811  0.3999
   67CHL1  H16A 7386   4.660   1.198   9.240 -2.4566  0.1380  3.5338
   67CHL1  H16B 7387   4.838   1.236   9.249 -0.7150  0.1641  0.0040
   67CHL1   C17 7388   4.776   1.027   9.295 -0.1332  0.9119  0.6821
   67CHL1   H17 7389   4.887   1.024   9.295 -0.1492  0.3351  0.3285
   67CHL1   C13 7390   4.716   0.974   9.426  0.7987 -0.4633  0.3103
   67CHL1   C18 7391   4.565   0.956   9.405  0.6254 -0.0727 -0.1055
   67CHL1  H18A 7392   4.537   0.853   9.377 -0.3320 -0.1348  1.0302
   67CHL1  H18B 7393   4.508   0.984   9.496 -1.3586  1.9399 -1.9140
   67CHL1  H18C 7394   4.523   1.034   9.338 -1.4350 -1.1605 -0.1013
   67CHL1   C12 7395   4.782   0.856   9.479 -0.2535 -0.1175  0.0299
   67CHL1  H12A 7396   4.753   0.765   9.421 -0.1759  0.9783 -1.7686
   67CHL1  H12B 7397   4.892   0.866   9.467 -0.9890  3.7118 -4.8922
   67CHL1   C11 7398   4.748   0.832   9.624  0.0232 -0.3971  0.0528
   67CHL1  H11A 7399   4.638   0.818   9.631 -0.2671  1.7758  0.0667
   67CHL1  H11B 7400   4.804   0.742   9.659  1.3982  0.6102  0.5256
   67CHL1    C9 7401   4.775   0.945   9.725  0.3378 -0.6246 -0.3875
   67CHL1    H9 7402   4.885   0.958   9.724  0.2572  0.0980 -0.1474
   67CHL1   C10 7403   4.724   0.912   9.863 -0.0848 -0.6988  0.2390
   67CHL1   C19 7404   4.579   0.863   9.872  0.2033 -0.3490  0.2009
   67CHL1  H19A 7405   4.549   0.864   9.979 -1.3081 -1.5187 -0.1999
   67CHL1  H19B 7406   4.504   0.929   9.823  0.8117 -1.2454 -2.0189
   67CHL1  H19C 7407   4.566   0.757   9.842 -0.0577 -1.0924  2.8636
   67CHL1    C1 7408   4.813   0.798   9.926 -0.4364  0.4208  0.2464
   67CHL1   H1A 7409   4.806   0.698   9.879 -3.7449  0.7905 -0.1659
   67CHL1   H1B 7410   4.920   0.824   9.911 -0.2473 -1.9461 -2.8668
   67CHL1    C2 7411   4.789   0.776  10.080  0.2589 -0.0253  0.3641
   67CHL1   H2A 7412   4.856   0.696  10.116  3.1225  2.8054  1.6233
   67CHL1   H2B 7413   4.688   0.738  10.105 -0.6427  1.4670 -0.8786
   67CHL1   C20 7414   4.726   0.969   9.161  0.3549  0.6330 -0.6757
   67CHL1   H20 7415   4.617   0.987   9.154  0.0990 -1.2965 -2.1190
   67CHL1   C21 7416   4.753   0.815   9.157 -0.2818 -0.1171  0.2926
   67CHL1  H21A 7417   4.738   0.788   9.050  0.8244 -0.8497  0.3042
   67CHL1  H21B 7418   4.678   0.751   9.208  0.1085 -1.2921 -0.5728
   67CHL1  H21C 7419   4.853   0.804   9.204 -0.2975 -1.0686  0.1071
   67CHL1   C22 7420   4.778   1.044   9.032  0.7780  0.6190  1.1320
   67CHL1  H22A 7421   4.790   1.152   9.056 -0.0698  0.4516  2.3633
   67CHL1  H22B 7422   4.878   0.999   9.016  0.6806  0.3000  1.4094
   67CHL1   C23 7423   4.692   1.031   8.905 -0.3941 -0.4861 -0.3815
   67CHL1  H23A 7424   4.681   0.924   8.877 -1.9637 -0.3985 -0.1317
   67CHL1  H23B 7425   4.592   1.079   8.913 -0.2725  0.1358 -2.2136
   67CHL1   C24 7426   4.765   1.101   8.791  0.8504 -0.4081  0.2171
   67CHL1  H24A 7427   4.762   1.212   8.802  0.4900 -0.3830 -0.1351
   67CHL1  H24B 7428   4.867   1.059   8.779  1.2245  0.8388 -1.0550
   67CHL1   C25 7429   4.698   1.093   8.654 -0.5560 -0.6673  0.3680
   67CHL1   H25 7430   4.591   1.124   8.658 -0.8413 -1.7799  1.5584
   67CHL1   C26 7431   4.765   1.198   8.564  0.2055  0.2269  0.3400
   67CHL1  H26A 7432   4.728   1.298   8.593  0.5872  0.5908 -0.4011
   67CHL1  H26B 7433   4.876   1.194   8.576  0.0269 -0.8693  1.7152
   67CHL1  H26C 7434   4.731   1.199   8.458  0.7686  1.9580  0.1553
   67CHL1   C27 7435   4.710   0.960   8.576  1.2822  0.8837  0.1893
   67CHL1  H27A 7436   4.661   0.961   8.477  0.7956 -3.7057  0.2657
   67CHL1  H27B 7437   4.815   0.925   8.579  1.5917  1.8934  1.3800
   67CHL1  H27C 7438   4.653   0.890   8.641  1.0560  1.1533  0.2870
   68CHL1    C3 7439   2.875   1.512  10.307  0.8737 -0.0212 -0.0810
   68CHL1    H3 7440   2.865   1.621  10.329 -1.5806 -0.2243  0.0488
   68CHL1    O3 7441   2.918   1.444  10.422  0.6980 -0.4894  0.1176
   68CHL1   H3' 7442   2.916   1.351  10.399 -1.3889  0.1761 -2.6245
   68CHL1    C4 7443   2.735   1.468  10.261  0.3068  0.0054  0.5128
   68CHL1   H4A 7444   2.720   1.358  10.261  0.5277 -0.0257  0.3954
   68CHL1   H4B 7445   2.677   1.510  10.346 -1.3465  1.0973 -1.0967
   68CHL1    C5 7446   2.683   1.522  10.132 -0.2217  0.1003  0.6618
   68CHL1    C6 7447   2.563   1.582  10.114 -1.0601 -0.3527  0.1783
   68CHL1    H6 7448   2.486   1.597  10.192 -0.2071  0.5035  0.8691
   68CHL1    C7 7449   2.515   1.630   9.975  0.5749 -0.4214 -0.2588
   68CHL1   H7A 7450   2.415   1.583   9.960  1.0167 -1.3869 -0.1943
   68CHL1   H7B 7451   2.506   1.741   9.975 -0.3178 -0.4480  2.5299
   68CHL1    C8 7452   2.588   1.575   9.857 -0.1292  0.3655 -1.2577
   68CHL1    H8 7453   2.562   1.467   9.852 -1.4245  0.6551 -0.7374
   68CHL1   C14 7454   2.554   1.650   9.724 -1.0354 -0.1197 -0.0116
   68CHL1   H14 7455   2.591   1.754   9.736 -0.9176  0.0810 -1.9688
   68CHL1   C15 7456   2.411   1.645   9.684  0.1828 -0.3340 -0.3708
   68CHL1  H15A 7457   2.377   1.540   9.694 -3.4222  0.9871  2.1523
   68CHL1  H15B 7458   2.339   1.701   9.747  0.3600 -1.6335  1.0187
   68CHL1   C16 7459   2.411   1.693   9.541  0.6659 -0.2875  0.0628
   68CHL1  H16A 7460   2.343   1.639   9.471  2.4644 -1.6528 -0.6631
   68CHL1  H16B 7461   2.381   1.800   9.544  0.7596 -0.2851  0.9824
   68CHL1   C17 7462   2.553   1.682   9.490  0.0197  0.2734  0.8323
   68CHL1   H17 7463   2.605   1.779   9.506  0.4301  0.2610 -0.4187
   68CHL1   C13 7464   2.621   1.594   9.603 -0.1373  0.0168 -1.0164
   68CHL1   C18 7465   2.584   1.447   9.569  0.7711 -0.0640  0.0476
   68CHL1  H18A 7466   2.660   1.403   9.500  1.8971  0.0347  1.2090
   68CHL1  H18B 7467   2.594   1.386   9.661 -0.8368 -1.7319 -0.8633
   68CHL1  H18C 7468   2.486   1.434   9.519  1.1399  0.2720 -0.7758
   68CHL1   C12 7469   2.775   1.604   9.623 -0.1896  0.9906  0.1409
   68CHL1  H12A 7470   2.834   1.560   9.540 -2.2060 -2.5554  0.5010
   68CHL1  H12B 7471   2.806   1.711   9.622  3.5599 -0.0382 -0.5237
   68CHL1   C11 7472   2.825   1.546   9.761 -0.1774  0.3138 -0.4010
   68CHL1  H11A 7473   2.829   1.439   9.732 -0.2082  0.9647 -2.9537
   68CHL1  H11B 7474   2.931   1.577   9.777 -0.7203  0.7667  2.6609
   68CHL1    C9 7475   2.740   1.576   9.885 -0.0384  0.2061  0.3988
   68CHL1    H9 7476   2.755   1.681   9.919  4.0285 -0.3314  0.4260
   68CHL1   C10 7477   2.785   1.497  10.014 -0.0871  0.1698  0.2207
   68CHL1   C19 7478   2.791   1.348   9.984 -0.1613 -0.2060  0.1777
   68CHL1  H19A 7479   2.870   1.310   9.916  0.2629  0.5501  0.2437
   68CHL1  H19B 7480   2.802   1.292  10.079  0.5391 -0.1316  0.1450
   68CHL1  H19C 7481   2.696   1.310   9.941  0.6148 -0.9172 -0.9384
   68CHL1    C1 7482   2.932   1.544  10.056 -0.3802  0.4164  0.0742
   68CHL1   H1A 7483   3.003   1.517   9.975 -0.6921 -1.5856  0.4582
   68CHL1   H1B 7484   2.936   1.655  10.070  0.1906  0.2856  0.9835
   68CHL1    C2 7485   2.974   1.487  10.193 -0.4264 -0.0158 -0.2848
   68CHL1   H2A 7486   3.072   1.530  10.225 -1.6548  1.0206  2.2636
   68CHL1   H2B 7487   2.991   1.380  10.172 -0.8974 -0.0071 -0.7041
   68CHL1   C20 7488   2.567   1.643   9.337  0.2779 -0.2971 -0.2735
   68CHL1   H20 7489   2.534   1.538   9.324  1.6323 -0.6881 -0.6048
   68CHL1   C21 7490   2.707   1.656   9.281 -0.4657  0.1157 -0.2192
   68CHL1  H21A 7491   2.748   1.759   9.271  0.7014 -0.4091 -0.9444
   68CHL1  H21B 7492   2.728   1.611   9.182  2.5338  1.4540 -0.2595
   68CHL1  H21C 7493   2.775   1.609   9.355 -0.5743  0.4301  0.0828
   68CHL1   C22 7494   2.471   1.722   9.246  0.6977  0.7164 -1.0485
   68CHL1  H22A 7495   2.370   1.732   9.290  0.7531 -0.5325 -0.6212
   68CHL1  H22B 7496   2.522   1.818   9.224 -0.5228  2.0376  1.7058
   68CHL1   C23 7497   2.452   1.641   9.120  0.5139 -0.1567 -0.6779
   68CHL1  H23A 7498   2.547   1.637   9.061  1.2015 -3.5114  0.5229
   68CHL1  H23B 7499   2.435   1.533   9.141 -0.5015 -0.3350 -2.3151
   68CHL1   C24 7500   2.337   1.685   9.034 -0.4625 -0.1403  0.3304
   68CHL1  H24A 7501   2.236   1.665   9.074 -0.8818  0.5581 -0.3680
   68CHL1  H24B 7502   2.343   1.796   9.024  0.5594  0.0204  2.3666
   68CHL1   C25 7503   2.339   1.640   8.884 -0.6110 -0.6636  0.1119
   68CHL1   H25 7504   2.439   1.672   8.849 -0.2142  1.1242  2.6828
   68CHL1   C26 7505   2.312   1.488   8.861 -0.5688 -0.2753 -0.4254
   68CHL1  H26A 7506   2.215   1.453   8.901 -0.8645  0.3084 -0.6203
   68CHL1  H26B 7507   2.338   1.459   8.756  0.4555  1.5360 -0.7006
   68CHL1  H26C 7508   2.391   1.434   8.917  1.3626  1.7704 -1.0975
   68CHL1   C27 7509   2.249   1.729   8.796  0.2119  0.3095 -0.9854
   68CHL1  H27A 7510   2.243   1.687   8.693  0.9965 -2.6824  0.1222
   68CHL1  H27B 7511   2.144   1.716   8.829  0.4803 -0.5867 -0.4444
   68CHL1  H27C 7512   2.290   1.832   8.801  0.9465 -0.0433  0.8952
   69CHL1    C3 7513   2.497   5.993   6.807 -0.5432 -0.6278 -0.6140
   69CHL1    H3 7514   2.552   5.896   6.810 -0.5256 -0.5677  1.3501
   69CHL1    O3 7515   2.501   6.064   6.682 -0.4911 -0.4511 -0.1688
   69CHL1   H3' 7516   2.409   6.075   6.657 -1.2882 -1.0835  2.3284
   69CHL1    C4 7517   2.349   5.958   6.843  0.6219  0.3439 -0.0589
   69CHL1   H4A 7518   2.286   6.040   6.805  0.8820 -0.7752 -3.0209
   69CHL1   H4B 7519   2.308   5.879   6.776 -0.5754  1.4384 -0.6196
   69CHL1    C5 7520   2.328   5.941   6.988 -0.4270 -0.2834  0.3072
   69CHL1    C6 7521   2.245   5.841   7.028  0.3941 -0.5350 -0.3631
   69CHL1    H6 7522   2.220   5.767   6.951 -1.9053 -0.1537 -0.0045
   69CHL1    C7 7523   2.182   5.836   7.163 -0.3195 -0.1081 -0.0840
   69CHL1   H7A 7524   2.071   5.836   7.154 -0.2163 -1.7777 -1.7956
   69CHL1   H7B 7525   2.209   5.752   7.229 -0.0769  0.3746  0.4330
   69CHL1    C8 7526   2.221   5.963   7.243 -0.4961 -0.1325  0.4596
   69CHL1    H8 7527   2.147   6.038   7.209 -0.3213  0.1996  0.8154
   69CHL1   C14 7528   2.203   5.928   7.388  0.6331  0.6606 -0.1066
   69CHL1   H14 7529   2.283   5.855   7.412  1.0434  0.5441 -1.7659
   69CHL1   C15 7530   2.071   5.860   7.434 -0.3115  0.4243  0.6221
   69CHL1  H15A 7531   1.989   5.925   7.397 -1.8620 -0.6967  2.0200
   69CHL1  H15B 7532   2.053   5.763   7.384 -1.8027 -0.1828  2.2977
   69CHL1   C16 7533   2.073   5.863   7.590 -0.1577 -0.4832  0.4614
   69CHL1  H16A 7534   1.975   5.899   7.629 -0.3310  0.3573 -0.7132
   69CHL1  H16B 7535   2.089   5.758   7.620  0.3569  0.0021  1.9085
   69CHL1   C17 7536   2.191   5.963   7.624 -0.5621  0.3046 -0.4253
   69CHL1   H17 7537   2.278   5.897   7.646 -1.5640 -0.5317  1.1176
   69CHL1   C13 7538   2.229   6.036   7.496  0.9368 -0.0590 -0.2144
   69CHL1   C18 7539   2.145   6.162   7.467  0.2448 -0.5533  0.0637
   69CHL1  H18A 7540   2.158   6.206   7.366  0.0043  0.1795  0.3448
   69CHL1  H18B 7541   2.037   6.153   7.493 -0.2003  2.4126 -0.5443
   69CHL1  H18C 7542   2.164   6.245   7.538 -1.4829 -0.1037  0.0313
   69CHL1   C12 7543   2.381   6.069   7.473  0.3137  0.6095  0.0220
   69CHL1  H12A 7544   2.437   6.138   7.539  3.3379 -0.4993 -1.2766
   69CHL1  H12B 7545   2.436   5.975   7.495 -0.7519 -0.4195 -1.5591
   69CHL1   C11 7546   2.416   6.105   7.332 -0.2090 -0.1849 -0.4732
   69CHL1  H11A 7547   2.382   6.210   7.317 -0.9031 -0.3963 -0.3986
   69CHL1  H11B 7548   2.526   6.094   7.327 -0.1790 -0.2357  0.2565
   69CHL1    C9 7549   2.362   6.006   7.223 -0.4058  0.0171 -0.2510
   69CHL1    H9 7550   2.424   5.921   7.258 -0.5750  0.7351  1.9211
   69CHL1   C10 7551   2.391   6.050   7.085 -0.6685  0.0287 -0.1856
   69CHL1   C19 7552   2.324   6.190   7.061  0.4418  0.0705  0.1685
   69CHL1  H19A 7553   2.230   6.203   7.120  1.3432  1.1760  1.3955
   69CHL1  H19B 7554   2.396   6.274   7.076  0.2409  0.8800 -3.1544
   69CHL1  H19C 7555   2.295   6.206   6.955  0.6418  2.9756  0.5168
   69CHL1    C1 7556   2.545   6.063   7.050  0.1931 -0.1695 -0.0599
   69CHL1   H1A 7557   2.585   6.155   7.099  1.8821 -1.0885  0.3533
   69CHL1   H1B 7558   2.607   5.974   7.076  0.7465 -0.0143 -0.8444
   69CHL1    C2 7559   2.566   6.097   6.906  0.0240  0.0240  0.1268
   69CHL1   H2A 7560   2.673   6.111   6.882  0.3816 -2.0868  0.4047
   69CHL1   H2B 7561   2.507   6.189   6.886 -0.9649 -0.7948 -0.7710
   69CHL1   C20 7562   2.167   6.049   7.745 -0.4019  0.0240  0.5176
   69CHL1   H20 7563   2.086   6.122   7.726  0.8481  1.2399 -0.2849
   69CHL1   C21 7564   2.287   6.147   7.783 -0.2441 -0.5008  0.3492
   69CHL1  H21A 7565   2.308   6.222   7.704  0.7401 -2.1344 -0.9735
   69CHL1  H21B 7566   2.378   6.084   7.791 -1.3100 -2.0430  0.5902
   69CHL1  H21C 7567   2.272   6.211   7.872  1.8392 -0.2615  0.5507
   69CHL1   C22 7568   2.124   5.972   7.871  0.1835  0.1887 -0.5122
   69CHL1  H22A 7569   2.115   6.054   7.946 -0.4258  1.1506 -1.6231
   69CHL1  H22B 7570   2.020   5.938   7.850  0.0520 -0.7816  1.6232
   69CHL1   C23 7571   2.210   5.856   7.930 -0.8102 -0.0207  1.0932
   69CHL1  H23A 7572   2.234   5.781   7.852 -0.5356  1.7642 -0.5953
   69CHL1  H23B 7573   2.307   5.905   7.951 -0.3062 -1.2989  1.7594
   69CHL1   C24 7574   2.162   5.780   8.052  0.3694 -0.5199  0.4745
   69CHL1  H24A 7575   2.158   5.853   8.135  0.9353 -2.1161  1.9386
   69CHL1  H24B 7576   2.063   5.741   8.022  0.4861 -0.7920  0.4383
   69CHL1   C25 7577   2.260   5.670   8.089  0.7377  0.2530 -0.3583
   69CHL1   H25 7578   2.270   5.618   7.991  2.0372 -3.9373  1.8665
   69CHL1   C26 7579   2.390   5.724   8.146 -0.4485  0.7370 -0.5996
   69CHL1  H26A 7580   2.474   5.653   8.161 -0.2471  1.3475  1.3775
   69CHL1  H26B 7581   2.439   5.806   8.089  0.5647 -0.7169 -1.8233
   69CHL1  H26C 7582   2.365   5.770   8.244  0.2692  0.4456 -0.2819
   69CHL1   C27 7583   2.189   5.578   8.189  0.1315  0.7614 -0.1131
   69CHL1  H27A 7584   2.162   5.636   8.280  2.1973  3.0508 -0.9030
   69CHL1  H27B 7585   2.097   5.536   8.144 -0.0791 -0.3902  1.3488
   69CHL1  H27C 7586   2.261   5.499   8.220 -0.0522  0.7345  0.2519
   70CHL1    C3 7587   1.810   2.449   7.019 -0.8782  1.1997  0.1993
   70CHL1    H3 7588   1.746   2.358   7.025 -0.8712  1.0201 -2.1666
   70CHL1    O3 7589   1.862   2.452   6.892  0.0726  0.1773  0.6259
   70CHL1   H3' 7590   1.936   2.514   6.887  1.9452 -1.8842  1.8717
   70CHL1    C4 7591   1.724   2.570   7.060 -0.2717 -0.5136  0.6879
   70CHL1   H4A 7592   1.792   2.657   7.050 -1.4931  0.4286  0.4602
   70CHL1   H4B 7593   1.642   2.585   6.986 -0.6955 -0.4549  1.1703
   70CHL1    C5 7594   1.670   2.566   7.203  0.2159 -0.5246 -0.2050
   70CHL1    C6 7595   1.539   2.576   7.227  0.2959 -0.0826 -0.5273
   70CHL1    H6 7596   1.473   2.584   7.139 -0.5079  2.1908  0.2445
   70CHL1    C7 7597   1.474   2.584   7.367  0.3236 -0.2061  0.4744
   70CHL1   H7A 7598   1.397   2.664   7.362  0.2551 -0.3478 -0.8524
   70CHL1   H7B 7599   1.427   2.484   7.382  0.1059 -0.2365 -0.3943
   70CHL1    C8 7600   1.589   2.614   7.477  0.0696  0.0002  0.1140
   70CHL1    H8 7601   1.616   2.720   7.460 -0.1650  0.0839  0.2652
   70CHL1   C14 7602   1.541   2.601   7.623 -0.1399  0.3498 -0.5834
   70CHL1   H14 7603   1.526   2.491   7.627  2.6011 -0.0993 -1.7018
   70CHL1   C15 7604   1.403   2.663   7.652  0.5009 -0.5253  0.1553
   70CHL1  H15A 7605   1.385   2.753   7.589 -1.5506 -1.0855 -0.0803
   70CHL1  H15B 7606   1.325   2.587   7.631  0.2492 -0.2933  0.2357
   70CHL1   C16 7607   1.414   2.702   7.799  0.2081  0.2212 -0.2531
   70CHL1  H16A 7608   1.419   2.813   7.810  1.1598  0.1583  0.0156
   70CHL1  H16B 7609   1.325   2.671   7.856  0.0388 -0.6611 -0.9823
   70CHL1   C17 7610   1.544   2.627   7.854 -0.2207  0.0090  0.0746
   70CHL1   H17 7611   1.516   2.521   7.871  0.6154 -0.5050 -1.5670
   70CHL1   C13 7612   1.637   2.639   7.733 -0.1452  0.1840 -0.6321
   70CHL1   C18 7613   1.689   2.788   7.717  0.1481 -0.8128 -0.2378
   70CHL1  H18A 7614   1.746   2.815   7.808 -2.0506  0.6213  0.7510
   70CHL1  H18B 7615   1.758   2.802   7.631 -0.8494 -1.0692 -1.0980
   70CHL1  H18C 7616   1.605   2.861   7.717  1.0247  0.2251  1.6969
   70CHL1   C12 7617   1.755   2.540   7.725 -0.1610  0.4663  0.0088
   70CHL1  H12A 7618   1.835   2.568   7.797 -2.7617  1.0933  2.7611
   70CHL1  H12B 7619   1.707   2.441   7.744 -0.0243 -0.3440 -3.4228
   70CHL1   C11 7620   1.810   2.534   7.576  0.5325  0.1568 -0.2537
   70CHL1  H11A 7621   1.876   2.623   7.564 -0.2696  0.4066 -2.9554
   70CHL1  H11B 7622   1.875   2.447   7.556 -1.3462 -1.2216 -0.4497
   70CHL1    C9 7623   1.709   2.524   7.455 -0.2936  0.0613 -0.4769
   70CHL1    H9 7624   1.671   2.420   7.448  3.2549 -1.2725 -0.6266
   70CHL1   C10 7625   1.777   2.547   7.313 -0.2242  0.1226 -0.7212
   70CHL1   C19 7626   1.859   2.686   7.309 -0.2875 -1.0243  0.2010
   70CHL1  H19A 7627   1.925   2.701   7.396 -0.7409  0.1114  0.3578
   70CHL1  H19B 7628   1.925   2.697   7.220 -1.7228  0.2218 -0.7599
   70CHL1  H19C 7629   1.794   2.777   7.303  0.7364 -0.4081 -2.4740
   70CHL1    C1 7630   1.870   2.432   7.275 -0.0680 -0.1102 -0.7206
   70CHL1   H1A 7631   1.961   2.438   7.338 -0.9994 -0.3944  0.6727
   70CHL1   H1B 7632   1.821   2.334   7.294  0.4715 -0.2318  0.0330
   70CHL1    C2 7633   1.922   2.427   7.128 -0.7806  1.0989 -0.4418
   70CHL1   H2A 7634   1.970   2.327   7.119  0.5974  1.4357  2.4449
   70CHL1   H2B 7635   1.998   2.507   7.113  0.8417 -0.3737 -0.2950
   70CHL1   C20 7636   1.591   2.695   7.983 -0.3365 -0.1338 -0.0817
   70CHL1   H20 7637   1.621   2.802   7.980  2.5184 -0.7524  2.8201
   70CHL1   C21 7638   1.719   2.631   8.030  0.0865  0.1541  0.0632
   70CHL1  H21A 7639   1.810   2.684   7.994  0.2502 -0.1636  0.0057
   70CHL1  H21B 7640   1.727   2.523   8.004  1.7652  0.1653  0.4441
   70CHL1  H21C 7641   1.730   2.627   8.141 -3.1823  1.4117  0.4843
   70CHL1   C22 7642   1.485   2.688   8.094 -0.0077  0.4335  0.2430
   70CHL1  H22A 7643   1.532   2.753   8.171  0.4069 -1.1244  1.3239
   70CHL1  H22B 7644   1.390   2.738   8.065  0.9433  1.8067 -0.5220
   70CHL1   C23 7645   1.443   2.559   8.154 -0.4972  1.3655 -0.0132
   70CHL1  H23A 7646   1.399   2.510   8.064  0.7196  1.3326 -0.6065
   70CHL1  H23B 7647   1.528   2.511   8.207 -0.6578  0.3965 -0.6165
   70CHL1   C24 7648   1.329   2.565   8.257  0.1668 -0.3265  0.1629
   70CHL1  H24A 7649   1.356   2.652   8.321 -0.2583 -0.0052 -0.0883
   70CHL1  H24B 7650   1.229   2.579   8.210 -0.7596  1.0558  2.4706
   70CHL1   C25 7651   1.317   2.434   8.335 -0.6157 -0.0192  0.3792
   70CHL1   H25 7652   1.415   2.411   8.382  0.5585 -0.6194 -2.2736
   70CHL1   C26 7653   1.224   2.469   8.449  0.2529  0.4443  0.1132
   70CHL1  H26A 7654   1.207   2.379   8.512  2.1001 -1.4196 -1.9569
   70CHL1  H26B 7655   1.254   2.559   8.506  2.1220 -0.2118  0.2358
   70CHL1  H26C 7656   1.121   2.479   8.411 -0.7002 -1.7051  1.9958
   70CHL1   C27 7657   1.275   2.319   8.249  0.0064  0.9315  0.1190
   70CHL1  H27A 7658   1.171   2.340   8.217 -0.8107 -0.8135  1.5672
   70CHL1  H27B 7659   1.342   2.308   8.161  0.7363 -1.6748  0.9596
   70CHL1  H27C 7660   1.275   2.223   8.305  0.3747 -0.0216 -1.4615
   71CHL1    C3 7661   1.027   5.360   6.783 -0.7602  0.0948 -0.1114
   71CHL1    H3 7662   0.917   5.341   6.787 -0.5127 -1.6575 -1.3304
   71CHL1    O3 7663   1.062   5.333   6.653 -0.4898 -0.8080 -0.2570
   71CHL1   H3' 7664   1.030   5.244   6.639  0.6232 -1.5387  1.6054
   71CHL1    C4 7665   1.037   5.508   6.822  0.3396  0.3502 -0.3025
   71CHL1   H4A 7666   1.144   5.539   6.814 -0.2005  2.7042  1.0558
   71CHL1   H4B 7667   0.986   5.569   6.745 -1.9828 -1.7964 -0.5165
   71CHL1    C5 7668   0.997   5.543   6.966  0.1333 -0.7105 -0.3180
   71CHL1    C6 7669   0.901   5.638   7.003 -0.5621  0.0626  0.3325
   71CHL1    H6 7670   0.849   5.694   6.925  1.1602 -3.0185 -3.1985
   71CHL1    C7 7671   0.872   5.683   7.145  0.6349  0.6164  1.2943
   71CHL1   H7A 7672   0.880   5.794   7.143  0.5295  0.6295  1.6655
   71CHL1   H7B 7673   0.765   5.656   7.157  0.8203 -0.6762  0.0785
   71CHL1    C8 7674   0.970   5.630   7.249 -0.9856 -0.5213 -0.1074
   71CHL1    H8 7675   1.069   5.679   7.239 -0.7890 -0.7918  0.4639
   71CHL1   C14 7676   0.902   5.639   7.383 -0.2253 -0.4668  0.0829
   71CHL1   H14 7677   0.818   5.565   7.378 -2.3073  1.7138  1.5270
   71CHL1   C15 7678   0.832   5.768   7.421  1.0070 -0.1348  0.3967
   71CHL1  H15A 7679   0.895   5.859   7.404  1.1577 -0.4900 -1.0208
   71CHL1  H15B 7680   0.735   5.782   7.370  1.2349 -1.1743 -0.3301
   71CHL1   C16 7681   0.805   5.750   7.576 -0.3299 -0.2174  0.1689
   71CHL1  H16A 7682   0.815   5.842   7.637  1.1698 -1.4427  1.8166
   71CHL1  H16B 7683   0.699   5.718   7.578  0.4690 -2.9015  2.5470
   71CHL1   C17 7684   0.892   5.631   7.618  0.3172  0.3637 -0.0249
   71CHL1   H17 7685   0.820   5.548   7.612  0.4346  0.0525  2.4780
   71CHL1   C13 7686   0.990   5.598   7.504 -0.3094  0.5696  0.5392
   71CHL1   C18 7687   1.120   5.677   7.510 -0.2119  0.0159  1.5495
   71CHL1  H18A 7688   1.097   5.782   7.481  0.5333 -0.9038 -2.7028
   71CHL1  H18B 7689   1.156   5.666   7.614  1.3478 -1.7960  0.8235
   71CHL1  H18C 7690   1.201   5.648   7.440  0.5768  3.4187  0.9353
   71CHL1   C12 7691   1.025   5.445   7.473 -0.2153 -0.2823  0.3529
   71CHL1  H12A 7692   1.102   5.407   7.543  0.8182  2.4400  0.7524
   71CHL1  H12B 7693   0.930   5.388   7.484  0.0049 -0.3133  2.2641
   71CHL1   C11 7694   1.091   5.423   7.332 -0.1991  0.1401  0.1306
   71CHL1  H11A 7695   1.189   5.474   7.334 -0.5444  0.8066  0.1868
   71CHL1  H11B 7696   1.109   5.314   7.324 -0.3186  0.0522  1.0224
   71CHL1    C9 7697   1.005   5.482   7.219 -0.3513  0.3715 -0.5123
   71CHL1    H9 7698   0.904   5.435   7.228 -0.5463  0.0811 -3.7387
   71CHL1   C10 7699   1.068   5.458   7.073 -0.3309 -0.0179 -0.2577
   71CHL1   C19 7700   1.221   5.497   7.081 -0.7798  0.1741  0.3443
   71CHL1  H19A 7701   1.279   5.436   7.154 -0.1456  0.1895 -0.1399
   71CHL1  H19B 7702   1.262   5.467   6.982 -1.4700  1.3894 -0.3177
   71CHL1  H19C 7703   1.242   5.606   7.087  0.0055 -0.0602  2.1250
   71CHL1    C1 7704   1.053   5.310   7.030 -0.1727  0.4077 -0.0933
   71CHL1   H1A 7705   1.101   5.239   7.101  1.1162  0.8474 -0.5154
   71CHL1   H1B 7706   0.946   5.281   7.039  0.2452 -1.4516 -0.8389
   71CHL1    C2 7707   1.096   5.267   6.884 -0.1518 -0.1896 -0.3406
   71CHL1   H2A 7708   1.085   5.160   6.857 -2.3001 -0.6213  2.0746
   71CHL1   H2B 7709   1.205   5.276   6.865 -0.5071 -0.2716 -2.6507
   71CHL1   C20 7710   0.946   5.634   7.766 -0.6592  0.4173  0.6825
   71CHL1   H20 7711   1.015   5.720   7.780 -0.5490  0.0875  2.2828
   71CHL1   C21 7712   1.023   5.506   7.798  0.3612  0.6566  0.4769
   71CHL1  H21A 7713   0.952   5.423   7.774  1.8525 -0.7497  0.8813
   71CHL1  H21B 7714   1.055   5.500   7.904 -0.0965 -0.3346  0.5695
   71CHL1  H21C 7715   1.111   5.506   7.731  2.0218 -0.2838  2.6141
   71CHL1   C22 7716   0.821   5.656   7.872  0.7143  0.1456 -0.1108
   71CHL1  H22A 7717   0.765   5.746   7.839 -0.2006 -0.3994 -0.0460
   71CHL1  H22B 7718   0.744   5.577   7.859 -0.5331  1.6173 -1.9630
   71CHL1   C23 7719   0.862   5.674   8.017 -0.5695  0.5632 -0.1058
   71CHL1  H23A 7720   0.899   5.575   8.053  0.6834  1.0998  0.1042
   71CHL1  H23B 7721   0.939   5.753   8.032 -0.1729  0.3973 -1.2216
   71CHL1   C24 7722   0.742   5.720   8.108 -0.1738  0.1523  0.5574
   71CHL1  H24A 7723   0.736   5.829   8.090  2.7042  0.2916  0.1865
   71CHL1  H24B 7724   0.645   5.676   8.076 -0.4138  1.2074 -0.1996
   71CHL1   C25 7725   0.760   5.706   8.263  0.5476  0.2917 -0.6096
   71CHL1   H25 7726   0.847   5.771   8.287  0.6023 -0.4195  1.2589
   71CHL1   C26 7727   0.648   5.765   8.345 -0.2907 -0.0927 -0.6551
   71CHL1  H26A 7728   0.653   5.874   8.326 -0.1640 -0.0472 -0.3603
   71CHL1  H26B 7729   0.552   5.718   8.313 -0.4556 -1.7936  2.1471
   71CHL1  H26C 7730   0.677   5.754   8.452  0.0389  0.4400 -0.6874
   71CHL1   C27 7731   0.793   5.560   8.307 -0.7733 -0.0832 -0.2815
   71CHL1  H27A 7732   0.807   5.579   8.416 -0.7594  1.0389 -0.4796
   71CHL1  H27B 7733   0.697   5.506   8.293 -0.8214  0.3490 -1.6283
   71CHL1  H27C 7734   0.872   5.496   8.261 -1.3071 -3.7414  3.4763
   72CHL1    C3 7735   2.103   3.161   7.011 -0.4831 -0.9157  0.4338
   72CHL1    H3 7736   2.181   3.090   7.044  2.3626  1.0093 -1.8865
   72CHL1    O3 7737   2.109   3.167   6.867 -0.5262 -0.3090 -0.0144
   72CHL1   H3' 7738   2.157   3.091   6.833  0.9769  0.8565 -0.5840
   72CHL1    C4 7739   1.963   3.123   7.058  0.8823  0.2804 -0.2217
   72CHL1   H4A 7740   1.884   3.180   7.005 -0.4175 -1.9022 -0.6615
   72CHL1   H4B 7741   1.953   3.019   7.022  0.0758  0.4005 -0.3372
   72CHL1    C5 7742   1.948   3.138   7.209  0.6048  0.4424 -0.7274
   72CHL1    C6 7743   1.921   3.029   7.287  0.5294  0.4448  0.4620
   72CHL1    H6 7744   1.914   2.932   7.236  0.8562  0.9766 -0.6186
   72CHL1    C7 7745   1.901   3.041   7.437 -0.5562  0.2415 -0.4308
   72CHL1   H7A 7746   1.810   2.982   7.465  0.1468 -0.9371 -0.6237
   72CHL1   H7B 7747   1.984   2.999   7.497 -0.8966 -0.4797 -0.4618
   72CHL1    C8 7748   1.899   3.188   7.498 -0.2538 -0.5725  0.6305
   72CHL1    H8 7749   1.800   3.235   7.479  0.1752  1.8950  3.9652
   72CHL1   C14 7750   1.926   3.195   7.645 -0.4755  0.0658  0.6320
   72CHL1   H14 7751   2.025   3.147   7.651  0.9078  2.7409  0.0913
   72CHL1   C15 7752   1.834   3.113   7.733 -0.4613  1.0684  0.3157
   72CHL1  H15A 7753   1.736   3.132   7.684 -1.0241  0.5381  1.2214
   72CHL1  H15B 7754   1.873   3.009   7.726 -0.4220  1.1633 -1.0293
   72CHL1   C16 7755   1.856   3.171   7.875 -1.0029  0.6570 -1.0545
   72CHL1  H16A 7756   1.762   3.208   7.921 -0.2010  1.7502 -0.2564
   72CHL1  H16B 7757   1.909   3.099   7.941 -0.5429  1.5747 -0.3917
   72CHL1   C17 7758   1.948   3.298   7.856  0.0047  0.6187  0.0587
   72CHL1   H17 7759   2.051   3.256   7.861 -0.4692 -0.4965  0.4743
   72CHL1   C13 7760   1.935   3.335   7.707 -0.2570 -0.5918  0.3853
   72CHL1   C18 7761   1.807   3.417   7.691  0.4228  0.2192 -0.5515
   72CHL1  H18A 7762   1.790   3.455   7.588 -0.2209  3.8583  0.8027
   72CHL1  H18B 7763   1.721   3.363   7.736  1.4619 -1.2304 -0.2855
   72CHL1  H18C 7764   1.828   3.510   7.749  1.4295 -1.1685  1.3647
   72CHL1   C12 7765   2.048   3.407   7.641 -0.5431 -0.0972 -0.1443
   72CHL1  H12A 7766   2.052   3.515   7.667  0.6300 -0.3080  0.6033
   72CHL1  H12B 7767   2.146   3.361   7.667 -0.2795  0.5387  0.0034
   72CHL1   C11 7768   2.022   3.414   7.486  0.0337 -0.7338  0.0844
   72CHL1  H11A 7769   1.935   3.473   7.450 -0.4650 -0.9759  0.8956
   72CHL1  H11B 7770   2.110   3.461   7.438 -1.7867  1.4701 -1.2113
   72CHL1    C9 7771   2.011   3.273   7.426  0.0997 -0.1740 -0.3990
   72CHL1    H9 7772   2.108   3.221   7.445 -0.6409 -2.0311 -1.5670
   72CHL1   C10 7773   1.992   3.275   7.269 -0.2312 -0.0492 -0.6258
   72CHL1   C19 7774   1.876   3.362   7.222 -0.7372  0.1415  0.2453
   72CHL1  H19A 7775   1.911   3.467   7.233 -0.6676  0.3486 -1.8214
   72CHL1  H19B 7776   1.833   3.350   7.121  1.2599  1.1395 -0.7514
   72CHL1  H19C 7777   1.792   3.355   7.295 -1.2219  1.3985 -0.1720
   72CHL1    C1 7778   2.128   3.321   7.215  0.4236  0.2988  0.0731
   72CHL1   H1A 7779   2.156   3.423   7.248  0.8401  0.0397  0.5173
   72CHL1   H1B 7780   2.203   3.250   7.255 -0.5591 -1.7150 -1.5490
   72CHL1    C2 7781   2.152   3.299   7.064 -0.6219  1.1661 -0.5618
   72CHL1   H2A 7782   2.257   3.328   7.043 -0.4252  1.2794  0.5393
   72CHL1   H2B 7783   2.091   3.377   7.013 -1.1659  1.1618  0.0858
   72CHL1   C20 7784   1.933   3.408   7.967  0.8687  0.7471  0.1658
   72CHL1   H20 7785   1.824   3.431   7.965  0.7399  0.1167 -0.1323
   72CHL1   C21 7786   2.011   3.535   7.947 -0.0512 -0.4919 -0.5246
   72CHL1  H21A 7787   2.119   3.508   7.941  0.1626  0.3411 -0.4946
   72CHL1  H21B 7788   2.010   3.596   8.040  2.7221 -0.1139 -0.6953
   72CHL1  H21C 7789   1.964   3.595   7.867 -1.5593 -0.0598  0.6548
   72CHL1   C22 7790   1.954   3.351   8.112 -0.9311 -0.3879  0.0327
   72CHL1  H22A 7791   1.932   3.430   8.188  1.2096  0.4802 -0.1963
   72CHL1  H22B 7792   1.882   3.269   8.132 -0.4244 -0.9373 -0.4073
   72CHL1   C23 7793   2.098   3.293   8.134  0.6510  0.5058 -0.1623
   72CHL1  H23A 7794   2.106   3.203   8.070 -1.0517 -0.2013  0.5991
   72CHL1  H23B 7795   2.177   3.364   8.099  3.2167 -2.3651 -0.4217
   72CHL1   C24 7796   2.117   3.261   8.282  1.1364 -0.5735 -0.8255
   72CHL1  H24A 7797   2.126   3.361   8.330  0.4369 -1.1161  0.4620
   72CHL1  H24B 7798   2.022   3.220   8.323  2.4783 -2.8159  0.1412
   72CHL1   C25 7799   2.235   3.174   8.319  0.3349 -0.0348 -0.3291
   72CHL1   H25 7800   2.243   3.090   8.246 -2.0235  0.4811 -1.2292
   72CHL1   C26 7801   2.366   3.258   8.308  0.1446  0.4067  0.3980
   72CHL1  H26A 7802   2.363   3.350   8.370  0.1402  1.7252 -1.5132
   72CHL1  H26B 7803   2.457   3.196   8.325 -0.3980 -0.6064 -0.2770
   72CHL1  H26C 7804   2.381   3.286   8.201  1.5831 -1.1896  0.1501
   72CHL1   C27 7805   2.221   3.130   8.463 -0.1700 -1.0317  0.4510
   72CHL1  H27A 7806   2.292   3.050   8.495  1.0314  0.0366  0.4728
   72CHL1  H27B 7807   2.247   3.220   8.523 -0.2178 -0.5100 -0.3052
   72CHL1  H27C 7808   2.122   3.095   8.498 -1.0024  0.2679 -0.5902
   73CHL1    C3 7809   1.977   6.775   7.087 -0.7317 -0.1765  0.2619
   73CHL1    H3 7810   1.920   6.868   7.110  0.2975  0.5340 -0.0372
   73CHL1    O3 7811   2.015   6.784   6.953 -0.5984  0.2326 -0.0101
   73CHL1   H3' 7812   2.074   6.859   6.948 -0.5509  0.1518 -0.8956
   73CHL1    C4 7813   2.102   6.762   7.169 -0.5708 -0.5857  0.1782
   73CHL1   H4A 7814   2.172   6.688   7.125  0.4240  1.0969 -1.0942
   73CHL1   H4B 7815   2.148   6.861   7.150  1.5922 -1.6548 -0.3040
   73CHL1    C5 7816   2.088   6.732   7.316  0.5304  0.3049  0.9596
   73CHL1    C6 7817   2.137   6.815   7.410 -0.0986 -0.6907  0.5086
   73CHL1    H6 7818   2.198   6.897   7.369  1.8738 -1.9867  0.7747
   73CHL1    C7 7819   2.120   6.806   7.561 -0.5312  0.5081 -0.3300
   73CHL1   H7A 7820   2.216   6.812   7.616 -0.9253  1.3122  0.2782
   73CHL1   H7B 7821   2.059   6.890   7.600 -1.5296 -1.0148  1.4915
   73CHL1    C8 7822   2.054   6.672   7.598  0.8031  0.3713 -0.5667
   73CHL1    H8 7823   2.133   6.594   7.590 -0.4573 -0.8529 -1.2721
   73CHL1   C14 7824   2.001   6.671   7.743 -0.1166 -0.2462  0.5131
   73CHL1   H14 7825   1.929   6.756   7.746 -0.5585 -0.6560  2.4862
   73CHL1   C15 7826   2.093   6.705   7.857 -0.4026 -0.1565 -0.2220
   73CHL1  H15A 7827   2.197   6.667   7.854 -0.5706 -0.6006 -0.5447
   73CHL1  H15B 7828   2.107   6.815   7.863  0.1152 -0.2774  0.9294
   73CHL1   C16 7829   2.015   6.659   7.987  0.4114  0.5115  0.5941
   73CHL1  H16A 7830   2.080   6.575   8.021  0.8533  0.2693 -0.8126
   73CHL1  H16B 7831   2.001   6.736   8.065  0.3222  3.3668 -2.1572
   73CHL1   C17 7832   1.884   6.601   7.935 -0.1234  0.8874 -0.4812
   73CHL1   H17 7833   1.811   6.685   7.930 -0.0283  0.8483 -2.8996
   73CHL1   C13 7834   1.921   6.550   7.788 -0.4673  0.2679  0.0930
   73CHL1   C18 7835   2.013   6.426   7.786 -0.1065  0.0992 -0.5233
   73CHL1  H18A 7836   2.063   6.406   7.689 -0.4518  3.3381 -1.4164
   73CHL1  H18B 7837   2.094   6.443   7.860 -1.7237  2.8508  0.6945
   73CHL1  H18C 7838   1.956   6.336   7.818 -0.8764  0.5447 -0.6331
   73CHL1   C12 7839   1.814   6.534   7.685  0.5903  0.6451  0.1014
   73CHL1  H12A 7840   1.767   6.436   7.706  2.1179 -0.1273 -0.0564
   73CHL1  H12B 7841   1.735   6.613   7.694 -0.9122 -0.8734  0.5494
   73CHL1   C11 7842   1.864   6.520   7.543  0.9451 -0.2565  0.2378
   73CHL1  H11A 7843   1.928   6.430   7.533 -0.3673 -1.3872  1.8827
   73CHL1  H11B 7844   1.776   6.504   7.477  0.6631  1.7670  0.0639
   73CHL1    C9 7845   1.943   6.636   7.499 -0.4075 -0.3795  0.2595
   73CHL1    H9 7846   1.879   6.727   7.502 -0.8356 -0.6381 -0.8644
   73CHL1   C10 7847   1.994   6.614   7.352 -0.2661 -0.1300 -0.9524
   73CHL1   C19 7848   2.070   6.483   7.333 -0.0058 -0.1902  0.1224
   73CHL1  H19A 7849   2.096   6.475   7.225 -0.8946 -0.2316 -0.0879
   73CHL1  H19B 7850   2.165   6.481   7.392  1.2780  2.6973 -1.7739
   73CHL1  H19C 7851   2.012   6.391   7.355  1.0624 -1.1619 -1.0212
   73CHL1    C1 7852   1.870   6.622   7.266  0.4898 -0.0273 -0.3244
   73CHL1   H1A 7853   1.812   6.527   7.271 -1.9689  1.5153  0.9658
   73CHL1   H1B 7854   1.792   6.687   7.309  0.2900 -1.4702  1.5453
   73CHL1    C2 7855   1.884   6.663   7.115  0.5266  0.0301 -0.1800
   73CHL1   H2A 7856   1.782   6.690   7.080 -0.5216 -1.9321  1.3081
   73CHL1   H2B 7857   1.920   6.569   7.067 -0.4441 -0.7085  0.5115
   73CHL1   C20 7858   1.818   6.495   8.026 -0.5363  0.0473  0.0324
   73CHL1   H20 7859   1.751   6.429   7.966 -0.8282  1.8555 -1.6841
   73CHL1   C21 7860   1.719   6.569   8.122 -0.1252  0.4505 -0.3579
   73CHL1  H21A 7861   1.646   6.507   8.177  0.3947 -1.2156 -1.5078
   73CHL1  H21B 7862   1.656   6.632   8.056 -0.1017  1.1246  0.2544
   73CHL1  H21C 7863   1.780   6.636   8.186  2.8996 -1.0682 -1.5594
   73CHL1   C22 7864   1.903   6.396   8.107 -0.3548 -0.3228 -0.7767
   73CHL1  H22A 7865   1.996   6.354   8.062  0.1538  1.6688 -1.6143
   73CHL1  H22B 7866   1.947   6.444   8.196 -1.3408  1.7371 -1.3823
   73CHL1   C23 7867   1.820   6.274   8.159 -0.0424 -0.0052  0.7233
   73CHL1  H23A 7868   1.734   6.302   8.223 -0.0988 -0.3533  0.7957
   73CHL1  H23B 7869   1.770   6.240   8.065  3.0657 -1.0621 -0.6043
   73CHL1   C24 7870   1.905   6.167   8.227  0.2719  0.1770  0.0521
   73CHL1  H24A 7871   1.996   6.129   8.175  0.9078  0.1195  1.1800
   73CHL1  H24B 7872   1.947   6.212   8.320  1.9634 -0.5993 -0.3204
   73CHL1   C25 7873   1.825   6.055   8.281 -0.3810 -0.1787  0.0769
   73CHL1   H25 7874   1.739   6.106   8.331  0.7112 -1.1244  3.0407
   73CHL1   C26 7875   1.785   5.968   8.163  0.0600 -0.0815  1.2454
   73CHL1  H26A 7876   1.732   6.023   8.083  3.5074  0.8190 -0.5575
   73CHL1  H26B 7877   1.882   5.933   8.119  0.5388  1.4696  1.0360
   73CHL1  H26C 7878   1.720   5.881   8.188 -0.8508 -0.9183 -3.4303
   73CHL1   C27 7879   1.910   5.977   8.384 -0.3058  0.9815 -0.0697
   73CHL1  H27A 7880   2.014   5.964   8.348 -1.1788 -0.4364 -2.1724
   73CHL1  H27B 7881   1.907   6.022   8.485 -0.7686  0.4576  0.1522
   73CHL1  H27C 7882   1.866   5.877   8.405  2.0026 -0.0113  0.1375
   74CHL1    C3 7883   0.601   4.942   6.876  0.6820  0.7004 -0.5832
   74CHL1    H3 7884   0.648   4.846   6.907  1.9010  1.2081 -0.8382
   74CHL1    O3 7885   0.640   4.979   6.748 -0.3740  0.0190 -0.2158
   74CHL1   H3' 7886   0.595   5.061   6.726  1.8425  1.0038 -1.1677
   74CHL1    C4 7887   0.447   4.941   6.888  0.4488  0.0503 -1.0067
   74CHL1   H4A 7888   0.405   5.037   6.850 -1.1504  0.3152  1.2938
   74CHL1   H4B 7889   0.405   4.864   6.820  0.6178 -0.9221 -0.0302
   74CHL1    C5 7890   0.395   4.917   7.028  0.7790  0.1412 -0.2263
   74CHL1    C6 7891   0.310   4.818   7.059  0.2543  0.0417 -0.4986
   74CHL1    H6 7892   0.275   4.755   6.976 -2.0461 -0.8912  1.1413
   74CHL1    C7 7893   0.251   4.793   7.201  0.0109 -0.2159  0.2498
   74CHL1   H7A 7894   0.143   4.770   7.193 -0.2827 -0.1078  3.2008
   74CHL1   H7B 7895   0.308   4.702   7.228  1.8172  0.8291  0.0881
   74CHL1    C8 7896   0.285   4.909   7.296 -0.1610 -0.3205 -0.1304
   74CHL1    H8 7897   0.216   4.994   7.278 -1.7286 -1.8825 -1.7849
   74CHL1   C14 7898   0.261   4.859   7.444  0.1981 -0.7710  0.2092
   74CHL1   H14 7899   0.322   4.768   7.461  1.9659  0.2842 -0.3202
   74CHL1   C15 7900   0.114   4.819   7.472 -0.1328  0.7442 -0.0837
   74CHL1  H15A 7901   0.048   4.889   7.415 -0.1214  1.5207  0.8546
   74CHL1  H15B 7902   0.090   4.711   7.460  0.3877  0.5657  0.4733
   74CHL1   C16 7903   0.101   4.830   7.627 -0.8633 -0.1275 -0.0463
   74CHL1  H16A 7904   0.029   4.906   7.663  0.4254  1.1371 -0.0758
   74CHL1  H16B 7905   0.082   4.731   7.674  2.3585  0.2575  2.2932
   74CHL1   C17 7906   0.244   4.884   7.680 -0.1171  0.2603  0.1530
   74CHL1   H17 7907   0.312   4.798   7.697 -1.7703 -0.7476  1.7852
   74CHL1   C13 7908   0.297   4.961   7.553  0.5838  0.2265 -0.4669
   74CHL1   C18 7909   0.221   5.093   7.546 -0.4561  0.8413 -0.9739
   74CHL1  H18A 7910   0.115   5.086   7.579  0.1955  0.7854  1.1876
   74CHL1  H18B 7911   0.273   5.166   7.612 -0.2757  0.0137 -0.1965
   74CHL1  H18C 7912   0.222   5.116   7.437 -1.0174  1.4640 -0.8532
   74CHL1   C12 7913   0.450   4.996   7.535 -0.1115  0.0803 -0.5353
   74CHL1  H12A 7914   0.477   5.081   7.601  0.1317  0.5652 -1.2556
   74CHL1  H12B 7915   0.524   4.915   7.555 -0.3629 -0.0814 -0.2645
   74CHL1   C11 7916   0.467   5.055   7.392  0.1982  0.5406  0.2105
   74CHL1  H11A 7917   0.406   5.147   7.380 -0.4265  0.0701 -0.2271
   74CHL1  H11B 7918   0.569   5.098   7.382  0.9816 -1.3967 -0.2679
   74CHL1    C9 7919   0.431   4.958   7.282 -0.1252 -1.1397 -0.1810
   74CHL1    H9 7920   0.491   4.866   7.299 -0.2861 -1.1962  0.0734
   74CHL1   C10 7921   0.456   5.004   7.136 -0.3271  0.3418  0.8587
   74CHL1   C19 7922   0.406   5.150   7.124 -0.2817 -0.2917 -0.0664
   74CHL1  H19A 7923   0.424   5.191   7.022  1.0832 -0.1833  0.2100
   74CHL1  H19B 7924   0.299   5.163   7.150  0.2515  1.7787  1.2090
   74CHL1  H19C 7925   0.469   5.223   7.180 -0.7399  0.8490 -1.0025
   74CHL1    C1 7926   0.609   5.018   7.113  0.3875 -0.0327 -0.2222
   74CHL1   H1A 7927   0.640   5.101   7.180  0.2087  0.6520 -0.9753
   74CHL1   H1B 7928   0.648   4.925   7.160  3.2398 -0.0047 -2.3434
   74CHL1    C2 7929   0.659   5.043   6.973  0.6453  0.1320  0.1152
   74CHL1   H2A 7930   0.769   5.033   6.983  0.9412  0.9618 -1.9505
   74CHL1   H2B 7931   0.636   5.147   6.942  0.2579 -0.6141 -2.2273
   74CHL1   C20 7932   0.229   4.953   7.814 -0.0983  0.2081 -0.4951
   74CHL1   H20 7933   0.177   5.050   7.802 -0.4702  0.2424  1.3643
   74CHL1   C21 7934   0.366   4.980   7.871 -0.4361 -0.1561  0.5324
   74CHL1  H21A 7935   0.359   5.059   7.949  0.1385  0.0427  0.3851
   74CHL1  H21B 7936   0.439   5.011   7.793 -0.3117 -1.5361  0.0777
   74CHL1  H21C 7937   0.403   4.886   7.916  1.8496  0.0609 -0.7953
   74CHL1   C22 7938   0.148   4.860   7.916 -0.5430 -0.1710  0.0757
   74CHL1  H22A 7939   0.040   4.856   7.890 -0.5113 -0.8492  0.0297
   74CHL1  H22B 7940   0.193   4.758   7.914 -1.3688 -0.5496  0.1011
   74CHL1   C23 7941   0.153   4.902   8.069  0.3966  0.4375 -0.6934
   74CHL1  H23A 7942   0.258   4.895   8.104  0.2764  1.1261 -0.1896
   74CHL1  H23B 7943   0.123   5.009   8.070  2.2459  0.9955 -2.2093
   74CHL1   C24 7944   0.056   4.823   8.153  0.6635  0.6772 -0.1262
   74CHL1  H24A 7945  -0.038   4.822   8.093  0.9894  3.0583 -0.7351
   74CHL1  H24B 7946   0.093   4.722   8.179 -0.9184  0.3544  1.0112
   74CHL1   C25 7947   0.025   4.890   8.292  0.4347 -0.6743  0.0520
   74CHL1   H25 7948  -0.024   4.989   8.279  1.3187 -0.6352 -3.5146
   74CHL1   C26 7949  -0.073   4.806   8.369  0.3793 -0.2501  0.0062
   74CHL1  H26A 7950  -0.086   4.857   8.466 -0.3767  0.1694 -0.3127
   74CHL1  H26B 7951  -0.178   4.795   8.335  0.8366  0.1350 -1.5850
   74CHL1  H26C 7952  -0.023   4.712   8.402 -0.4270 -0.9971 -0.8581
   74CHL1   C27 7953   0.146   4.910   8.377 -0.0433 -1.0486  0.4042
   74CHL1  H27A 7954   0.235   4.957   8.330  0.1718 -1.1534  0.7043
   74CHL1  H27B 7955   0.117   4.982   8.457 -0.1269 -0.6616  0.0220
   74CHL1  H27C 7956   0.183   4.817   8.426  3.2000  0.0885  0.2856
   75CHL1    C3 7957   4.614   6.057   6.741  0.3450 -0.0533 -0.7851
   75CHL1    H3 7958   4.649   5.961   6.785  1.4558  0.5742 -0.2564
   75CHL1    O3 7959   4.672   6.080   6.611  0.1840 -1.0727 -0.0257
   75CHL1   H3' 7960   4.622   6.031   6.545  1.8159 -1.1956 -1.1901
   75CHL1    C4 7961   4.459   6.067   6.739 -0.7721  0.3960  0.2024
   75CHL1   H4A 7962   4.435   6.159   6.682 -1.9163 -1.2493 -2.0236
   75CHL1   H4B 7963   4.433   5.985   6.669 -0.5101  0.9554 -0.5596
   75CHL1    C5 7964   4.385   6.059   6.871  0.7291 -0.6221  0.0286
   75CHL1    C6 7965   4.298   5.966   6.891  0.0483 -0.0627  1.0186
   75CHL1    H6 7966   4.272   5.896   6.810  0.0326  0.2829  0.7247
   75CHL1    C7 7967   4.222   5.950   7.013 -0.3009 -0.5752 -0.6688
   75CHL1   H7A 7968   4.116   5.924   6.992 -0.5681 -1.0267  1.1715
   75CHL1   H7B 7969   4.260   5.864   7.072 -0.2277 -0.0212  0.1104
   75CHL1    C8 7970   4.235   6.061   7.119 -0.2924  0.2475  0.8450
   75CHL1    H8 7971   4.161   6.140   7.093 -1.3392 -0.8308  0.5000
   75CHL1   C14 7972   4.200   6.022   7.265 -0.0151 -0.5562 -0.0617
   75CHL1   H14 7973   4.276   5.944   7.287  1.0590  0.0117 -1.6787
   75CHL1   C15 7974   4.061   5.948   7.290 -0.4034 -0.0815 -0.2028
   75CHL1  H15A 7975   3.982   5.996   7.227  1.0885  0.1517 -1.9307
   75CHL1  H15B 7976   4.088   5.846   7.257  2.6438  0.6355 -0.0664
   75CHL1   C16 7977   4.049   5.963   7.443 -0.0458  0.2897  0.4492
   75CHL1  H16A 7978   3.951   6.004   7.473  0.9868  2.3975  1.0613
   75CHL1  H16B 7979   4.050   5.861   7.488 -0.9477  1.0120  2.1491
   75CHL1   C17 7980   4.159   6.056   7.497 -0.8190  0.4453  0.2587
   75CHL1   H17 7981   4.249   5.994   7.519  0.0378  1.7168  0.3547
   75CHL1   C13 7982   4.210   6.133   7.366 -0.1686 -0.1495 -0.0418
   75CHL1   C18 7983   4.116   6.257   7.336  0.3029  0.7731  0.0988
   75CHL1  H18A 7984   4.118   6.335   7.415  2.1906  1.1432 -0.3030
   75CHL1  H18B 7985   4.144   6.309   7.242  0.1280  1.5302  0.4592
   75CHL1  H18C 7986   4.018   6.208   7.316 -0.0807  0.6045  2.2165
   75CHL1   C12 7987   4.356   6.185   7.359 -0.1165  0.0537 -1.2292
   75CHL1  H12A 7988   4.375   6.257   7.442 -2.3099 -1.1381  0.3628
   75CHL1  H12B 7989   4.421   6.095   7.375 -2.0694 -0.9882  1.1265
   75CHL1   C11 7990   4.394   6.227   7.218 -0.1229 -0.1190  0.0151
   75CHL1  H11A 7991   4.334   6.315   7.187 -0.2331 -0.2563 -0.1607
   75CHL1  H11B 7992   4.501   6.257   7.221  0.5813 -2.4456 -0.5677
   75CHL1    C9 7993   4.384   6.116   7.115  0.5534  0.0593 -0.6815
   75CHL1    H9 7994   4.443   6.028   7.150 -0.7392 -1.1854 -1.5884
   75CHL1   C10 7995   4.441   6.156   6.971 -0.5675  0.9208  0.3593
   75CHL1   C19 7996   4.395   6.294   6.934 -0.5613 -0.0582 -0.0111
   75CHL1  H19A 7997   4.440   6.336   6.842 -1.6697  1.0259 -0.0795
   75CHL1  H19B 7998   4.284   6.302   6.927 -0.4858 -0.8882 -3.2642
   75CHL1  H19C 7999   4.417   6.371   7.010 -0.1109 -0.7221  0.5339
   75CHL1    C1 8000   4.602   6.164   6.976 -0.0752  0.2911 -0.4533
   75CHL1   H1A 8001   4.627   6.259   7.029 -1.3703  0.3905  0.0086
   75CHL1   H1B 8002   4.646   6.076   7.027  0.1557  0.0219 -1.1039
   75CHL1    C2 8003   4.666   6.171   6.834 -0.6893  0.0732  0.0576
   75CHL1   H2A 8004   4.777   6.176   6.831 -0.7021 -0.0826 -1.0770
   75CHL1   H2B 8005   4.631   6.268   6.793 -1.1620  0.7253  1.9533
   75CHL1   C20 8006   4.125   6.127   7.622 -0.4788  0.0448 -0.4743
   75CHL1   H20 8007   4.056   6.213   7.608  0.6238  0.6771 -2.0437
   75CHL1   C21 8008   4.251   6.201   7.679  0.4220  0.4975 -0.1400
   75CHL1  H21A 8009   4.331   6.125   7.691  0.8079  0.5561 -2.1486
   75CHL1  H21B 8010   4.244   6.246   7.780 -0.3395 -0.0433  0.0474
   75CHL1  H21C 8011   4.282   6.284   7.611 -2.1953  0.8933 -0.9011
   75CHL1   C22 8012   4.075   6.022   7.727  0.1721  0.2082  0.3096
   75CHL1  H22A 8013   4.008   5.940   7.694  2.8742 -0.6310 -3.3498
   75CHL1  H22B 8014   4.165   5.975   7.771  0.4528  0.9598  0.5536
   75CHL1   C23 8015   3.998   6.086   7.842 -0.5475  0.3617 -1.0044
   75CHL1  H23A 8016   3.979   6.010   7.921  0.2983  2.0571  0.8617
   75CHL1  H23B 8017   4.058   6.157   7.903 -0.5185  0.9785 -1.7403
   75CHL1   C24 8018   3.861   6.133   7.794  0.3293  0.4759 -0.8656
   75CHL1  H24A 8019   3.879   6.197   7.705  0.5705 -0.8667 -1.7996
   75CHL1  H24B 8020   3.802   6.046   7.756 -1.9518  0.8408  1.6938
   75CHL1   C25 8021   3.767   6.207   7.888  0.0917 -0.1258 -0.0147
   75CHL1   H25 8022   3.819   6.294   7.932  1.0622 -0.7920  0.1725
   75CHL1   C26 8023   3.641   6.258   7.816 -0.7137 -0.4657  0.5557
   75CHL1  H26A 8024   3.605   6.186   7.739 -2.4444  1.8812 -0.8913
   75CHL1  H26B 8025   3.554   6.289   7.877 -0.8616 -0.7514  0.4929
   75CHL1  H26C 8026   3.667   6.350   7.759 -1.0698 -1.7858 -1.8296
   75CHL1   C27 8027   3.725   6.109   7.998  0.3323 -0.2058 -0.4184
   75CHL1  H27A 8028   3.722   6.160   8.097  3.7109  1.7476 -1.2465
   75CHL1  H27B 8029   3.623   6.069   7.978 -0.3388  1.2203  0.0546
   75CHL1  H27C 8030   3.796   6.025   8.010 -0.2906 -0.3462  2.8096
   76CHL1    C3 8031   0.806   1.864   7.248  0.2558 -0.1990  0.3067
   76CHL1    H3 8032   0.915   1.844   7.249 -0.1478 -2.5855 -0.6024
   76CHL1    O3 8033   0.767   1.852   7.109 -0.0564 -0.6994 -0.5626
   76CHL1   H3' 8034   0.672   1.846   7.101 -0.2550  1.2134  0.1490
   76CHL1    C4 8035   0.725   1.755   7.315 -0.4144 -0.2472  0.1382
   76CHL1   H4A 8036   0.616   1.769   7.299 -0.2889  0.9018  0.2305
   76CHL1   H4B 8037   0.748   1.655   7.274  0.2508 -0.8290  1.8800
   76CHL1    C5 8038   0.747   1.763   7.465  0.2906 -0.7469 -0.1473
   76CHL1    C6 8039   0.799   1.662   7.537  0.1785 -0.2400 -0.9396
   76CHL1    H6 8040   0.824   1.572   7.479  2.7129  0.8473 -1.5987
   76CHL1    C7 8041   0.835   1.671   7.685 -0.4465  0.0108  0.4345
   76CHL1   H7A 8042   0.820   1.574   7.736  1.7461  0.7807  2.6297
   76CHL1   H7B 8043   0.942   1.696   7.673 -0.4363 -0.9469 -1.9177
   76CHL1    C8 8044   0.760   1.778   7.757 -0.6676 -0.2992 -0.7776
   76CHL1    H8 8045   0.651   1.756   7.766 -0.8933  1.6347  1.5356
   76CHL1   C14 8046   0.814   1.789   7.899 -0.4932 -0.2598  0.7760
   76CHL1   H14 8047   0.920   1.816   7.883 -0.4072 -1.1928 -0.2894
   76CHL1   C15 8048   0.817   1.675   7.998  0.0075 -0.4258 -0.3198
   76CHL1  H15A 8049   0.727   1.610   7.985  0.1324 -0.3770 -1.4405
   76CHL1  H15B 8050   0.912   1.622   7.976  1.5765  1.7808  0.9647
   76CHL1   C16 8051   0.819   1.733   8.135 -0.5238 -0.2765 -0.2610
   76CHL1  H16A 8052   0.732   1.705   8.198 -0.3506 -0.0973  0.0594
   76CHL1  H16B 8053   0.906   1.700   8.196 -1.4636 -1.6413  0.3833
   76CHL1   C17 8054   0.828   1.888   8.111  0.2664 -0.7989  0.1828
   76CHL1   H17 8055   0.938   1.896   8.094  0.2030 -0.5581 -0.1267
   76CHL1   C13 8056   0.761   1.909   7.976  0.1479 -0.1508  0.2821
   76CHL1   C18 8057   0.600   1.898   7.991 -0.2097 -0.0033 -0.1268
   76CHL1  H18A 8058   0.550   1.873   7.895  0.2838 -0.8945 -0.1611
   76CHL1  H18B 8059   0.567   1.809   8.048 -1.2748  0.6825  0.3398
   76CHL1  H18C 8060   0.553   1.989   8.035 -1.4499 -0.3562 -0.6939
   76CHL1   C12 8061   0.804   2.039   7.907  0.5432  0.2319 -0.2042
   76CHL1  H12A 8062   0.762   2.127   7.960 -0.1605 -1.4483  2.1138
   76CHL1  H12B 8063   0.915   2.048   7.913  0.5527  0.2661 -0.4356
   76CHL1   C11 8064   0.750   2.038   7.760  0.0101  0.4621 -0.8197
   76CHL1  H11A 8065   0.640   2.050   7.772  0.2945  1.8158  0.4712
   76CHL1  H11B 8066   0.777   2.136   7.716 -1.1959  1.3590  0.4042
   76CHL1    C9 8067   0.782   1.908   7.681 -0.1720 -0.5832  0.6704
   76CHL1    H9 8068   0.892   1.910   7.665  0.2896 -0.0114  3.6310
   76CHL1   C10 8069   0.728   1.900   7.535  1.2093 -0.6783  0.3952
   76CHL1   C19 8070   0.581   1.935   7.551 -0.5933  0.5984  0.1028
   76CHL1  H19A 8071   0.565   2.043   7.571  1.1522  1.3505 -2.2665
   76CHL1  H19B 8072   0.505   1.894   7.481  0.4039 -0.5432 -0.3491
   76CHL1  H19C 8073   0.535   1.889   7.641  1.4297  3.0240  2.4889
   76CHL1    C1 8074   0.802   2.009   7.450  0.3522 -0.3795  0.3263
   76CHL1   H1A 8075   0.764   2.106   7.487 -1.3006 -1.9836  3.0767
   76CHL1   H1B 8076   0.911   1.996   7.468  0.0581  0.4516  2.9800
   76CHL1    C2 8077   0.764   1.999   7.304 -0.0505  0.3726  0.1259
   76CHL1   H2A 8078   0.808   2.069   7.230  0.4559 -0.2831 -0.1912
   76CHL1   H2B 8079   0.653   2.000   7.294  0.1709  0.0164 -2.6388
   76CHL1   C20 8080   0.787   1.977   8.234 -0.6121  0.1611  0.5070
   76CHL1   H20 8081   0.765   2.082   8.205  1.3339  1.0318  2.0092
   76CHL1   C21 8082   0.923   1.980   8.324 -0.2604  0.0555  0.1665
   76CHL1  H21A 8083   0.899   2.007   8.429 -0.4266  0.2667  0.0727
   76CHL1  H21B 8084   0.995   2.058   8.289 -0.6023 -0.2285 -1.2118
   76CHL1  H21C 8085   0.976   1.883   8.310 -0.8554  0.1048 -2.7350
   76CHL1   C22 8086   0.672   1.936   8.328 -0.1274 -0.2305  0.3357
   76CHL1  H22A 8087   0.587   1.894   8.271  0.6610 -2.0339  0.4227
   76CHL1  H22B 8088   0.697   1.855   8.400 -0.4312  0.9074  1.7485
   76CHL1   C23 8089   0.616   2.061   8.403  0.2814  0.3195 -0.4484
   76CHL1  H23A 8090   0.690   2.120   8.462 -0.7946  0.9770  0.2630
   76CHL1  H23B 8091   0.582   2.130   8.324 -3.3192 -2.4243 -1.4197
   76CHL1   C24 8092   0.503   2.042   8.501 -0.2172  0.5068  0.2206
   76CHL1  H24A 8093   0.406   2.009   8.458  0.3230 -0.6450 -0.1291
   76CHL1  H24B 8094   0.519   1.958   8.571  1.3272 -0.3900 -1.1767
   76CHL1   C25 8095   0.471   2.179   8.573  0.1032 -0.3232 -0.2242
   76CHL1   H25 8096   0.478   2.265   8.503 -0.2008 -1.1546 -1.2914
   76CHL1   C26 8097   0.325   2.178   8.630  0.1427  0.7239  0.1509
   76CHL1  H26A 8098   0.316   2.255   8.710  0.2686  0.0561  0.8119
   76CHL1  H26B 8099   0.250   2.202   8.552 -1.2194 -0.4624  1.0784
   76CHL1  H26C 8100   0.293   2.082   8.675  0.5842  1.2638  1.6800
   76CHL1   C27 8101   0.572   2.198   8.685  0.1005  0.7144 -1.1134
   76CHL1  H27A 8102   0.674   2.166   8.654  0.0390  0.0391 -0.6236
   76CHL1  H27B 8103   0.573   2.301   8.726  1.5391 -0.5003  2.0333
   76CHL1  H27C 8104   0.553   2.131   8.771  2.1064 -0.1090 -1.2800
   77CHL1    C3 8105   1.540   0.112   6.810 -0.2788  0.0131 -0.4851
   77CHL1    H3 8106   1.594   0.016   6.822 -2.5430 -1.3394 -0.8287
   77CHL1    O3 8107   1.489   0.124   6.676  0.0043 -0.0095 -0.3982
   77CHL1   H3' 8108   1.404   0.167   6.678 -0.0633 -0.1013 -1.1043
   77CHL1    C4 8109   1.421   0.110   6.911 -0.0370 -0.7615 -0.1472
   77CHL1   H4A 8110   1.344   0.187   6.890 -0.5317 -1.0047  0.7331
   77CHL1   H4B 8111   1.371   0.012   6.897  1.7500 -1.3340 -2.9381
   77CHL1    C5 8112   1.478   0.111   7.050 -0.2917 -0.0145 -0.1253
   77CHL1    C6 8113   1.437   0.018   7.139 -0.2247  0.3655 -0.1766
   77CHL1    H6 8114   1.360  -0.051   7.101  1.7091 -0.6377 -2.3494
   77CHL1    C7 8115   1.480   0.010   7.280 -0.3981 -0.1292 -0.0422
   77CHL1   H7A 8116   1.401  -0.016   7.353  0.3819  1.1392  1.2721
   77CHL1   H7B 8117   1.562  -0.066   7.280 -0.2187  0.0390 -1.5786
   77CHL1    C8 8118   1.552   0.138   7.324  0.2646  0.1684 -0.0043
   77CHL1    H8 8119   1.480   0.219   7.345 -1.3237 -1.3014  0.3758
   77CHL1   C14 8120   1.621   0.114   7.464  0.3401 -0.2829  0.5111
   77CHL1   H14 8121   1.692   0.034   7.436 -2.3065 -2.5032  0.0120
   77CHL1   C15 8122   1.530   0.075   7.582  0.1589  0.5100  0.0448
   77CHL1  H15A 8123   1.440   0.140   7.573 -0.1202 -0.0705 -1.5739
   77CHL1  H15B 8124   1.501  -0.032   7.579 -0.7705  0.7254  1.0034
   77CHL1   C16 8125   1.615   0.112   7.704  0.1679  0.6201 -0.5029
   77CHL1  H16A 8126   1.550   0.188   7.752 -2.3842 -2.0531  0.4195
   77CHL1  H16B 8127   1.627   0.035   7.782 -1.2928  1.4722  0.5897
   77CHL1   C17 8128   1.748   0.181   7.649  0.1313  0.1021 -0.6059
   77CHL1   H17 8129   1.824   0.100   7.634 -0.5141 -0.5236 -0.5009
   77CHL1   C13 8130   1.706   0.235   7.511 -0.0571  0.0677  0.2838
   77CHL1   C18 8131   1.625   0.369   7.528 -0.2921  0.1411 -0.0723
   77CHL1  H18A 8132   1.543   0.363   7.603  0.2074 -1.3113  0.3636
   77CHL1  H18B 8133   1.695   0.455   7.540 -0.8469  0.4451  1.0428
   77CHL1  H18C 8134   1.561   0.404   7.444 -0.3010  2.6342  0.9125
   77CHL1   C12 8135   1.820   0.249   7.405 -0.0019 -0.4564 -0.1974
   77CHL1  H12A 8136   1.891   0.333   7.422 -0.8479 -0.1786  2.0855
   77CHL1  H12B 8137   1.876   0.154   7.394 -0.0599 -0.5930  0.6328
   77CHL1   C11 8138   1.762   0.280   7.263 -0.1634 -0.1749  0.0613
   77CHL1  H11A 8139   1.717   0.379   7.285 -2.2979 -1.2921  0.8209
   77CHL1  H11B 8140   1.845   0.293   7.190 -1.3797  0.3911 -1.2518
   77CHL1    C9 8141   1.655   0.180   7.214  0.0139  0.0607  0.0445
   77CHL1    H9 8142   1.701   0.084   7.180 -2.9415 -1.2859 -0.2732
   77CHL1   C10 8143   1.582   0.216   7.085 -0.2119 -0.1251 -0.5624
   77CHL1   C19 8144   1.512   0.356   7.090  0.7513  0.0831 -0.0176
   77CHL1  H19A 8145   1.445   0.377   7.004 -0.4957  2.7345  1.5367
   77CHL1  H19B 8146   1.453   0.366   7.183  0.3177 -2.3607  0.0056
   77CHL1  H19C 8147   1.594   0.431   7.092  0.7814  0.0286  1.2463
   77CHL1    C1 8148   1.687   0.232   6.974  0.2884 -0.1410 -0.3344
   77CHL1   H1A 8149   1.738   0.329   6.993 -0.8422  0.1850  1.1378
   77CHL1   H1B 8150   1.763   0.152   6.981  0.4239 -0.0333 -0.5816
   77CHL1    C2 8151   1.628   0.235   6.836  0.4625  0.0313 -0.3891
   77CHL1   H2A 8152   1.713   0.219   6.765  1.3638  2.2546  0.1268
   77CHL1   H2B 8153   1.573   0.330   6.819 -0.2795 -0.0630  1.3787
   77CHL1   C20 8154   1.803   0.275   7.755  0.3604  0.2003 -0.2059
   77CHL1   H20 8155   1.726   0.351   7.779 -0.2788 -0.0733 -1.3759
   77CHL1   C21 8156   1.931   0.360   7.696 -0.7467  0.4252 -0.1758
   77CHL1  H21A 8157   1.966   0.407   7.791  0.1103 -0.7386  0.1030
   77CHL1  H21B 8158   1.899   0.431   7.618  1.3357  1.0411 -0.5158
   77CHL1  H21C 8159   2.006   0.286   7.660 -1.6584 -0.8512  0.5337
   77CHL1   C22 8160   1.846   0.208   7.890  0.1612 -0.2561  0.2264
   77CHL1  H22A 8161   1.767   0.132   7.909 -0.6791  0.5603 -0.0111
   77CHL1  H22B 8162   1.946   0.160   7.893 -0.4099 -1.5258 -0.6657
   77CHL1   C23 8163   1.842   0.293   8.013 -0.0350  0.3773  0.5507
   77CHL1  H23A 8164   1.792   0.389   7.990 -0.9504 -0.3267 -0.4467
   77CHL1  H23B 8165   1.772   0.246   8.086 -0.1062  0.6997  0.6919
   77CHL1   C24 8166   1.984   0.324   8.055 -0.2771  0.1747 -0.1527
   77CHL1  H24A 8167   2.055   0.241   8.032  0.6298  0.7616  0.4830
   77CHL1  H24B 8168   2.027   0.405   7.992  0.5620 -0.0081  0.1808
   77CHL1   C25 8169   2.016   0.353   8.200  0.1933  0.0205  0.8234
   77CHL1   H25 8170   1.986   0.266   8.263  0.4937  0.4362  1.5519
   77CHL1   C26 8171   2.169   0.378   8.210  0.2574 -0.3212 -0.1033
   77CHL1  H26A 8172   2.208   0.437   8.124 -2.0569  2.0835  0.4098
   77CHL1  H26B 8173   2.182   0.438   8.302  1.1063 -0.5260 -0.0789
   77CHL1  H26C 8174   2.222   0.282   8.230  3.8045  1.5140 -0.1865
   77CHL1   C27 8175   1.940   0.477   8.258  0.2964  1.0046 -1.0649
   77CHL1  H27A 8176   1.944   0.482   8.369  4.2875 -1.1332 -1.0247
   77CHL1  H27B 8177   1.992   0.568   8.219  0.5177  1.3409 -0.0116
   77CHL1  H27C 8178   1.833   0.468   8.230  0.0974 -0.8954  0.2295
   78CHL1    C3 8179   3.865   1.666   6.610 -0.6358 -0.6376  0.7145
   78CHL1    H3 8180   3.956   1.641   6.668 -0.2318 -1.3568 -0.2060
   78CHL1    O3 8181   3.882   1.651   6.465  0.2864 -0.4730 -0.1555
   78CHL1   H3' 8182   3.904   1.741   6.440 -1.7435 -0.1190 -0.7689
   78CHL1    C4 8183   3.754   1.569   6.651  0.0135  0.3336  0.0819
   78CHL1   H4A 8184   3.658   1.594   6.601 -0.9625 -2.4972  0.4685
   78CHL1   H4B 8185   3.776   1.474   6.597  0.0164 -0.0411  0.7398
   78CHL1    C5 8186   3.718   1.569   6.802  0.0442  0.5345 -0.5936
   78CHL1    C6 8187   3.734   1.462   6.891 -0.1674 -0.1666  0.0652
   78CHL1    H6 8188   3.765   1.363   6.854 -3.3223 -1.0811 -0.2468
   78CHL1    C7 8189   3.707   1.475   7.038  0.3069  0.3069 -0.1477
   78CHL1   H7A 8190   3.645   1.392   7.078  1.4564 -0.1156  0.7763
   78CHL1   H7B 8191   3.802   1.493   7.092  0.5337  1.5105 -0.9145
   78CHL1    C8 8192   3.626   1.603   7.077  0.0960 -0.3828  0.7178
   78CHL1    H8 8193   3.524   1.599   7.033  1.3438 -0.2309 -2.3800
   78CHL1   C14 8194   3.639   1.617   7.224 -0.1801  0.0865  0.2892
   78CHL1   H14 8195   3.748   1.629   7.240 -0.0288 -1.2314  0.3611
   78CHL1   C15 8196   3.597   1.495   7.309  0.5445  0.5173  0.2056
   78CHL1  H15A 8197   3.503   1.454   7.266  0.2210  1.0904  0.3612
   78CHL1  H15B 8198   3.677   1.418   7.311  0.6347  0.4272 -3.7032
   78CHL1   C16 8199   3.593   1.559   7.452 -0.5934 -0.2705  0.7600
   78CHL1  H16A 8200   3.510   1.517   7.513 -0.2339 -3.7923 -1.0810
   78CHL1  H16B 8201   3.676   1.528   7.519  0.7859  0.9275 -0.3412
   78CHL1   C17 8202   3.591   1.713   7.435 -1.1692 -0.3230 -0.2259
   78CHL1   H17 8203   3.697   1.746   7.444 -2.2798  3.7252 -1.2548
   78CHL1   C13 8204   3.564   1.733   7.284  0.3894 -0.2138  0.4529
   78CHL1   C18 8205   3.416   1.725   7.247 -0.9417  0.2350  0.0115
   78CHL1  H18A 8206   3.401   1.718   7.138 -1.3453 -1.8572  0.1825
   78CHL1  H18B 8207   3.367   1.639   7.299  0.2502 -2.0967 -2.5805
   78CHL1  H18C 8208   3.354   1.812   7.278 -2.7964 -0.9027 -0.4387
   78CHL1   C12 8209   3.621   1.859   7.215  0.2566 -0.3920  0.8857
   78CHL1  H12A 8210   3.563   1.948   7.248  0.3621 -0.2599  0.7166
   78CHL1  H12B 8211   3.725   1.886   7.246  0.6479  0.2813 -0.9374
   78CHL1   C11 8212   3.614   1.859   7.063  0.4528 -0.1173  0.1269
   78CHL1  H11A 8213   3.508   1.872   7.032  1.1055 -0.8960 -2.6028
   78CHL1  H11B 8214   3.673   1.950   7.042  0.3677 -0.2163 -0.5578
   78CHL1    C9 8215   3.688   1.734   7.010  0.5275  0.3200 -1.0437
   78CHL1    H9 8216   3.795   1.734   7.038  0.4971 -0.4130 -0.9199
   78CHL1   C10 8217   3.690   1.712   6.856  0.0147 -0.2993 -1.0523
   78CHL1   C19 8218   3.540   1.749   6.806 -0.1636  0.1918 -0.3576
   78CHL1  H19A 8219   3.522   1.718   6.701  0.4715 -0.6734 -0.2150
   78CHL1  H19B 8220   3.457   1.695   6.856 -0.0195  0.3044  0.0083
   78CHL1  H19C 8221   3.520   1.859   6.809 -2.0793 -0.1573  0.8316
   78CHL1    C1 8222   3.791   1.805   6.804 -0.4568 -0.1328 -0.0596
   78CHL1   H1A 8223   3.746   1.906   6.808  0.8096  0.4284 -0.0198
   78CHL1   H1B 8224   3.892   1.797   6.848 -0.8621 -1.5225  0.6584
   78CHL1    C2 8225   3.817   1.804   6.647 -0.1346  0.3792  0.3820
   78CHL1   H2A 8226   3.894   1.881   6.622  0.0434 -0.5541 -2.1232
   78CHL1   H2B 8227   3.725   1.821   6.587 -0.2303  0.1139  0.4515
   78CHL1   C20 8228   3.514   1.777   7.547  0.7683  0.4354 -0.3765
   78CHL1   H20 8229   3.412   1.734   7.540  1.5473 -1.3915 -1.1013
   78CHL1   C21 8230   3.508   1.930   7.517  0.0241 -0.4144 -0.7475
   78CHL1  H21A 8231   3.446   1.949   7.427  1.2891 -0.2938 -1.6093
   78CHL1  H21B 8232   3.611   1.969   7.500  0.2519 -1.4195 -1.7661
   78CHL1  H21C 8233   3.462   1.985   7.601  0.2169  1.3830 -1.8029
   78CHL1   C22 8234   3.575   1.739   7.687  0.8768 -0.3423  0.3921
   78CHL1  H22A 8235   3.564   1.632   7.715  1.7861 -0.3992  0.5379
   78CHL1  H22B 8236   3.686   1.745   7.682  0.7851  1.5033  0.4926
   78CHL1   C23 8237   3.540   1.817   7.811 -0.0629 -0.3120 -0.0606
   78CHL1  H23A 8238   3.577   1.921   7.795 -1.1918  0.4629  2.0766
   78CHL1  H23B 8239   3.430   1.824   7.826  0.2640  0.9612  1.9325
   78CHL1   C24 8240   3.619   1.769   7.942  0.2148 -0.4217 -0.5395
   78CHL1  H24A 8241   3.571   1.671   7.963 -0.1228 -0.7821 -2.8559
   78CHL1  H24B 8242   3.726   1.757   7.914 -0.0210  0.3175 -1.7874
   78CHL1   C25 8243   3.609   1.861   8.060 -0.9344 -1.3382  0.0321
   78CHL1   H25 8244   3.507   1.900   8.077 -0.4617 -0.7526  1.5605
   78CHL1   C26 8245   3.641   1.787   8.190 -0.1004  0.4421  0.6054
   78CHL1  H26A 8246   3.645   1.862   8.272 -1.1217  1.9368 -0.7022
   78CHL1  H26B 8247   3.557   1.719   8.218  1.7123 -1.8233  0.7239
   78CHL1  H26C 8248   3.742   1.741   8.198 -0.0237  0.5924  0.4712
   78CHL1   C27 8249   3.709   1.988   8.045 -0.3477  0.3156  0.8874
   78CHL1  H27A 8250   3.706   2.014   7.937  0.1356 -1.4375  0.4272
   78CHL1  H27B 8251   3.675   2.070   8.111 -0.4618  2.1764 -1.4390
   78CHL1  H27C 8252   3.809   1.957   8.081 -0.6466  0.1554  1.5785
   79CHL1    C3 8253   1.901   1.437   7.095  0.3389  0.0896 -0.7055
   79CHL1    H3 8254   2.008   1.431   7.123  0.3098 -0.7118 -0.7343
   79CHL1    O3 8255   1.891   1.415   6.960  0.1531  0.3509  0.1345
   79CHL1   H3' 8256   1.797   1.427   6.945  0.1327  1.6627  1.2830
   79CHL1    C4 8257   1.826   1.329   7.177  0.3240 -0.6311 -0.1219
   79CHL1   H4A 8258   1.721   1.345   7.144 -0.0835 -1.8929  0.5319
   79CHL1   H4B 8259   1.850   1.225   7.146 -0.9689 -1.0967  0.3613
   79CHL1    C5 8260   1.823   1.347   7.330 -0.5636  0.3238 -0.0174
   79CHL1    C6 8261   1.860   1.252   7.413  0.5623  0.6781  0.4351
   79CHL1    H6 8262   1.884   1.152   7.374 -0.3528 -0.0318  1.6430
   79CHL1    C7 8263   1.857   1.264   7.564 -0.4558  0.0720 -0.0240
   79CHL1   H7A 8264   1.806   1.176   7.609  1.4500 -1.6128 -1.0570
   79CHL1   H7B 8265   1.963   1.266   7.599 -0.0424  2.8063 -1.3295
   79CHL1    C8 8266   1.789   1.394   7.614  0.4197 -0.7561  0.5282
   79CHL1    H8 8267   1.680   1.390   7.592  0.7404 -0.9153 -1.1101
   79CHL1   C14 8268   1.835   1.426   7.754  0.0545 -0.4317  0.1432
   79CHL1   H14 8269   1.946   1.434   7.747 -0.0640 -0.5287 -2.4785
   79CHL1   C15 8270   1.823   1.317   7.861 -0.7155  0.2637  1.0749
   79CHL1  H15A 8271   1.718   1.282   7.851 -0.8554  0.5307  1.6098
   79CHL1  H15B 8272   1.893   1.232   7.843  0.7190  1.8422 -1.0366
   79CHL1   C16 8273   1.838   1.384   7.999  0.2694 -0.8882  0.1652
   79CHL1  H16A 8274   1.760   1.348   8.070 -0.6845  0.5872 -0.1166
   79CHL1  H16B 8275   1.937   1.359   8.043  0.6743  0.5971  0.1244
   79CHL1   C17 8276   1.827   1.539   7.967  0.4973  0.4397  0.3840
   79CHL1   H17 8277   1.928   1.583   7.955  1.3338 -0.5527  3.3378
   79CHL1   C13 8278   1.771   1.546   7.819 -0.4137 -0.2524  0.3483
   79CHL1   C18 8279   1.618   1.538   7.824 -0.3907 -0.0376  0.3186
   79CHL1  H18A 8280   1.572   1.530   7.723  0.3736  1.7410 -0.1803
   79CHL1  H18B 8281   1.590   1.452   7.888  2.7532 -0.9533  0.5359
   79CHL1  H18C 8282   1.577   1.638   7.850 -1.9166 -1.0565  1.9557
   79CHL1   C12 8283   1.826   1.666   7.740 -0.0412  0.1133  0.3303
   79CHL1  H12A 8284   1.777   1.760   7.771 -1.7419  0.0483 -2.0589
   79CHL1  H12B 8285   1.935   1.678   7.757 -0.0485 -0.3319  0.7084
   79CHL1   C11 8286   1.804   1.652   7.586  1.2281  0.5074  0.0255
   79CHL1  H11A 8287   1.698   1.677   7.563  1.6405  1.2248 -1.1660
   79CHL1  H11B 8288   1.873   1.715   7.525  1.8407 -1.2486 -1.1368
   79CHL1    C9 8289   1.841   1.513   7.527 -0.3951  0.2744 -0.3668
   79CHL1    H9 8290   1.951   1.507   7.541 -0.6318 -1.4465  0.9072
   79CHL1   C10 8291   1.793   1.492   7.376  1.5842  0.2302 -0.1943
   79CHL1   C19 8292   1.632   1.501   7.368 -1.1002  0.6450 -0.1378
   79CHL1  H19A 8293   1.583   1.409   7.407 -1.0060 -0.5196 -2.6272
   79CHL1  H19B 8294   1.604   1.584   7.436  2.9617  1.8988  0.1482
   79CHL1  H19C 8295   1.595   1.505   7.263  1.2078  0.7640 -0.9750
   79CHL1    C1 8296   1.864   1.596   7.290  0.2609  0.4023 -0.4177
   79CHL1   H1A 8297   1.823   1.696   7.315 -1.0340 -0.3492  0.4777
   79CHL1   H1B 8298   1.966   1.611   7.333 -0.4403  1.6296  0.8453
   79CHL1    C2 8299   1.846   1.572   7.137 -0.2758 -0.8490 -0.4785
   79CHL1   H2A 8300   1.876   1.660   7.075 -0.9947  0.0299  0.4007
   79CHL1   H2B 8301   1.737   1.578   7.116 -0.0809  0.5870 -1.1410
   79CHL1   C20 8302   1.769   1.610   8.092 -0.0374 -0.3603  0.3198
   79CHL1   H20 8303   1.670   1.567   8.117 -0.5310  0.2931 -0.5010
   79CHL1   C21 8304   1.752   1.760   8.058  0.1727  0.2941  0.2646
   79CHL1  H21A 8305   1.850   1.795   8.021 -0.3498  1.5648  0.0372
   79CHL1  H21B 8306   1.710   1.822   8.141  0.5952 -0.1974  0.8521
   79CHL1  H21C 8307   1.673   1.772   7.981 -0.8152 -2.4946  0.7772
   79CHL1   C22 8308   1.855   1.596   8.215  0.3305 -0.2025  0.2150
   79CHL1  H22A 8309   1.871   1.488   8.238  0.4716 -0.3607 -0.6192
   79CHL1  H22B 8310   1.958   1.635   8.202  0.8166 -1.0184  1.4542
   79CHL1   C23 8311   1.804   1.653   8.347  0.6086 -0.5246  0.1900
   79CHL1  H23A 8312   1.836   1.758   8.360  0.4650 -0.6036  1.2209
   79CHL1  H23B 8313   1.693   1.645   8.343  0.6650 -1.7270  0.8953
   79CHL1   C24 8314   1.860   1.576   8.472 -0.0342 -0.0866  0.3552
   79CHL1  H24A 8315   1.819   1.473   8.462  2.1249 -0.7504 -2.0291
   79CHL1  H24B 8316   1.971   1.569   8.477  0.1136  1.2734 -0.8067
   79CHL1   C25 8317   1.803   1.639   8.600 -0.7799  0.3768  0.0879
   79CHL1   H25 8318   1.787   1.748   8.586 -3.2896  0.2702  1.8628
   79CHL1   C26 8319   1.674   1.580   8.641 -0.2748 -0.2479 -0.3613
   79CHL1  H26A 8320   1.664   1.469   8.647 -1.8195 -0.1689 -1.3129
   79CHL1  H26B 8321   1.649   1.632   8.736  2.4048 -0.7889  0.6974
   79CHL1  H26C 8322   1.609   1.615   8.558  0.7908  0.3387 -0.9536
   79CHL1   C27 8323   1.909   1.629   8.712 -0.3505  0.1032  0.1412
   79CHL1  H27A 8324   1.878   1.690   8.800  1.6562 -0.6834  1.4306
   79CHL1  H27B 8325   1.911   1.524   8.746 -1.3889  0.1911  0.4955
   79CHL1  H27C 8326   2.006   1.668   8.673 -0.5724  0.8649  0.3387
   80CHL1    C3 8327   0.376   5.673   7.045 -0.0810  0.6673  0.0430
   80CHL1    H3 8328   0.444   5.756   7.076 -1.0631  1.0281  1.2853
   80CHL1    O3 8329   0.357   5.667   6.901 -0.2381  0.4376 -0.1817
   80CHL1   H3' 8330   0.432   5.617   6.867  0.0675 -0.7757  2.2004
   80CHL1    C4 8331   0.435   5.542   7.100 -0.3623 -0.4560 -0.9111
   80CHL1   H4A 8332   0.370   5.459   7.066 -1.7598  0.4268 -0.4589
   80CHL1   H4B 8333   0.529   5.531   7.043 -0.8908  0.3458 -1.9578
   80CHL1    C5 8334   0.430   5.544   7.251  0.1469  0.1881  0.1265
   80CHL1    C6 8335   0.536   5.502   7.337  0.2526 -0.2032 -0.4592
   80CHL1    H6 8336   0.630   5.475   7.287  0.6349  0.3186 -0.0226
   80CHL1    C7 8337   0.526   5.477   7.486 -0.2671  0.1681 -0.1724
   80CHL1   H7A 8338   0.567   5.377   7.515 -2.4173 -0.1851  1.7537
   80CHL1   H7B 8339   0.582   5.559   7.536  0.7727 -0.0945 -0.8737
   80CHL1    C8 8340   0.378   5.493   7.540 -0.4677  0.5417  0.8643
   80CHL1    H8 8341   0.324   5.401   7.510  1.2720 -0.2018 -0.0483
   80CHL1   C14 8342   0.380   5.500   7.688  0.0117 -0.1084 -0.0247
   80CHL1   H14 8343   0.441   5.592   7.698  1.2121 -0.8618 -0.2709
   80CHL1   C15 8344   0.460   5.400   7.768 -0.0259  0.8178  0.3585
   80CHL1  H15A 8345   0.428   5.300   7.731 -0.5455  1.8278 -2.0509
   80CHL1  H15B 8346   0.570   5.415   7.765  0.4681 -2.6877 -1.6079
   80CHL1   C16 8347   0.406   5.414   7.905  0.3231 -0.6373 -0.2257
   80CHL1  H16A 8348   0.355   5.318   7.929  1.0918 -0.8382  0.6393
   80CHL1  H16B 8349   0.480   5.437   7.985  0.8242  2.3907 -1.4971
   80CHL1   C17 8350   0.294   5.527   7.906  0.9048  0.9188  0.3815
   80CHL1   H17 8351   0.353   5.621   7.916 -1.1753  2.2098  0.8379
   80CHL1   C13 8352   0.252   5.518   7.763  0.1135  0.4224  0.0643
   80CHL1   C18 8353   0.169   5.385   7.740  0.1383 -0.2295 -0.0162
   80CHL1  H18A 8354   0.061   5.410   7.754 -0.4200 -1.3770 -1.9471
   80CHL1  H18B 8355   0.179   5.369   7.630  1.1549  0.2217  0.0040
   80CHL1  H18C 8356   0.195   5.304   7.811 -0.1190 -0.3378 -0.0435
   80CHL1   C12 8357   0.189   5.639   7.701  0.5404  0.4187  0.0257
   80CHL1  H12A 8358   0.086   5.655   7.738 -0.3835 -0.2146 -2.1720
   80CHL1  H12B 8359   0.247   5.728   7.732  0.6605  0.5456 -0.5513
   80CHL1   C11 8360   0.174   5.643   7.548 -0.4891  0.1433 -0.4600
   80CHL1  H11A 8361   0.099   5.563   7.533  1.4076 -1.9540  0.9529
   80CHL1  H11B 8362   0.131   5.737   7.507 -0.5183  1.4935  2.5099
   80CHL1    C9 8363   0.309   5.607   7.474 -0.4719  0.4005 -0.6550
   80CHL1    H9 8364   0.356   5.707   7.487 -1.2714  0.7060 -0.0503
   80CHL1   C10 8365   0.296   5.582   7.322  0.1644 -0.1677 -0.0067
   80CHL1   C19 8366   0.190   5.469   7.293  0.8723  0.7056 -0.0954
   80CHL1  H19A 8367   0.183   5.445   7.185  0.0432  1.3809 -0.1912
   80CHL1  H19B 8368   0.199   5.375   7.352  0.1740  1.0348  0.5477
   80CHL1  H19C 8369   0.091   5.515   7.315  1.1177  1.1143  0.1538
   80CHL1    C1 8370   0.244   5.708   7.251  0.5435  0.0914  0.0389
   80CHL1   H1A 8371   0.150   5.743   7.299  0.7426  0.0066  0.4953
   80CHL1   H1B 8372   0.314   5.792   7.269 -0.5312  0.5214  2.4549
   80CHL1    C2 8373   0.229   5.704   7.101  0.4845 -0.8296  0.1559
   80CHL1   H2A 8374   0.201   5.796   7.046 -1.3610 -0.4544  1.6488
   80CHL1   H2B 8375   0.159   5.625   7.065 -1.6056  1.1933 -0.3141
   80CHL1   C20 8376   0.177   5.525   8.013 -0.2674  0.3379 -0.6552
   80CHL1   H20 8377   0.078   5.521   7.963 -2.3417  0.2316  3.2211
   80CHL1   C21 8378   0.181   5.657   8.088 -0.0069  0.7667  0.1485
   80CHL1  H21A 8379   0.276   5.679   8.142  0.1686 -0.0093  0.1607
   80CHL1  H21B 8380   0.100   5.656   8.164 -0.0304  2.3119  0.1628
   80CHL1  H21C 8381   0.160   5.737   8.015 -0.4270  1.4706  1.0290
   80CHL1   C22 8382   0.174   5.414   8.127 -0.2435  0.4188  0.2349
   80CHL1  H22A 8383   0.189   5.316   8.077 -0.4362 -1.2245  3.2200
   80CHL1  H22B 8384   0.261   5.432   8.194 -0.3892 -0.2743  0.6206
   80CHL1   C23 8385   0.041   5.405   8.209 -0.2494 -0.0271  0.4303
   80CHL1  H23A 8386   0.015   5.508   8.241  0.0503  0.8233 -1.9827
   80CHL1  H23B 8387  -0.043   5.362   8.150 -0.6097 -1.9098  2.2498
   80CHL1   C24 8388   0.048   5.326   8.341  0.1442  0.2310  0.2112
   80CHL1  H24A 8389   0.051   5.216   8.324  1.3448  0.1114  1.1536
   80CHL1  H24B 8390   0.141   5.347   8.398  1.9211 -1.7518 -1.8853
   80CHL1   C25 8391  -0.078   5.359   8.428  0.0472  0.4857  0.5345
   80CHL1   H25 8392  -0.158   5.366   8.352  2.0673  0.9055 -1.6022
   80CHL1   C26 8393  -0.111   5.249   8.526 -1.0078 -0.6151  0.0585
   80CHL1  H26A 8394  -0.020   5.204   8.572 -0.7409  0.4787  0.6178
   80CHL1  H26B 8395  -0.181   5.285   8.604 -0.4013  0.8792 -0.0804
   80CHL1  H26C 8396  -0.159   5.159   8.480 -2.2996 -0.7270  1.5689
   80CHL1   C27 8397  -0.062   5.493   8.498 -0.5554  0.0150  0.3297
   80CHL1  H27A 8398  -0.137   5.509   8.577  0.3952 -1.7098  1.6169
   80CHL1  H27B 8399   0.036   5.520   8.544  0.1469 -1.3435 -0.3552
   80CHL1  H27C 8400  -0.091   5.580   8.435  0.4153  0.1879  0.1015
   81CHL1    C3 8401   5.093   5.436   6.859 -0.8575 -0.1704 -0.3328
   81CHL1    H3 8402   5.072   5.541   6.828  1.4622 -0.1876 -2.1127
   81CHL1    O3 8403   5.116   5.371   6.735  0.2157  0.4959 -0.7308
   81CHL1   H3' 8404   5.033   5.326   6.717 -0.1510  0.5061  0.8327
   81CHL1    C4 8405   5.219   5.441   6.943 -0.4058  0.0414 -0.9146
   81CHL1   H4A 8406   5.256   5.337   6.957 -1.0411  0.1949  2.3204
   81CHL1   H4B 8407   5.299   5.495   6.888 -0.5748 -0.0258 -1.2251
   81CHL1    C5 8408   5.182   5.505   7.077  0.3510 -0.2287  0.5887
   81CHL1    C6 8409   5.255   5.608   7.130 -0.4929 -0.8735  0.9056
   81CHL1    H6 8410   5.341   5.650   7.074 -0.8205  0.6285  1.5157
   81CHL1    C7 8411   5.241   5.666   7.265  0.3859 -0.5757  0.3893
   81CHL1   H7A 8412   5.339   5.689   7.312  1.1688 -1.1509 -0.9282
   81CHL1   H7B 8413   5.191   5.762   7.239  0.2441 -0.9437 -0.7175
   81CHL1    C8 8414   5.159   5.582   7.357  0.4794  0.3634  0.0473
   81CHL1    H8 8415   5.230   5.505   7.396  0.7053 -0.3417 -1.6904
   81CHL1   C14 8416   5.104   5.664   7.473  0.4205 -0.1464 -0.0696
   81CHL1   H14 8417   5.038   5.735   7.420  1.2881  0.8026  0.1160
   81CHL1   C15 8418   5.208   5.747   7.547  0.2292  0.2701  0.5159
   81CHL1  H15A 8419   5.288   5.683   7.590  1.4700  1.6734  0.3360
   81CHL1  H15B 8420   5.251   5.832   7.490 -0.8336  0.6633  0.2875
   81CHL1   C16 8421   5.139   5.793   7.675 -0.7648 -0.0283  0.1660
   81CHL1  H16A 8422   5.207   5.758   7.756 -0.1456  0.1815 -0.2623
   81CHL1  H16B 8423   5.124   5.903   7.675 -0.3645  0.0317  1.1667
   81CHL1   C17 8424   5.015   5.714   7.685  0.0008  0.2825  0.4149
   81CHL1   H17 8425   4.939   5.778   7.635  1.0694  2.6705  1.7336
   81CHL1   C13 8426   5.025   5.594   7.580 -0.1868  0.3246 -0.4346
   81CHL1   C18 8427   5.097   5.476   7.654 -0.3684  0.3225 -0.3267
   81CHL1  H18A 8428   5.027   5.419   7.719 -0.3456  1.2994  0.5782
   81CHL1  H18B 8429   5.134   5.406   7.576  0.6023 -1.3108  1.5761
   81CHL1  H18C 8430   5.181   5.506   7.720 -0.6339 -0.0177  0.1654
   81CHL1   C12 8431   4.904   5.532   7.508  0.1422  0.2632  0.1057
   81CHL1  H12A 8432   4.842   5.472   7.579 -1.6875  1.4145 -0.4833
   81CHL1  H12B 8433   4.836   5.607   7.461  3.6018  1.4694 -3.2101
   81CHL1   C11 8434   4.943   5.433   7.395 -0.6010 -0.2538  0.9893
   81CHL1  H11A 8435   5.004   5.348   7.434  0.1393 -0.6138 -0.9159
   81CHL1  H11B 8436   4.846   5.400   7.351 -0.2400  1.8768 -1.4933
   81CHL1    C9 8437   5.038   5.511   7.293  0.0155 -0.2606 -0.4340
   81CHL1    H9 8438   4.968   5.594   7.267 -1.1596  0.0332  3.3491
   81CHL1   C10 8439   5.070   5.436   7.165  0.0491  0.2861  0.8068
   81CHL1   C19 8440   5.126   5.292   7.199 -0.6316 -0.4019  0.7355
   81CHL1  H19A 8441   5.124   5.237   7.102 -1.7798  0.8426  0.0418
   81CHL1  H19B 8442   5.233   5.298   7.228 -0.6202 -0.1376  0.6401
   81CHL1  H19C 8443   5.054   5.246   7.270 -1.0754 -1.3162 -0.2844
   81CHL1    C1 8444   4.947   5.422   7.078 -0.1673  1.5019  0.5333
   81CHL1   H1A 8445   4.887   5.343   7.128  0.4636  0.7834  0.1687
   81CHL1   H1B 8446   4.890   5.517   7.079 -1.3251  0.8267 -0.7630
   81CHL1    C2 8447   4.975   5.372   6.931  0.0049 -0.3991  0.5940
   81CHL1   H2A 8448   4.884   5.384   6.868  0.4334 -0.1915  0.0106
   81CHL1   H2B 8449   4.995   5.263   6.932  0.7228 -0.2820 -0.2298
   81CHL1   C20 8450   4.948   5.699   7.827  0.1393  0.4869  0.0561
   81CHL1   H20 8451   4.999   5.613   7.874 -0.2143  1.1138  1.6471
   81CHL1   C21 8452   4.796   5.657   7.804  0.1530 -0.4974 -0.5410
   81CHL1  H21A 8453   4.760   5.632   7.906  0.3873  0.7296 -0.1417
   81CHL1  H21B 8454   4.784   5.562   7.748 -0.6401  0.4994 -2.1158
   81CHL1  H21C 8455   4.736   5.744   7.768 -0.7043 -0.7646  0.2117
   81CHL1   C22 8456   4.972   5.821   7.924  0.2489  0.1179  0.0538
   81CHL1  H22A 8457   5.082   5.828   7.940 -0.1811  1.1821  2.6506
   81CHL1  H22B 8458   4.923   5.905   7.871  0.1304  0.3561  0.5445
   81CHL1   C23 8459   4.918   5.801   8.064 -0.3719 -0.0282 -0.3550
   81CHL1  H23A 8460   4.809   5.784   8.048  0.1048 -2.1207 -1.6689
   81CHL1  H23B 8461   4.962   5.706   8.101 -0.1965  0.5803  1.0405
   81CHL1   C24 8462   4.938   5.929   8.150  0.2097 -0.3247 -0.6679
   81CHL1  H24A 8463   5.043   5.961   8.170 -0.7540  2.8432 -0.4895
   81CHL1  H24B 8464   4.885   6.013   8.101  0.3113 -0.1158 -0.4226
   81CHL1   C25 8465   4.880   5.905   8.296 -0.1070 -0.1123  0.1607
   81CHL1   H25 8466   4.770   5.905   8.282  0.2728 -0.6769 -3.4240
   81CHL1   C26 8467   4.937   5.767   8.363  0.0117 -0.1800 -0.6601
   81CHL1  H26A 8468   4.888   5.763   8.462 -1.6551  3.3440 -1.2671
   81CHL1  H26B 8469   4.898   5.680   8.306  2.2114 -2.7914  1.7331
   81CHL1  H26C 8470   5.047   5.786   8.357  1.1773 -4.6779  3.4460
   81CHL1   C27 8471   4.912   6.019   8.396 -0.3664  0.0329 -0.4758
   81CHL1  H27A 8472   4.876   6.117   8.357  1.1548  1.0834  0.6797
   81CHL1  H27B 8473   4.845   6.019   8.485  0.4341 -0.4262  0.1305
   81CHL1  H27C 8474   5.017   6.026   8.431 -0.5553 -2.4320  0.6229
   82CHL1    C3 8475   6.296   0.244   6.968  0.7093  0.2258  0.4146
   82CHL1    H3 8476   6.314   0.138   6.994 -0.0727  0.2356  1.0206
   82CHL1    O3 8477   6.288   0.264   6.823 -0.0895  0.0085  0.1139
   82CHL1   H3' 8478   6.356   0.213   6.779 -1.5912 -1.2600 -0.8281
   82CHL1    C4 8479   6.167   0.298   7.036 -0.1712  0.1164  0.5811
   82CHL1   H4A 8480   6.170   0.406   7.009  0.0970  0.0557  0.3689
   82CHL1   H4B 8481   6.084   0.244   6.984  0.1495  0.1646  0.0194
   82CHL1    C5 8482   6.184   0.274   7.183 -0.0857  0.0633 -0.5003
   82CHL1    C6 8483   6.092   0.201   7.252 -0.3153  0.5779  0.2408
   82CHL1    H6 8484   6.007   0.157   7.198  0.5629 -0.0389 -0.6589
   82CHL1    C7 8485   6.098   0.179   7.398 -0.6390  0.0682  0.2229
   82CHL1   H7A 8486   5.995   0.193   7.436 -0.0109 -1.9020  2.7865
   82CHL1   H7B 8487   6.130   0.074   7.412  0.0854  0.4252  1.3629
   82CHL1    C8 8488   6.183   0.286   7.473  0.0894  0.2819  0.4809
   82CHL1    H8 8489   6.132   0.384   7.480  1.8025  1.1929  0.6186
   82CHL1   C14 8490   6.208   0.243   7.617  0.2043 -0.7633 -0.1794
   82CHL1   H14 8491   6.250   0.140   7.611  1.8592  0.0054 -2.3117
   82CHL1   C15 8492   6.080   0.233   7.704 -0.0451  0.0775  0.1666
   82CHL1  H15A 8493   6.013   0.318   7.679  0.0183 -0.8602 -3.4033
   82CHL1  H15B 8494   6.017   0.142   7.690  1.4356 -1.2076  1.7249
   82CHL1   C16 8495   6.136   0.246   7.844  0.0186 -0.1527  0.3969
   82CHL1  H16A 8496   6.069   0.319   7.894 -1.4021 -0.9217 -0.3382
   82CHL1  H16B 8497   6.129   0.153   7.904  1.4594 -0.5543 -0.0264
   82CHL1   C17 8498   6.290   0.275   7.836  0.3782  0.6058  0.5444
   82CHL1   H17 8499   6.348   0.180   7.835  1.9898  1.5561  1.9428
   82CHL1   C13 8500   6.302   0.329   7.687 -0.2463  0.2396  0.5596
   82CHL1   C18 8501   6.260   0.476   7.686  0.2803  0.7730 -0.7331
   82CHL1  H18A 8502   6.263   0.542   7.598 -1.8938  1.6832 -0.1551
   82CHL1  H18B 8503   6.165   0.487   7.742  1.3645 -1.4325  1.7094
   82CHL1  H18C 8504   6.338   0.527   7.746  0.1074  0.5767 -0.3402
   82CHL1   C12 8505   6.439   0.312   7.623 -0.4995 -0.1969 -0.2879
   82CHL1  H12A 8506   6.513   0.383   7.666  0.2207 -0.8719 -0.3908
   82CHL1  H12B 8507   6.480   0.209   7.615  2.4982  1.0708 -2.0875
   82CHL1   C11 8508   6.436   0.364   7.477  0.8685 -0.5861 -0.2655
   82CHL1  H11A 8509   6.408   0.471   7.486 -0.6804 -1.1191  1.8159
   82CHL1  H11B 8510   6.536   0.366   7.429  0.3553 -2.0307 -1.3896
   82CHL1    C9 8511   6.316   0.293   7.400 -0.1480  0.2271 -0.3891
   82CHL1    H9 8512   6.362   0.192   7.392  3.4008  1.7472 -0.3127
   82CHL1   C10 8513   6.303   0.342   7.256  0.9234  0.3749  0.4479
   82CHL1   C19 8514   6.280   0.501   7.256  0.2300 -0.5476  0.7793
   82CHL1  H19A 8515   6.223   0.531   7.166  0.4899 -1.0543  0.4438
   82CHL1  H19B 8516   6.216   0.535   7.341 -1.8030 -0.7626 -0.6284
   82CHL1  H19C 8517   6.378   0.549   7.238 -0.9777  1.5218 -0.4606
   82CHL1    C1 8518   6.434   0.308   7.166  0.4084 -1.0322  0.5169
   82CHL1   H1A 8519   6.515   0.378   7.197 -0.0153  0.0815 -0.8355
   82CHL1   H1B 8520   6.466   0.204   7.190 -0.6577 -1.1911  1.3121
   82CHL1    C2 8521   6.420   0.325   7.019 -0.3806 -0.2029  0.5731
   82CHL1   H2A 8522   6.515   0.302   6.967 -0.6028  1.4015 -0.5706
   82CHL1   H2B 8523   6.394   0.431   6.996 -1.1625 -0.5958 -0.3958
   82CHL1   C20 8524   6.347   0.350   7.954  0.0149 -0.1673  1.0808
   82CHL1   H20 8525   6.328   0.459   7.941 -1.7100 -0.3495  1.9732
   82CHL1   C21 8526   6.495   0.331   7.962 -0.2373  0.3852 -0.5799
   82CHL1  H21A 8527   6.529   0.226   7.974  1.4328  0.9920  0.2542
   82CHL1  H21B 8528   6.557   0.394   8.030 -0.2287  1.4790 -1.5965
   82CHL1  H21C 8529   6.546   0.343   7.864 -1.6448  1.4839 -1.1965
   82CHL1   C22 8530   6.280   0.311   8.091  0.3711 -0.5393 -0.1780
   82CHL1  H22A 8531   6.174   0.341   8.081 -0.1792 -1.9901  1.0239
   82CHL1  H22B 8532   6.296   0.202   8.107  0.8836 -0.5366 -0.6716
   82CHL1   C23 8533   6.342   0.388   8.212  0.3143 -0.5406 -0.1370
   82CHL1  H23A 8534   6.451   0.369   8.223  0.5253 -0.8472 -2.4719
   82CHL1  H23B 8535   6.335   0.494   8.179 -0.4657 -0.7717 -0.7377
   82CHL1   C24 8536   6.291   0.359   8.347 -0.0742 -0.2461 -0.1331
   82CHL1  H24A 8537   6.186   0.395   8.345 -0.0422 -0.2181 -1.4718
   82CHL1  H24B 8538   6.293   0.250   8.370 -1.0549 -0.2052  0.1887
   82CHL1   C25 8539   6.348   0.432   8.472 -0.6653  0.0543  0.7393
   82CHL1   H25 8540   6.454   0.464   8.458 -0.1898 -1.8187 -0.0856
   82CHL1   C26 8541   6.262   0.566   8.498  1.0513  0.8772  0.5458
   82CHL1  H26A 8542   6.304   0.621   8.585 -0.8061  1.0279  1.3771
   82CHL1  H26B 8543   6.268   0.625   8.404  1.9874 -0.0810  0.0010
   82CHL1  H26C 8544   6.158   0.534   8.520  0.5949  1.5946 -0.5159
   82CHL1   C27 8545   6.326   0.334   8.590  0.1296  0.5775  0.8552
   82CHL1  H27A 8546   6.218   0.330   8.615 -0.0948 -0.2111 -0.1982
   82CHL1  H27B 8547   6.376   0.237   8.569  1.0702  1.9436 -3.6080
   82CHL1  H27C 8548   6.382   0.368   8.680 -0.7864 -0.1151  1.6981
   83CHL1    C3 8549   2.220   1.186   7.018 -0.3464  0.7989 -0.2667
   83CHL1    H3 8550   2.116   1.221   7.039 -0.0747 -0.2610  3.0804
   83CHL1    O3 8551   2.222   1.163   6.876 -0.9938 -0.4829  0.2839
   83CHL1   H3' 8552   2.308   1.131   6.847 -0.7492  1.6046 -1.4354
   83CHL1    C4 8553   2.320   1.290   7.069  0.6053  0.6255  0.0788
   83CHL1   H4A 8554   2.419   1.264   7.025  0.4403  2.7343 -1.6611
   83CHL1   H4B 8555   2.292   1.389   7.026 -1.1443  0.6586  1.2321
   83CHL1    C5 8556   2.319   1.296   7.226 -0.1987 -0.3440  0.2883
   83CHL1    C6 8557   2.290   1.413   7.292 -0.3587  0.7586 -0.5665
   83CHL1    H6 8558   2.264   1.505   7.238  0.3530  0.8504 -0.7645
   83CHL1    C7 8559   2.274   1.417   7.439  0.8655 -0.0504 -0.1345
   83CHL1   H7A 8560   2.331   1.496   7.493  0.3350 -0.1852  0.6322
   83CHL1   H7B 8561   2.164   1.429   7.453  1.0957  1.6432  0.3683
   83CHL1    C8 8562   2.320   1.292   7.516  1.2459 -0.4717  0.5745
   83CHL1    H8 8563   2.430   1.298   7.521  1.1743 -0.2138  2.0409
   83CHL1   C14 8564   2.269   1.297   7.662 -0.2567 -0.4709  0.3392
   83CHL1   H14 8565   2.159   1.289   7.654 -0.4091  2.4192 -1.0734
   83CHL1   C15 8566   2.302   1.419   7.751 -0.0410  0.0700  0.6232
   83CHL1  H15A 8567   2.404   1.463   7.740  0.4618 -0.8718  1.3705
   83CHL1  H15B 8568   2.229   1.499   7.727  0.3758 -0.0225 -1.0378
   83CHL1   C16 8569   2.286   1.363   7.894 -0.1688  0.4024 -0.1875
   83CHL1  H16A 8570   2.384   1.376   7.946 -1.3996 -0.7620  2.5444
   83CHL1  H16B 8571   2.210   1.423   7.948 -0.8224 -1.6772  1.2585
   83CHL1   C17 8572   2.239   1.213   7.883  0.4107 -0.1094  0.7415
   83CHL1   H17 8573   2.130   1.224   7.865  0.9424  0.7334 -2.1627
   83CHL1   C13 8574   2.291   1.171   7.746  0.1551  0.0187 -0.1858
   83CHL1   C18 8575   2.442   1.150   7.759 -0.0618  0.6078  0.5232
   83CHL1  H18A 8576   2.505   1.123   7.671 -0.3072  1.9028 -0.0519
   83CHL1  H18B 8577   2.497   1.237   7.801  1.6054 -0.0504 -0.2305
   83CHL1  H18C 8578   2.469   1.063   7.824  1.1204  1.3695  1.0743
   83CHL1   C12 8579   2.229   1.049   7.681 -0.5145 -0.6582  0.5990
   83CHL1  H12A 8580   2.274   0.957   7.724  1.0961  0.0126  0.3878
   83CHL1  H12B 8581   2.120   1.069   7.694 -0.6701 -0.0964 -1.3926
   83CHL1   C11 8582   2.275   1.038   7.533  0.4049 -0.6610 -0.4035
   83CHL1  H11A 8583   2.381   1.007   7.542  0.4063 -0.1092  1.7876
   83CHL1  H11B 8584   2.223   0.950   7.489  1.9055 -1.7112 -0.1430
   83CHL1    C9 8585   2.263   1.168   7.450 -0.0215  0.3198  0.5668
   83CHL1    H9 8586   2.155   1.188   7.433 -0.0235 -0.2992 -0.2299
   83CHL1   C10 8587   2.319   1.157   7.304  0.4248 -0.9787 -0.4571
   83CHL1   C19 8588   2.464   1.105   7.295 -0.1710 -0.4810  0.2347
   83CHL1  H19A 8589   2.460   0.996   7.315 -0.7945 -0.1993  1.7154
   83CHL1  H19B 8590   2.498   1.113   7.189 -0.2083 -1.3927  0.1482
   83CHL1  H19C 8591   2.545   1.150   7.356  0.7707  0.5110 -1.6861
   83CHL1    C1 8592   2.232   1.053   7.232  0.3157  0.0286 -0.4938
   83CHL1   H1A 8593   2.260   0.957   7.281  0.3163  0.4617  0.3686
   83CHL1   H1B 8594   2.124   1.068   7.257  0.3354  0.6145 -0.7547
   83CHL1    C2 8595   2.236   1.046   7.079 -0.0489 -0.0707 -0.2048
   83CHL1   H2A 8596   2.168   0.965   7.047  0.7817  0.3979 -3.3868
   83CHL1   H2B 8597   2.340   1.017   7.051  0.7055 -0.2718  2.6450
   83CHL1   C20 8598   2.266   1.128   8.010 -0.2596  0.4737  0.2883
   83CHL1   H20 8599   2.376   1.123   8.021 -0.0679  3.7328  0.5032
   83CHL1   C21 8600   2.199   0.992   7.998  0.6367  0.0656  0.1943
   83CHL1  H21A 8601   2.252   0.930   7.922 -0.2806  1.2017 -1.4020
   83CHL1  H21B 8602   2.094   1.002   7.961  0.2129 -1.7422  0.8226
   83CHL1  H21C 8603   2.203   0.939   8.096 -0.3005  0.7764  0.6198
   83CHL1   C22 8604   2.238   1.211   8.140  0.3647  0.6237  0.0712
   83CHL1  H22A 8605   2.304   1.301   8.148 -0.5891  1.3619 -0.2114
   83CHL1  H22B 8606   2.132   1.243   8.133  0.4975  0.8613 -0.9840
   83CHL1   C23 8607   2.238   1.128   8.275  0.1130  0.3686 -1.0126
   83CHL1  H23A 8608   2.156   1.054   8.271 -0.3754  0.8580 -0.0492
   83CHL1  H23B 8609   2.343   1.090   8.279  0.0819  0.4417  0.5132
   83CHL1   C24 8610   2.222   1.209   8.403 -0.7780 -0.5614 -0.4518
   83CHL1  H24A 8611   2.298   1.290   8.413  0.0042 -1.6617  2.8471
   83CHL1  H24B 8612   2.127   1.264   8.390 -0.7789  0.0964  2.1370
   83CHL1   C25 8613   2.205   1.128   8.529 -0.8997 -0.6823 -0.3098
   83CHL1   H25 8614   2.123   1.056   8.509  0.1605 -2.7282  2.3908
   83CHL1   C26 8615   2.323   1.043   8.570 -0.3454  0.0989  0.1462
   83CHL1  H26A 8616   2.415   1.103   8.586  0.8142 -1.8547  0.9301
   83CHL1  H26B 8617   2.306   0.980   8.661  2.0622 -0.6133  0.1233
   83CHL1  H26C 8618   2.359   0.976   8.490 -1.0583  0.2973 -0.3530
   83CHL1   C27 8619   2.167   1.220   8.652  0.0520  0.5006 -0.5210
   83CHL1  H27A 8620   2.073   1.276   8.633 -0.5206  0.7251  2.5858
   83CHL1  H27B 8621   2.141   1.169   8.748 -0.0732  0.1108 -0.7632
   83CHL1  H27C 8622   2.247   1.293   8.675 -1.1318  1.1397  1.7752
   84CHL1    C3 8623   4.476   4.006   7.030 -0.3128  0.7189  0.0695
   84CHL1    H3 8624   4.567   4.040   7.083 -0.8702 -0.0290  1.5356
   84CHL1    O3 8625   4.483   3.977   6.890  0.0658 -0.5144  0.4443
   84CHL1   H3' 8626   4.392   3.955   6.868  0.3802 -3.7050  2.1845
   84CHL1    C4 8627   4.424   3.877   7.102 -0.1045 -0.0215  0.2085
   84CHL1   H4A 8628   4.327   3.856   7.052 -1.5069  1.5907  2.1903
   84CHL1   H4B 8629   4.490   3.788   7.093  1.2389  0.7656  1.9362
   84CHL1    C5 8630   4.394   3.914   7.248  0.4811 -0.7258  0.3291
   84CHL1    C6 8631   4.453   3.853   7.351  0.4584  0.0821  0.1328
   84CHL1    H6 8632   4.523   3.773   7.320 -0.8588 -1.4146  0.9107
   84CHL1    C7 8633   4.430   3.871   7.493  0.5419 -0.7537 -0.0367
   84CHL1   H7A 8634   4.444   3.777   7.552 -0.7756 -1.1606 -0.3403
   84CHL1   H7B 8635   4.504   3.939   7.538 -0.3271 -0.4026  0.8896
   84CHL1    C8 8636   4.290   3.928   7.514 -0.4089 -0.6019  0.3391
   84CHL1    H8 8637   4.202   3.869   7.481 -0.5595 -1.0637  1.5406
   84CHL1   C14 8638   4.281   3.969   7.664  0.0376  0.6473 -0.8331
   84CHL1   H14 8639   4.362   4.040   7.693  1.4774 -1.7893  1.3350
   84CHL1   C15 8640   4.302   3.858   7.774 -0.2716 -0.5595  0.6594
   84CHL1  H15A 8641   4.245   3.767   7.745  2.7396 -2.2476 -0.1636
   84CHL1  H15B 8642   4.407   3.824   7.780 -0.9008 -2.5384  0.9384
   84CHL1   C16 8643   4.255   3.927   7.898  0.5248  0.1863  0.4899
   84CHL1  H16A 8644   4.199   3.859   7.965  1.0417  1.4165  2.2114
   84CHL1  H16B 8645   4.343   3.949   7.962  2.3067 -1.2234 -1.3931
   84CHL1   C17 8646   4.179   4.059   7.851 -0.2721  0.4114 -0.0126
   84CHL1   H17 8647   4.249   4.144   7.859 -0.6700  0.5181  2.6842
   84CHL1   C13 8648   4.150   4.041   7.700 -0.0348  0.8633 -0.4549
   84CHL1   C18 8649   4.024   3.956   7.678 -0.3612 -0.5546 -0.4672
   84CHL1  H18A 8650   4.023   3.873   7.752  1.7551 -2.2209 -2.2706
   84CHL1  H18B 8651   3.929   4.014   7.674  0.7363  1.3456 -0.0334
   84CHL1  H18C 8652   4.025   3.908   7.578  1.1773  0.1072 -0.7932
   84CHL1   C12 8653   4.158   4.173   7.613  0.1008 -0.0566 -0.2856
   84CHL1  H12A 8654   4.080   4.249   7.636 -0.0538  0.6179 -2.8724
   84CHL1  H12B 8655   4.252   4.222   7.645 -0.5877  0.4267  1.0066
   84CHL1   C11 8656   4.163   4.147   7.466  0.1386  0.1463 -0.4056
   84CHL1  H11A 8657   4.064   4.109   7.434 -0.7256  1.6951  0.3405
   84CHL1  H11B 8658   4.179   4.247   7.421 -0.9219  0.4282 -0.1728
   84CHL1    C9 8659   4.289   4.062   7.429  0.5763  0.4053 -0.0148
   84CHL1    H9 8660   4.377   4.126   7.454  0.2706  1.8586 -2.4744
   84CHL1   C10 8661   4.292   4.026   7.274  0.1727  0.0344 -0.0564
   84CHL1   C19 8662   4.154   3.981   7.231 -0.6761  0.6575  0.9193
   84CHL1  H19A 8663   4.089   4.071   7.224  1.4315  2.0554 -1.2138
   84CHL1  H19B 8664   4.159   3.949   7.125 -1.3037 -1.2354  1.4268
   84CHL1  H19C 8665   4.106   3.904   7.296 -1.1963  1.4588  1.4909
   84CHL1    C1 8666   4.353   4.149   7.196 -0.0875  0.0960  0.1564
   84CHL1   H1A 8667   4.278   4.231   7.199 -1.1798 -0.6341 -3.7549
   84CHL1   H1B 8668   4.444   4.188   7.247  1.2374 -1.9428 -0.6018
   84CHL1    C2 8669   4.380   4.123   7.044  1.5512 -0.4911  0.1319
   84CHL1   H2A 8670   4.410   4.213   6.986  0.4071 -0.1319  0.0809
   84CHL1   H2B 8671   4.285   4.094   6.994  1.0203  1.4682 -0.0342
   84CHL1   C20 8672   4.067   4.087   7.947  0.4220  0.0052 -0.0272
   84CHL1   H20 8673   4.001   3.998   7.948 -0.2813  0.4532 -2.3896
   84CHL1   C21 8674   3.989   4.215   7.904 -0.5223 -0.3154  0.4702
   84CHL1  H21A 8675   4.034   4.315   7.922 -0.0512 -0.3309 -0.5618
   84CHL1  H21B 8676   3.895   4.217   7.963 -0.8892  0.0202 -0.1110
   84CHL1  H21C 8677   3.955   4.205   7.799  0.1759  0.5219  0.1576
   84CHL1   C22 8678   4.118   4.090   8.097  0.3508  0.7151  0.3872
   84CHL1  H22A 8679   4.025   4.075   8.156  0.5209  0.8004  0.6770
   84CHL1  H22B 8680   4.175   3.999   8.126 -1.6459 -0.6540  0.1598
   84CHL1   C23 8681   4.199   4.213   8.129  0.9972 -0.5546  0.8210
   84CHL1  H23A 8682   4.291   4.210   8.067 -0.5014  1.4590 -1.6290
   84CHL1  H23B 8683   4.141   4.307   8.116 -0.7959 -1.6394  0.7795
   84CHL1   C24 8684   4.236   4.225   8.276  0.2444  0.2902  0.1130
   84CHL1  H24A 8685   4.151   4.212   8.346  0.0522 -1.4846 -0.4221
   84CHL1  H24B 8686   4.316   4.149   8.291  0.5364  0.5408 -0.1547
   84CHL1   C25 8687   4.292   4.364   8.309  0.0110 -0.4878  0.3274
   84CHL1   H25 8688   4.229   4.444   8.265  1.3036  1.2733  1.6219
   84CHL1   C26 8689   4.302   4.385   8.463  0.5047 -0.3581 -0.1318
   84CHL1  H26A 8690   4.210   4.374   8.524 -0.1973  1.2088 -0.8580
   84CHL1  H26B 8691   4.375   4.316   8.509 -1.0304 -1.5846  0.4780
   84CHL1  H26C 8692   4.331   4.492   8.472  1.1944 -0.5806  0.2675
   84CHL1   C27 8693   4.430   4.379   8.238 -0.0651 -0.4475 -0.0063
   84CHL1  H27A 8694   4.459   4.487   8.240 -1.5717 -0.0140 -0.8061
   84CHL1  H27B 8695   4.503   4.316   8.293 -0.8890 -1.1379  0.3162
   84CHL1  H27C 8696   4.419   4.347   8.133  4.1022 -1.5649 -0.1732
   85CHL1    C3 8697   3.507   0.512   6.720 -0.1504 -1.0791  0.2033
   85CHL1    H3 8698   3.449   0.599   6.759  0.5003 -0.0211 -1.1432
   85CHL1    O3 8699   3.480   0.496   6.581 -0.7995 -0.0785  0.0536
   85CHL1   H3' 8700   3.384   0.493   6.575 -0.9503  0.0023  2.1373
   85CHL1    C4 8701   3.658   0.534   6.744  0.2078 -0.0373 -0.1018
   85CHL1   H4A 8702   3.716   0.456   6.689 -1.7674 -1.7791  0.2298
   85CHL1   H4B 8703   3.696   0.630   6.702  2.3677 -0.3340  1.1219
   85CHL1    C5 8704   3.704   0.522   6.885  0.1164 -0.1980  0.0057
   85CHL1    C6 8705   3.783   0.615   6.943 -0.3314  0.0562 -0.4196
   85CHL1    H6 8706   3.833   0.690   6.881  2.4995 -0.5052  1.0995
   85CHL1    C7 8707   3.827   0.609   7.094 -0.3500  0.6609  0.2539
   85CHL1   H7A 8708   3.937   0.608   7.111 -0.4744 -0.8381  1.0108
   85CHL1   H7B 8709   3.796   0.690   7.163  1.6083  0.6490  1.1568
   85CHL1    C8 8710   3.784   0.479   7.172 -0.1112 -0.3804  0.3059
   85CHL1    H8 8711   3.868   0.414   7.138  0.0051 -0.1860  0.2206
   85CHL1   C14 8712   3.791   0.494   7.324 -0.3284  0.4483 -0.6694
   85CHL1   H14 8713   3.727   0.580   7.353 -0.9735 -0.5390  0.9450
   85CHL1   C15 8714   3.923   0.525   7.398  0.2940 -0.3288 -0.3910
   85CHL1  H15A 8715   3.999   0.459   7.353 -1.9677 -1.6652 -2.3879
   85CHL1  H15B 8716   3.936   0.633   7.376  1.0030 -0.3630 -0.1369
   85CHL1   C16 8717   3.901   0.487   7.553 -0.0297  0.8466 -0.4074
   85CHL1  H16A 8718   3.992   0.429   7.582 -0.5675 -0.1426 -0.6956
   85CHL1  H16B 8719   3.888   0.577   7.617  1.3661  0.3778  0.5507
   85CHL1   C17 8720   3.771   0.400   7.556  0.2943  0.0962  1.0640
   85CHL1   H17 8721   3.687   0.460   7.596 -1.3058 -2.2757  1.3203
   85CHL1   C13 8722   3.744   0.366   7.399 -0.0410 -0.7973 -0.4038
   85CHL1   C18 8723   3.840   0.254   7.372  0.2072 -0.0249 -0.2885
   85CHL1  H18A 8724   3.790   0.154   7.375  0.0499  0.0737  0.5770
   85CHL1  H18B 8725   3.878   0.262   7.268  0.9836  0.9325  0.0640
   85CHL1  H18C 8726   3.929   0.265   7.436  0.5835 -1.0362 -0.6315
   85CHL1   C12 8727   3.604   0.334   7.354  0.5399  0.5979  0.8431
   85CHL1  H12A 8728   3.548   0.253   7.406  0.0699 -1.3570 -2.5929
   85CHL1  H12B 8729   3.542   0.425   7.370 -0.1409  0.8314 -2.6265
   85CHL1   C11 8730   3.597   0.304   7.210 -0.0314  0.5820  0.3699
   85CHL1  H11A 8731   3.645   0.207   7.185  3.0778  1.6202  2.0132
   85CHL1  H11B 8732   3.490   0.316   7.185  0.2615  0.2398 -1.1549
   85CHL1    C9 8733   3.660   0.418   7.121 -0.4922 -0.2106  0.2783
   85CHL1    H9 8734   3.602   0.512   7.133 -0.5967 -0.3141  0.5804
   85CHL1   C10 8735   3.648   0.400   6.964 -0.6115 -0.3053  0.5372
   85CHL1   C19 8736   3.732   0.270   6.932 -0.2940  0.5453  0.1427
   85CHL1  H19A 8737   3.826   0.282   6.990  0.9833  0.7077 -1.8983
   85CHL1  H19B 8738   3.684   0.172   6.954 -1.8608  1.3168  0.2220
   85CHL1  H19C 8739   3.754   0.270   6.823 -0.4423  2.6103  0.0969
   85CHL1    C1 8740   3.503   0.375   6.936 -0.3837  0.6982  0.3521
   85CHL1   H1A 8741   3.471   0.274   6.967 -1.0131  0.5906 -0.6161
   85CHL1   H1B 8742   3.434   0.441   6.992  0.1508  0.0365  1.7902
   85CHL1    C2 8743   3.457   0.383   6.786 -0.5732  0.4760 -0.0876
   85CHL1   H2A 8744   3.348   0.377   6.764 -0.6135 -0.2957  0.3022
   85CHL1   H2B 8745   3.511   0.298   6.738  1.2381 -0.2350  3.0651
   85CHL1   C20 8746   3.772   0.286   7.661 -0.1655 -0.1003 -0.4248
   85CHL1   H20 8747   3.833   0.199   7.629  0.6873  0.8375 -1.3944
   85CHL1   C21 8748   3.628   0.244   7.699 -0.7763 -0.4328  0.4208
   85CHL1  H21A 8749   3.590   0.325   7.764 -1.6362 -0.6955  0.2558
   85CHL1  H21B 8750   3.615   0.143   7.743 -1.4567  0.9625  3.5542
   85CHL1  H21C 8751   3.556   0.237   7.614  0.0371 -1.1484 -0.2180
   85CHL1   C22 8752   3.839   0.336   7.794 -0.1693  0.0108 -0.1083
   85CHL1  H22A 8753   3.937   0.384   7.773 -0.3657  0.2921 -0.3874
   85CHL1  H22B 8754   3.773   0.414   7.839 -2.2478 -1.4585 -0.5176
   85CHL1   C23 8755   3.857   0.228   7.895 -0.4377 -0.0333 -0.2812
   85CHL1  H23A 8756   3.759   0.186   7.927  0.2816 -0.4357  1.4821
   85CHL1  H23B 8757   3.911   0.149   7.839  0.5297 -0.3357  1.0651
   85CHL1   C24 8758   3.949   0.254   8.015  0.2826 -0.3144  0.2314
   85CHL1  H24A 8759   4.045   0.304   7.992  0.1455 -0.0372  0.2482
   85CHL1  H24B 8760   3.884   0.321   8.077 -0.5749 -0.6406 -0.3001
   85CHL1   C25 8761   3.964   0.137   8.109  0.5324  0.2675 -0.1340
   85CHL1   H25 8762   4.015   0.051   8.062 -0.8038 -0.7500  0.2481
   85CHL1   C26 8763   4.046   0.179   8.231 -0.4353 -0.5146  0.5274
   85CHL1  H26A 8764   3.997   0.268   8.275 -3.4836 -0.0593 -3.5429
   85CHL1  H26B 8765   4.043   0.099   8.309 -1.0110  0.0762  1.1185
   85CHL1  H26C 8766   4.152   0.199   8.206 -1.2514 -0.5932 -3.2063
   85CHL1   C27 8767   3.835   0.058   8.147  0.2019 -0.0197  0.3675
   85CHL1  H27A 8768   3.795  -0.001   8.061 -0.8985 -0.6135  1.2802
   85CHL1  H27B 8769   3.852  -0.011   8.232 -0.0563 -2.8526 -1.8144
   85CHL1  H27C 8770   3.751   0.123   8.177 -0.2752 -0.1359 -0.6892
   86CHL1    C3 8771   6.097   5.555   7.116 -0.3837 -0.4851  0.1960
   86CHL1    H3 8772   5.993   5.592   7.104 -0.3631 -1.0560 -1.9958
   86CHL1    O3 8773   6.159   5.565   6.987 -0.3748  0.9486 -0.3764
   86CHL1   H3' 8774   6.253   5.552   6.999 -0.0045 -0.8691 -4.4779
   86CHL1    C4 8775   6.173   5.643   7.212 -0.0788 -0.1239  0.4823
   86CHL1   H4A 8776   6.276   5.603   7.216 -0.4663 -1.1121  0.9344
   86CHL1   H4B 8777   6.185   5.743   7.166 -2.3382  0.8729  1.9554
   86CHL1    C5 8778   6.131   5.646   7.359  0.9520 -0.5937 -0.0191
   86CHL1    C6 8779   6.102   5.763   7.416 -0.0952 -0.3283 -0.8714
   86CHL1    H6 8780   6.107   5.856   7.356  2.5126 -0.3883 -0.8094
   86CHL1    C7 8781   6.072   5.772   7.563  0.5512  0.3420  0.3313
   86CHL1   H7A 8782   6.116   5.861   7.613  0.4590  0.6098 -0.0647
   86CHL1   H7B 8783   5.963   5.790   7.565  0.0619 -1.9207 -2.3536
   86CHL1    C8 8784   6.113   5.647   7.639  0.7246  1.2448 -0.2869
   86CHL1    H8 8785   6.223   5.651   7.650  0.9270 -0.2479 -1.5685
   86CHL1   C14 8786   6.043   5.654   7.772 -0.1898 -0.0253 -0.3400
   86CHL1   H14 8787   5.936   5.657   7.745 -0.2992 -0.8604 -0.0342
   86CHL1   C15 8788   6.062   5.775   7.857 -0.0111 -0.1245 -0.1807
   86CHL1  H15A 8789   6.170   5.800   7.845  0.3440 -1.7060 -0.4595
   86CHL1  H15B 8790   5.996   5.850   7.810  0.5402  0.1065 -0.5939
   86CHL1   C16 8791   6.044   5.728   8.002 -0.2169  0.3079  0.4083
   86CHL1  H16A 8792   6.132   5.737   8.068  0.2537  1.5590 -0.3609
   86CHL1  H16B 8793   5.963   5.795   8.040  0.4965  2.1040 -1.1334
   86CHL1   C17 8794   6.004   5.577   7.988  0.0949  0.0776 -0.0015
   86CHL1   H17 8795   5.895   5.585   7.964 -0.1223 -0.6405  0.7428
   86CHL1   C13 8796   6.065   5.529   7.855  0.0665  0.6638  0.7938
   86CHL1   C18 8797   6.220   5.503   7.880 -0.1386 -0.2616 -0.3392
   86CHL1  H18A 8798   6.266   5.487   7.780 -1.2579  1.3686 -1.1445
   86CHL1  H18B 8799   6.255   5.599   7.925  0.8746 -1.3936  1.3001
   86CHL1  H18C 8800   6.230   5.414   7.945 -1.6978  0.6655  1.2122
   86CHL1   C12 8801   6.000   5.409   7.795 -0.5074 -0.1549 -0.0195
   86CHL1  H12A 8802   6.020   5.321   7.860 -0.1857  1.3887  2.0354
   86CHL1  H12B 8803   5.891   5.428   7.781 -0.4445  0.7813  0.7210
   86CHL1   C11 8804   6.051   5.392   7.649 -0.3538 -0.1391  0.5220
   86CHL1  H11A 8805   6.149   5.339   7.655  0.5625  1.4766 -0.0625
   86CHL1  H11B 8806   5.976   5.323   7.604 -2.6241  2.2623  0.5363
   86CHL1    C9 8807   6.059   5.522   7.566  0.0478  0.2101 -0.4194
   86CHL1    H9 8808   5.952   5.545   7.548 -1.0756 -3.0588  1.6338
   86CHL1   C10 8809   6.132   5.510   7.423  0.1894  0.0336 -0.2454
   86CHL1   C19 8810   6.277   5.469   7.450  0.5131 -0.4489  0.1181
   86CHL1  H19A 8811   6.331   5.554   7.496  0.8513 -0.7386  0.2561
   86CHL1  H19B 8812   6.284   5.387   7.524  0.2464  0.5164  1.2242
   86CHL1  H19C 8813   6.325   5.439   7.354  2.2004  1.5707  0.2915
   86CHL1    C1 8814   6.058   5.407   7.329  0.2664 -0.2061 -0.2132
   86CHL1   H1A 8815   6.087   5.303   7.357  1.7280  0.0722 -0.5940
   86CHL1   H1B 8816   5.948   5.420   7.330  0.2879  0.0259 -0.5894
   86CHL1    C2 8817   6.105   5.413   7.181  1.1256  0.3136 -0.4435
   86CHL1   H2A 8818   6.049   5.331   7.130 -1.9248 -0.1681  3.3707
   86CHL1   H2B 8819   6.212   5.383   7.175  0.5557 -1.8412 -0.3992
   86CHL1   C20 8820   6.022   5.495   8.112  0.9619 -0.2950  0.8193
   86CHL1   H20 8821   6.128   5.462   8.123  1.9208  2.4948  0.4513
   86CHL1   C21 8822   5.933   5.368   8.115 -0.6458 -0.5186 -0.9348
   86CHL1  H21A 8823   5.830   5.385   8.077  0.1929 -0.2967 -3.2186
   86CHL1  H21B 8824   5.932   5.320   8.215 -0.6813  1.8094  0.2147
   86CHL1  H21C 8825   5.973   5.287   8.050  0.3149 -1.2356  0.5312
   86CHL1   C22 8826   5.980   5.577   8.244  0.0292  0.1383 -0.2568
   86CHL1  H22A 8827   5.989   5.520   8.339  2.3172  1.7029  0.5122
   86CHL1  H22B 8828   6.036   5.673   8.252 -0.3520  0.1736  2.8095
   86CHL1   C23 8829   5.825   5.625   8.245 -0.7121 -0.1110  0.5511
   86CHL1  H23A 8830   5.807   5.684   8.153 -0.4865  0.3708  0.8174
   86CHL1  H23B 8831   5.754   5.540   8.236 -1.4729  0.3020  2.2903
   86CHL1   C24 8832   5.791   5.723   8.364  0.3200  0.0274  0.1914
   86CHL1  H24A 8833   5.875   5.796   8.357 -1.4851  2.5010  2.9985
   86CHL1  H24B 8834   5.694   5.770   8.339  2.4789  2.6219 -3.9054
   86CHL1   C25 8835   5.794   5.661   8.503 -0.6261 -0.8275 -0.1541
   86CHL1   H25 8836   5.897   5.628   8.527  0.4232  2.3741  0.0455
   86CHL1   C26 8837   5.753   5.772   8.606 -0.3198  0.1158  0.2945
   86CHL1  H26A 8838   5.642   5.785   8.603 -0.2592  0.4551 -0.3767
   86CHL1  H26B 8839   5.779   5.741   8.710  0.0352 -1.1768 -0.1777
   86CHL1  H26C 8840   5.809   5.867   8.597 -0.7414  0.1078 -2.7621
   86CHL1   C27 8841   5.694   5.546   8.522  1.1438  0.5093 -0.3794
   86CHL1  H27A 8842   5.597   5.574   8.475 -0.2129  0.9386  2.5722
   86CHL1  H27B 8843   5.740   5.456   8.477  1.2328 -0.8819  2.3556
   86CHL1  H27C 8844   5.683   5.520   8.630  0.5621 -2.9316 -1.2181
   87CHL1    C3 8845   6.045   3.877   7.088  0.4116 -0.9243  0.2164
   87CHL1    H3 8846   6.097   3.972   7.061  0.8703 -1.7511 -1.9103
   87CHL1    O3 8847   5.998   3.832   6.961 -0.0223 -0.3928 -0.0739
   87CHL1   H3' 8848   5.907   3.860   6.953 -0.1480 -0.5189  0.9227
   87CHL1    C4 8849   6.132   3.775   7.162  0.2131 -0.3340  0.0205
   87CHL1   H4A 8850   6.066   3.688   7.185 -0.7943  0.6114  0.7835
   87CHL1   H4B 8851   6.207   3.730   7.094 -1.1481 -0.1503 -1.6482
   87CHL1    C5 8852   6.183   3.822   7.294  1.1870  0.3362 -0.1414
   87CHL1    C6 8853   6.316   3.840   7.323 -0.3329 -0.3950  0.0274
   87CHL1    H6 8854   6.392   3.805   7.252 -0.8771  0.4705 -0.9832
   87CHL1    C7 8855   6.363   3.886   7.455 -0.6562  0.6204  0.4176
   87CHL1   H7A 8856   6.453   3.828   7.486 -0.7624  0.2924  0.1131
   87CHL1   H7B 8857   6.402   3.987   7.427 -0.9544  0.2835 -1.2578
   87CHL1    C8 8858   6.266   3.903   7.571 -0.3854 -0.0099  0.1641
   87CHL1    H8 8859   6.254   3.801   7.612 -0.1988  0.1761  0.6826
   87CHL1   C14 8860   6.321   4.001   7.678  0.1553  0.6402 -0.8426
   87CHL1   H14 8861   6.308   4.102   7.633  2.6340  0.5292 -1.9091
   87CHL1   C15 8862   6.462   3.992   7.738  0.9895  0.9848  1.0745
   87CHL1  H15A 8863   6.493   3.886   7.749  1.8506  0.7745 -2.7638
   87CHL1  H15B 8864   6.550   4.033   7.685 -0.3776 -1.5694 -3.4491
   87CHL1   C16 8865   6.452   4.058   7.878  0.0675  0.2297 -0.8952
   87CHL1  H16A 8866   6.497   3.986   7.950  1.3300  1.1368 -0.7707
   87CHL1  H16B 8867   6.502   4.156   7.888 -0.2799  0.4513 -1.3146
   87CHL1   C17 8868   6.300   4.083   7.892 -0.2702 -0.3194 -0.3156
   87CHL1   H17 8869   6.288   4.182   7.843 -1.3870  0.4688  1.4924
   87CHL1   C13 8870   6.221   3.998   7.805 -0.2269  0.1455 -0.0568
   87CHL1   C18 8871   6.211   3.856   7.862 -0.8442 -0.2686 -0.1760
   87CHL1  H18A 8872   6.143   3.857   7.950  0.5274  2.5021  0.9091
   87CHL1  H18B 8873   6.154   3.790   7.794  0.0866 -0.2166 -1.0160
   87CHL1  H18C 8874   6.313   3.826   7.897 -0.2311  2.8069  0.7929
   87CHL1   C12 8875   6.079   4.045   7.767 -0.2841  0.2418  0.2749
   87CHL1  H12A 8876   6.010   4.026   7.852 -0.8443  1.2855  0.0494
   87CHL1  H12B 8877   6.080   4.155   7.756  1.4089  0.2314  0.1809
   87CHL1   C11 8878   6.024   3.965   7.640  0.0289 -0.8487 -0.1035
   87CHL1  H11A 8879   5.997   3.861   7.667 -1.2805  0.5063  4.1862
   87CHL1  H11B 8880   5.933   4.019   7.606 -0.1830 -0.0508  1.6436
   87CHL1    C9 8881   6.129   3.952   7.527 -0.0419 -0.0213 -0.0113
   87CHL1    H9 8882   6.148   4.056   7.494  3.8114 -1.0206 -1.2733
   87CHL1   C10 8883   6.075   3.873   7.399  0.4693  0.1568  0.0691
   87CHL1   C19 8884   5.991   3.751   7.444 -0.0478  0.5139 -0.1985
   87CHL1  H19A 8885   6.060   3.688   7.504  0.3652  1.2499  0.1046
   87CHL1  H19B 8886   5.912   3.777   7.517  0.1417 -0.8086  0.4932
   87CHL1  H19C 8887   5.942   3.705   7.355 -0.0824 -3.8957  1.9446
   87CHL1    C1 8888   5.978   3.966   7.316 -0.5539  0.7261 -0.5659
   87CHL1   H1A 8889   5.901   4.006   7.385 -0.6775  0.2650 -0.4331
   87CHL1   H1B 8890   6.039   4.058   7.303 -0.8603  0.9332 -0.5447
   87CHL1    C2 8891   5.921   3.908   7.183 -0.3068  0.6013 -0.3069
   87CHL1   H2A 8892   5.846   3.976   7.136 -0.2368  0.1473 -1.0817
   87CHL1   H2B 8893   5.864   3.814   7.196  2.7538 -1.2509  0.0867
   87CHL1   C20 8894   6.258   4.095   8.039  0.0344  0.1721  0.2131
   87CHL1   H20 8895   6.147   4.101   8.032  0.0483 -0.1472 -0.2528
   87CHL1   C21 8896   6.307   4.226   8.101  0.4431  0.1265  0.5867
   87CHL1  H21A 8897   6.254   4.317   8.066 -0.1288 -0.4833 -0.1466
   87CHL1  H21B 8898   6.417   4.241   8.090  0.5379 -0.7429  0.3531
   87CHL1  H21C 8899   6.296   4.212   8.211 -0.7458  0.2466  0.4881
   87CHL1   C22 8900   6.283   3.982   8.138 -0.5124 -0.8403 -0.2641
   87CHL1  H22A 8901   6.295   3.884   8.087  2.7692  0.2534 -1.7148
   87CHL1  H22B 8902   6.376   3.992   8.198 -0.0493 -1.2157 -0.9192
   87CHL1   C23 8903   6.168   3.965   8.238  0.3154  0.3383 -0.2708
   87CHL1  H23A 8904   6.182   4.047   8.311 -1.9920  0.4740  0.0480
   87CHL1  H23B 8905   6.072   3.970   8.184 -0.4388  2.4843  1.2076
   87CHL1   C24 8906   6.187   3.834   8.316 -0.4471  1.0778 -0.9792
   87CHL1  H24A 8907   6.277   3.835   8.382 -0.4895  0.1215 -0.9090
   87CHL1  H24B 8908   6.107   3.837   8.393  0.9163 -1.7723  0.6397
   87CHL1   C25 8909   6.187   3.703   8.238  0.7804 -0.5920 -0.0881
   87CHL1   H25 8910   6.258   3.702   8.153 -0.1774 -0.1126 -0.9008
   87CHL1   C26 8911   6.216   3.581   8.330 -0.3158 -0.6077 -0.5807
   87CHL1  H26A 8912   6.215   3.481   8.280 -0.3959 -0.1108 -1.5915
   87CHL1  H26B 8913   6.320   3.590   8.367  0.6255 -2.3886 -2.6410
   87CHL1  H26C 8914   6.151   3.579   8.420  1.5523 -0.9294  0.8147
   87CHL1   C27 8915   6.046   3.681   8.181 -0.0805 -0.1666  0.1791
   87CHL1  H27A 8916   6.066   3.608   8.099 -0.6965  1.2304 -1.2370
   87CHL1  H27B 8917   5.982   3.630   8.256 -1.6847  1.4465 -0.0555
   87CHL1  H27C 8918   6.004   3.777   8.145 -1.0675 -0.4220  0.6478
   88CHL1    C3 8919   3.912   2.887   6.954  0.6339  0.2577  0.3474
   88CHL1    H3 8920   4.010   2.914   6.997 -0.3188  0.0011  2.7371
   88CHL1    O3 8921   3.921   2.854   6.813  0.2742  0.9190  0.2959
   88CHL1   H3' 8922   3.899   2.933   6.764  1.1044  1.0837  0.1782
   88CHL1    C4 8923   3.857   2.765   7.036  0.0872  0.4870  0.2021
   88CHL1   H4A 8924   3.763   2.734   6.986  0.6694 -0.2097 -0.4593
   88CHL1   H4B 8925   3.925   2.679   7.018 -2.5324 -0.9818 -3.2362
   88CHL1    C5 8926   3.830   2.799   7.179  0.0019 -0.1263  0.5402
   88CHL1    C6 8927   3.894   2.731   7.274  0.2523  0.4100 -0.6763
   88CHL1    H6 8928   3.957   2.645   7.248 -3.0274 -3.2000  2.5390
   88CHL1    C7 8929   3.868   2.759   7.425  0.0373  0.0001 -0.3725
   88CHL1   H7A 8930   3.834   2.663   7.470 -0.5837 -0.2235 -1.2945
   88CHL1   H7B 8931   3.957   2.798   7.478 -0.1125 -2.3888  1.7420
   88CHL1    C8 8932   3.750   2.856   7.447  0.4214 -0.0317 -0.2986
   88CHL1    H8 8933   3.656   2.796   7.440 -0.2646  1.0571 -0.6166
   88CHL1   C14 8934   3.763   2.907   7.596  1.0465 -0.4328  0.4421
   88CHL1   H14 8935   3.858   2.964   7.608  1.1272 -0.8662  1.9870
   88CHL1   C15 8936   3.765   2.806   7.712  0.1151  0.7433  0.6698
   88CHL1  H15A 8937   3.676   2.741   7.694  1.2527 -0.2776 -1.5454
   88CHL1  H15B 8938   3.854   2.739   7.712 -0.1266  0.2879 -2.7591
   88CHL1   C16 8939   3.741   2.899   7.836 -0.3210 -0.0541 -0.5106
   88CHL1  H16A 8940   3.647   2.862   7.883 -0.0742 -3.4050 -2.4489
   88CHL1  H16B 8941   3.825   2.897   7.909  1.5163 -0.2214 -2.5787
   88CHL1   C17 8942   3.705   3.036   7.783 -0.0436 -0.6143 -0.3183
   88CHL1   H17 8943   3.799   3.096   7.776  0.2281 -1.0887 -0.8182
   88CHL1   C13 8944   3.657   3.008   7.635 -0.3236  0.1925  0.1276
   88CHL1   C18 8945   3.510   2.943   7.634 -0.3933 -0.8810 -1.0064
   88CHL1  H18A 8946   3.497   2.874   7.720 -0.3946  1.3948  0.8678
   88CHL1  H18B 8947   3.432   3.019   7.655 -0.1373 -0.8853  0.0017
   88CHL1  H18C 8948   3.498   2.903   7.531 -0.6884 -0.3449 -1.1825
   88CHL1   C12 8949   3.667   3.125   7.537 -0.1238 -0.6146 -0.5625
   88CHL1  H12A 8950   3.586   3.197   7.558 -2.4424 -3.1700 -0.4004
   88CHL1  H12B 8951   3.766   3.169   7.561 -1.3514  1.7017  0.3568
   88CHL1   C11 8952   3.661   3.088   7.388  0.4789  0.0281 -0.4541
   88CHL1  H11A 8953   3.563   3.038   7.371  1.4142 -2.2235  0.6164
   88CHL1  H11B 8954   3.667   3.177   7.322 -0.0922  0.2355 -0.2362
   88CHL1    C9 8955   3.757   2.973   7.348  0.1020  0.2793  0.2876
   88CHL1    H9 8956   3.859   3.015   7.359  1.1094 -1.6471 -1.2534
   88CHL1   C10 8957   3.741   2.917   7.205  0.6472  0.1667  0.3295
   88CHL1   C19 8958   3.599   2.867   7.173  0.4175 -0.1130  0.5065
   88CHL1  H19A 8959   3.519   2.941   7.193  0.2123  0.4977 -2.3015
   88CHL1  H19B 8960   3.590   2.850   7.064 -0.0033  0.6390  0.4202
   88CHL1  H19C 8961   3.576   2.767   7.216 -0.8550 -0.2639 -0.5169
   88CHL1    C1 8962   3.771   3.033   7.109 -0.8028 -0.1741 -0.0736
   88CHL1   H1A 8963   3.683   3.100   7.103  2.1956  3.8008 -1.5628
   88CHL1   H1B 8964   3.854   3.097   7.146 -1.7502  0.6432  0.6645
   88CHL1    C2 8965   3.804   2.995   6.962 -0.5041  0.3913  0.4229
   88CHL1   H2A 8966   3.817   3.088   6.903 -1.7617  0.3759  0.1124
   88CHL1   H2B 8967   3.709   2.948   6.928 -0.1651  0.6288 -0.8935
   88CHL1   C20 8968   3.603   3.104   7.876 -0.5473 -0.3611 -0.3315
   88CHL1   H20 8969   3.509   3.047   7.889 -1.6243  1.8183  1.6355
   88CHL1   C21 8970   3.576   3.241   7.818  0.4803 -0.1429 -0.1083
   88CHL1  H21A 8971   3.509   3.293   7.889 -0.7206 -3.3159  1.1425
   88CHL1  H21B 8972   3.518   3.248   7.723 -0.9326 -0.9632  0.6942
   88CHL1  H21C 8973   3.665   3.307   7.808 -1.2608  2.4518  0.9849
   88CHL1   C22 8974   3.647   3.125   8.024 -0.0701 -0.1893  0.2336
   88CHL1  H22A 8975   3.711   3.038   8.050  2.9926  1.9693  0.1565
   88CHL1  H22B 8976   3.714   3.213   8.011  0.8711 -0.8564  0.5253
   88CHL1   C23 8977   3.542   3.139   8.135  0.5181  0.1003 -0.1961
   88CHL1  H23A 8978   3.460   3.201   8.093  1.2999  1.1745 -0.1504
   88CHL1  H23B 8979   3.488   3.042   8.146 -1.8892  1.3276 -0.7381
   88CHL1   C24 8980   3.593   3.198   8.270 -0.8664 -0.1822  0.0039
   88CHL1  H24A 8981   3.666   3.131   8.321  1.3648  1.8364 -0.4579
   88CHL1  H24B 8982   3.644   3.292   8.241 -1.1348  0.6490  2.1568
   88CHL1   C25 8983   3.479   3.227   8.373 -0.2958  0.6860 -0.7018
   88CHL1   H25 8984   3.433   3.129   8.397 -0.1007  0.3298 -1.7674
   88CHL1   C26 8985   3.542   3.277   8.500  0.1032  0.0492  0.1598
   88CHL1  H26A 8986   3.592   3.199   8.561 -1.1948  0.7839  2.1941
   88CHL1  H26B 8987   3.615   3.358   8.481 -0.1511  0.2830  0.1889
   88CHL1  H26C 8988   3.462   3.320   8.563  0.9999  0.1113  1.2711
   88CHL1   C27 8989   3.374   3.328   8.335 -0.1036  0.5578  0.6779
   88CHL1  H27A 8990   3.303   3.276   8.268 -0.2047  0.4225  0.8889
   88CHL1  H27B 8991   3.307   3.361   8.417 -2.1367  0.5935 -0.9737
   88CHL1  H27C 8992   3.427   3.418   8.295  2.6626 -0.9850  0.7148
   89CHL1    C3 8993   6.812   5.077   6.990  0.2556 -0.2135 -0.2649
   89CHL1    H3 8994   6.893   5.023   7.043 -1.1298 -2.1864 -0.0991
   89CHL1    O3 8995   6.842   5.071   6.847 -0.0622  0.4282 -0.1791
   89CHL1   H3' 8996   6.766   5.106   6.799 -0.0456  2.5379  1.2257
   89CHL1    C4 8997   6.676   5.010   7.021  0.8374  0.1632  0.2014
   89CHL1   H4A 8998   6.594   5.065   6.971  0.6907 -0.0660  0.1897
   89CHL1   H4B 8999   6.666   4.907   6.982 -2.4951  0.4357  0.2033
   89CHL1    C5 9000   6.639   5.016   7.171 -0.1162 -0.2489  0.4746
   89CHL1    C6 9001   6.602   4.900   7.230 -1.2748 -0.0572 -0.4127
   89CHL1    H6 9002   6.605   4.806   7.173  1.6352  0.2892 -0.9134
   89CHL1    C7 9003   6.570   4.891   7.375 -0.4978  0.0117  0.4384
   89CHL1   H7A 9004   6.473   4.839   7.392 -0.4145  0.5991  3.0005
   89CHL1   H7B 9005   6.643   4.822   7.422 -1.5592 -1.0232  0.6048
   89CHL1    C8 9006   6.553   5.031   7.441  0.0414  0.4898  0.8270
   89CHL1    H8 9007   6.454   5.074   7.416  1.2268  2.9441  0.1552
   89CHL1   C14 9008   6.574   5.009   7.591 -0.0757 -0.5362 -0.3716
   89CHL1   H14 9009   6.684   4.991   7.598  0.6677  3.2571 -1.3533
   89CHL1   C15 9010   6.494   4.885   7.661  0.2540  0.0259  0.0181
   89CHL1  H15A 9011   6.388   4.889   7.628 -0.0657 -0.4584  0.9510
   89CHL1  H15B 9012   6.537   4.783   7.647 -1.5568 -0.6675 -0.7345
   89CHL1   C16 9013   6.513   4.916   7.808 -0.6417 -0.3193  0.5331
   89CHL1  H16A 9014   6.411   4.929   7.850 -0.9402  2.0914 -0.8523
   89CHL1  H16B 9015   6.572   4.844   7.870 -0.4518 -0.6118  0.0216
   89CHL1   C17 9016   6.579   5.058   7.817 -0.2227 -0.1765 -0.1539
   89CHL1   H17 9017   6.690   5.051   7.821 -0.1821  0.5842  0.3715
   89CHL1   C13 9018   6.558   5.130   7.681  0.5860 -0.3591 -0.7069
   89CHL1   C18 9019   6.413   5.178   7.663 -0.1252  0.2919  0.1978
   89CHL1  H18A 9020   6.395   5.271   7.721  1.7050  0.9253 -0.2011
   89CHL1  H18B 9021   6.390   5.212   7.560  0.7396  1.1256  0.2726
   89CHL1  H18C 9022   6.346   5.102   7.710 -0.1534  0.8970  1.1562
   89CHL1   C12 9023   6.657   5.240   7.631 -0.2311  0.5998 -0.2834
   89CHL1  H12A 9024   6.629   5.338   7.676 -0.4031  1.0527 -1.3543
   89CHL1  H12B 9025   6.756   5.204   7.665 -0.1209 -1.0184 -2.2765
   89CHL1   C11 9026   6.649   5.270   7.479 -0.0022  0.1928 -0.3333
   89CHL1  H11A 9027   6.560   5.328   7.449  0.9704  1.5678 -0.5982
   89CHL1  H11B 9028   6.734   5.339   7.460 -0.1082  0.3056 -0.3974
   89CHL1    C9 9029   6.657   5.138   7.389  0.1882  0.0826 -0.3179
   89CHL1    H9 9030   6.751   5.083   7.412 -2.0914 -3.0968  1.8578
   89CHL1   C10 9031   6.649   5.160   7.234  0.7538 -0.0811  0.4056
   89CHL1   C19 9032   6.538   5.256   7.202 -0.0919 -0.6451 -0.1858
   89CHL1  H19A 9033   6.565   5.358   7.238  0.6935 -1.5560  1.8660
   89CHL1  H19B 9034   6.532   5.256   7.091  0.6260 -0.6216 -0.2219
   89CHL1  H19C 9035   6.437   5.221   7.234  1.0748 -2.0866  2.0611
   89CHL1    C1 9036   6.778   5.223   7.180  0.4412  0.3263 -0.6664
   89CHL1   H1A 9037   6.794   5.325   7.222  2.0429 -0.5077  0.8347
   89CHL1   H1B 9038   6.857   5.164   7.231  2.1324  1.3972 -1.9768
   89CHL1    C2 9039   6.813   5.226   7.033  0.0588  0.1455  0.6577
   89CHL1   H2A 9040   6.913   5.273   7.017  1.7597 -2.4054  3.2096
   89CHL1   H2B 9041   6.744   5.280   6.965 -0.2145  0.0717  0.8749
   89CHL1   C20 9042   6.527   5.129   7.946 -0.3173  0.6066  0.3787
   89CHL1   H20 9043   6.418   5.143   7.925 -0.4236 -1.6577 -0.8070
   89CHL1   C21 9044   6.605   5.255   7.963  0.0137 -0.4027  0.8088
   89CHL1  H21A 9045   6.714   5.237   7.963  0.2809  1.2142  0.6370
   89CHL1  H21B 9046   6.576   5.306   8.057  0.2446  1.4573 -0.1225
   89CHL1  H21C 9047   6.580   5.322   7.878  1.0839  1.4292  1.9252
   89CHL1   C22 9048   6.539   5.041   8.072 -0.1814  0.2506 -0.2590
   89CHL1  H22A 9049   6.482   4.947   8.055  1.0784 -0.2019 -2.3011
   89CHL1  H22B 9050   6.649   5.025   8.073 -0.1104  0.6915  2.3234
   89CHL1   C23 9051   6.485   5.085   8.209 -0.1110  0.1361  0.2649
   89CHL1  H23A 9052   6.523   5.025   8.294 -1.6569 -0.5842  0.4646
   89CHL1  H23B 9053   6.525   5.188   8.222 -2.9472  1.1636  1.3627
   89CHL1   C24 9054   6.333   5.093   8.214  0.1930 -0.0617  0.3396
   89CHL1  H24A 9055   6.295   5.184   8.162  1.5959 -0.1197 -0.8157
   89CHL1  H24B 9056   6.286   5.003   8.170 -1.0197  1.0908 -0.7952
   89CHL1   C25 9057   6.279   5.104   8.364 -0.5944 -0.1798  0.7888
   89CHL1   H25 9058   6.338   5.187   8.408 -2.2992 -0.2659  3.3312
   89CHL1   C26 9059   6.129   5.145   8.375  0.0854 -0.6144  0.3229
   89CHL1  H26A 9060   6.070   5.062   8.330  1.5068 -2.0059  1.0049
   89CHL1  H26B 9061   6.105   5.163   8.482  0.3958 -1.9203  0.6138
   89CHL1  H26C 9062   6.119   5.244   8.325 -1.4061 -0.9104  0.0078
   89CHL1   C27 9063   6.294   4.971   8.444  0.2613  0.1056 -0.2186
   89CHL1  H27A 9064   6.400   4.944   8.465 -0.6718 -1.7780  2.4541
   89CHL1  H27B 9065   6.255   4.983   8.548 -0.9625  1.2590 -0.8068
   89CHL1  H27C 9066   6.244   4.888   8.390 -1.6505 -0.5237  2.3908
   90CHL1    C3 9067   0.036   0.390   6.686 -0.0078  0.2433 -0.4861
   90CHL1    H3 9068  -0.022   0.478   6.720  1.1668  0.7217  0.2952
   90CHL1    O3 9069   0.039   0.385   6.542  0.0217  0.1520  0.4923
   90CHL1   H3' 9070   0.074   0.297   6.525 -2.5985 -1.4105  2.8055
   90CHL1    C4 9071   0.182   0.408   6.741 -0.1430 -0.1044 -0.0368
   90CHL1   H4A 9072   0.230   0.314   6.708 -0.4675  0.0909 -1.0778
   90CHL1   H4B 9073   0.241   0.492   6.699 -1.8411  0.3697 -1.5675
   90CHL1    C5 9074   0.183   0.402   6.896 -0.4851  0.0478  0.0926
   90CHL1    C6 9075   0.241   0.494   6.965 -0.7718  0.3232 -0.0877
   90CHL1    H6 9076   0.294   0.574   6.910 -0.8644 -1.1709 -2.4106
   90CHL1    C7 9077   0.258   0.495   7.112 -0.2344  0.0346 -0.4243
   90CHL1   H7A 9078   0.359   0.525   7.146 -1.2791  0.6758  2.2428
   90CHL1   H7B 9079   0.196   0.581   7.146 -0.9574 -1.5674  2.4487
   90CHL1    C8 9080   0.222   0.358   7.180  0.3264  0.5204 -0.2677
   90CHL1    H8 9081   0.314   0.297   7.167 -0.3688  0.0727 -3.5340
   90CHL1   C14 9082   0.195   0.398   7.326  0.5737 -0.7612 -0.8070
   90CHL1   H14 9083   0.128   0.486   7.334  1.6898 -0.1463  2.5239
   90CHL1   C15 9084   0.315   0.448   7.400 -0.6281  0.0704  0.6487
   90CHL1  H15A 9085   0.404   0.383   7.383 -0.4924 -0.3357  2.7668
   90CHL1  H15B 9086   0.346   0.554   7.389 -0.3960 -0.0247  0.3889
   90CHL1   C16 9087   0.272   0.412   7.549 -0.0075  0.1570  0.0227
   90CHL1  H16A 9088   0.351   0.348   7.595  0.6386  0.3028 -0.8637
   90CHL1  H16B 9089   0.265   0.502   7.613 -1.4498  0.0427  0.0344
   90CHL1   C17 9090   0.136   0.343   7.541 -0.4575 -0.0991 -0.0620
   90CHL1   H17 9091   0.054   0.419   7.534 -0.4325  0.4962  4.4750
   90CHL1   C13 9092   0.142   0.282   7.403 -0.4340 -0.6020  0.5315
   90CHL1   C18 9093   0.235   0.158   7.408  0.1664 -0.6512  0.1611
   90CHL1  H18A 9094   0.198   0.076   7.473 -0.1455 -1.4476 -1.0128
   90CHL1  H18B 9095   0.263   0.112   7.310  0.6306 -1.0154  0.4617
   90CHL1  H18C 9096   0.339   0.180   7.441  0.4140  0.3674 -1.2295
   90CHL1   C12 9097   0.003   0.242   7.334 -0.6886 -0.4551 -0.4988
   90CHL1  H12A 9098  -0.048   0.164   7.396 -0.2116 -2.0132 -2.0121
   90CHL1  H12B 9099  -0.054   0.336   7.344  0.2688 -0.0562  1.5202
   90CHL1   C11 9100   0.029   0.192   7.191  0.3552 -0.4591 -0.9088
   90CHL1  H11A 9101   0.100   0.106   7.192 -1.2586 -1.8332 -2.1171
   90CHL1  H11B 9102  -0.065   0.158   7.143 -0.2079 -1.8408  1.1162
   90CHL1    C9 9103   0.099   0.304   7.109 -0.4184 -0.1257  0.0016
   90CHL1    H9 9104   0.018   0.380   7.106  0.0591  0.4193  1.0007
   90CHL1   C10 9105   0.113   0.282   6.959 -0.7009 -0.6581 -0.6225
   90CHL1   C19 9106   0.203   0.149   6.945 -0.0814  0.3712  0.4893
   90CHL1  H19A 9107   0.235   0.137   6.839  0.1986 -0.4573  0.6627
   90CHL1  H19B 9108   0.298   0.163   7.001 -0.0855  0.3085  0.5119
   90CHL1  H19C 9109   0.142   0.064   6.981 -0.3257  0.6132  0.6457
   90CHL1    C1 9110  -0.025   0.270   6.894 -0.4964  0.1911  0.0353
   90CHL1   H1A 9111  -0.066   0.170   6.921 -2.2996  0.9615  0.2027
   90CHL1   H1B 9112  -0.091   0.353   6.927 -0.2984  0.3066  0.1389
   90CHL1    C2 9113  -0.022   0.259   6.744  0.1070 -0.2810 -0.1834
   90CHL1   H2A 9114  -0.122   0.243   6.700  1.1078 -0.7379 -2.3463
   90CHL1   H2B 9115   0.043   0.175   6.711  2.9592  0.5110  3.0756
   90CHL1   C20 9116   0.114   0.255   7.663  0.6179 -0.4462 -0.1096
   90CHL1   H20 9117   0.195   0.179   7.669  1.6463  0.7646  1.8558
   90CHL1   C21 9118  -0.022   0.180   7.663 -0.1299 -0.2611  0.1331
   90CHL1  H21A 9119  -0.109   0.243   7.633  1.4977  2.0809  0.1897
   90CHL1  H21B 9120  -0.052   0.122   7.753 -1.1964 -1.0163 -0.6923
   90CHL1  H21C 9121  -0.002   0.103   7.586 -0.3664  0.9595 -1.1719
   90CHL1   C22 9122   0.112   0.338   7.800 -0.9490  0.7086  0.5352
   90CHL1  H22A 9123   0.205   0.399   7.801  0.7625 -1.8279  0.8917
   90CHL1  H22B 9124   0.023   0.402   7.815  0.7110  3.4077 -0.7608
   90CHL1   C23 9125   0.142   0.262   7.930 -0.5253  0.9930 -0.6379
   90CHL1  H23A 9126   0.062   0.190   7.958  1.7699 -0.1447  3.3892
   90CHL1  H23B 9127   0.236   0.206   7.908 -1.1196 -0.1561 -0.2958
   90CHL1   C24 9128   0.183   0.352   8.051  0.1906 -0.8802 -1.2428
   90CHL1  H24A 9129   0.249   0.435   8.020  2.2598 -2.3624 -0.9065
   90CHL1  H24B 9130   0.083   0.386   8.085  0.9599  0.3610 -0.1833
   90CHL1   C25 9131   0.249   0.267   8.166  0.5528 -0.1969  0.0848
   90CHL1   H25 9132   0.352   0.244   8.132  0.3832 -1.5618  0.4580
   90CHL1   C26 9133   0.264   0.347   8.296 -0.1032  1.1029  0.3819
   90CHL1  H26A 9134   0.161   0.368   8.332  0.4451 -0.5563  3.1036
   90CHL1  H26B 9135   0.307   0.290   8.381  0.6284  3.8556  1.9238
   90CHL1  H26C 9136   0.319   0.443   8.288  0.7594  0.7606  1.8757
   90CHL1   C27 9137   0.171   0.146   8.215  0.0876 -0.2309  0.4246
   90CHL1  H27A 9138   0.164   0.078   8.127  0.8323 -0.2344  0.3585
   90CHL1  H27B 9139   0.229   0.103   8.300  0.4687  1.6563  1.1370
   90CHL1  H27C 9140   0.071   0.165   8.258  0.6031  1.5127  0.8955
   91CHL1    C3 9141   1.201   1.440   7.198 -0.0627 -0.8375 -0.3658
   91CHL1    H3 9142   1.296   1.495   7.216 -0.8608  1.0685 -1.7587
   91CHL1    O3 9143   1.169   1.445   7.062  0.4392  0.0462 -0.4713
   91CHL1   H3' 9144   1.117   1.369   7.036  0.0362  0.5257 -1.0533
   91CHL1    C4 9145   1.231   1.296   7.244 -0.4989  0.1853 -0.1550
   91CHL1   H4A 9146   1.152   1.222   7.217 -2.1816  2.0273 -0.3596
   91CHL1   H4B 9147   1.318   1.264   7.183  2.0321  0.3209  3.2570
   91CHL1    C5 9148   1.265   1.292   7.393 -0.0847 -0.9499  0.6610
   91CHL1    C6 9149   1.380   1.233   7.437  0.0668  0.0706  0.5758
   91CHL1    H6 9150   1.452   1.192   7.365 -2.2028 -2.0750 -0.5614
   91CHL1    C7 9151   1.415   1.225   7.580 -0.5116 -0.3627  0.0110
   91CHL1   H7A 9152   1.463   1.128   7.606  2.0687  0.7088 -0.5760
   91CHL1   H7B 9153   1.487   1.308   7.597 -0.0126 -0.6360 -0.7246
   91CHL1    C8 9154   1.290   1.249   7.668 -0.7691 -0.2449 -0.3726
   91CHL1    H8 9155   1.223   1.161   7.662 -1.1387  0.0562 -0.6923
   91CHL1   C14 9156   1.326   1.263   7.820  0.4459 -0.4162 -0.1046
   91CHL1   H14 9157   1.383   1.356   7.841 -0.4546 -0.3039  2.0145
   91CHL1   C15 9158   1.411   1.160   7.885 -0.1501  0.1782 -0.0053
   91CHL1  H15A 9159   1.383   1.053   7.873  1.9652 -0.6799  2.2020
   91CHL1  H15B 9160   1.521   1.162   7.867  0.2334 -0.1867  2.1600
   91CHL1   C16 9161   1.399   1.200   8.032 -0.3144 -0.3403  0.1804
   91CHL1  H16A 9162   1.385   1.110   8.095 -0.3058 -1.5289 -1.4815
   91CHL1  H16B 9163   1.495   1.242   8.070 -0.1402  0.3074 -0.9679
   91CHL1   C17 9164   1.278   1.296   8.052 -0.0181 -0.4203 -0.0685
   91CHL1   H17 9165   1.322   1.397   8.067 -0.1957  0.0058 -2.1488
   91CHL1   C13 9166   1.208   1.291   7.914 -0.4159  0.2011  0.2023
   91CHL1   C18 9167   1.116   1.165   7.909  0.3037  0.1571 -0.6938
   91CHL1  H18A 9168   1.074   1.154   7.807  0.0351  0.0827 -0.5747
   91CHL1  H18B 9169   1.182   1.077   7.925  1.7561  1.1915 -0.8295
   91CHL1  H18C 9170   1.036   1.167   7.987  0.3009 -2.0994 -0.6099
   91CHL1   C12 9171   1.138   1.419   7.869 -0.1497 -0.4479  0.4898
   91CHL1  H12A 9172   1.052   1.450   7.932 -1.5475  0.4142 -1.7666
   91CHL1  H12B 9173   1.219   1.495   7.877  0.1117 -0.6965  0.2464
   91CHL1   C11 9174   1.105   1.411   7.723  0.5271  0.0953 -0.1154
   91CHL1  H11A 9175   1.015   1.346   7.719  0.2810  0.3520  1.0095
   91CHL1  H11B 9176   1.065   1.512   7.697  1.4965  1.2022  2.4561
   91CHL1    C9 9177   1.214   1.371   7.624  0.1666  0.3255 -0.2448
   91CHL1    H9 9178   1.283   1.457   7.638 -2.2654  1.9774  2.3632
   91CHL1   C10 9179   1.165   1.371   7.481 -0.4003 -0.2780 -0.7681
   91CHL1   C19 9180   1.022   1.301   7.478 -0.8134  0.1560  0.2917
   91CHL1  H19A 9181   0.943   1.354   7.534  0.2008  1.7030  0.3014
   91CHL1  H19B 9182   0.983   1.281   7.376 -1.6344 -2.7364  1.1406
   91CHL1  H19C 9183   1.038   1.206   7.532 -1.3086  1.4294  2.7302
   91CHL1    C1 9184   1.146   1.517   7.435  0.1189  0.0431 -0.1644
   91CHL1   H1A 9185   1.066   1.557   7.500  0.5949 -3.0092  2.3855
   91CHL1   H1B 9186   1.238   1.576   7.455 -1.3112  1.8499  1.2023
   91CHL1    C2 9187   1.102   1.527   7.291 -0.2697  0.4646  0.5000
   91CHL1   H2A 9188   1.102   1.634   7.262  1.1998  0.5202  0.6487
   91CHL1   H2B 9189   0.997   1.496   7.273 -0.0330  0.6952 -1.4083
   91CHL1   C20 9190   1.185   1.270   8.174  0.0332 -0.6285 -0.2930
   91CHL1   H20 9191   1.142   1.168   8.175  1.1458 -1.1214 -1.4365
   91CHL1   C21 9192   1.069   1.372   8.197 -0.3416  0.2025  0.2511
   91CHL1  H21A 9193   1.112   1.474   8.207  0.0074  0.2441 -1.4000
   91CHL1  H21B 9194   1.007   1.341   8.283  0.1800 -2.9280 -0.4520
   91CHL1  H21C 9195   1.000   1.362   8.111  1.3155 -0.0167 -1.0954
   91CHL1   C22 9196   1.278   1.280   8.302 -0.7848  0.5577 -0.0019
   91CHL1  H22A 9197   1.334   1.184   8.303 -1.1077  0.3680  0.3213
   91CHL1  H22B 9198   1.360   1.354   8.298 -0.4564  0.1040 -3.9269
   91CHL1   C23 9199   1.203   1.279   8.433  0.1492  0.3331  0.5513
   91CHL1  H23A 9200   1.148   1.375   8.441 -2.1385 -1.0399  1.8769
   91CHL1  H23B 9201   1.127   1.197   8.435 -1.0279  1.3601 -1.1530
   91CHL1   C24 9202   1.306   1.265   8.547 -0.4940  0.0840 -0.4604
   91CHL1  H24A 9203   1.368   1.173   8.538 -0.3477 -0.0258  1.5079
   91CHL1  H24B 9204   1.377   1.350   8.539  0.3577 -0.8061 -2.8995
   91CHL1   C25 9205   1.240   1.256   8.684  0.0887 -0.4120  0.7128
   91CHL1   H25 9206   1.175   1.346   8.698  0.8159  0.4364 -1.1871
   91CHL1   C26 9207   1.162   1.135   8.700  0.5389  0.1840  0.2206
   91CHL1  H26A 9208   1.231   1.048   8.690  0.7311  0.3977 -0.3585
   91CHL1  H26B 9209   1.104   1.141   8.795 -0.5049  1.4756 -0.4768
   91CHL1  H26C 9210   1.082   1.130   8.623  0.7396 -4.6471  0.1596
   91CHL1   C27 9211   1.352   1.264   8.786 -0.2288  0.4854  0.1532
   91CHL1  H27A 9212   1.312   1.236   8.886 -1.2739  1.9606  0.1690
   91CHL1  H27B 9213   1.442   1.202   8.769 -1.2353 -1.1217  0.5246
   91CHL1  H27C 9214   1.382   1.370   8.782  1.3290  0.0598  0.3167
   92CHL1    C3 9215   3.952   3.377   6.765 -0.0035 -0.0050 -0.3314
   92CHL1    H3 9216   3.882   3.292   6.781  0.1764 -0.2339 -0.7532
   92CHL1    O3 9217   3.985   3.397   6.630  0.1946 -0.1283  0.2151
   92CHL1   H3' 9218   3.913   3.444   6.587  2.1101  1.6519 -1.1622
   92CHL1    C4 9219   3.891   3.501   6.822  0.9224 -0.0455 -0.3382
   92CHL1   H4A 9220   3.962   3.585   6.802  1.9133 -1.0803 -1.2624
   92CHL1   H4B 9221   3.800   3.518   6.761 -0.9914  1.0374  2.7456
   92CHL1    C5 9222   3.870   3.493   6.970  0.0413 -0.2159  0.1059
   92CHL1    C6 9223   3.743   3.482   7.014  0.1437  0.3390 -0.1907
   92CHL1    H6 9224   3.663   3.511   6.945 -1.4002 -1.3469  0.8483
   92CHL1    C7 9225   3.698   3.469   7.157  0.3071  0.4454 -0.2477
   92CHL1   H7A 9226   3.619   3.543   7.182 -0.0268  0.0906 -0.2562
   92CHL1   H7B 9227   3.649   3.373   7.182 -2.5459  2.3846  1.9426
   92CHL1    C8 9228   3.819   3.503   7.252  0.7569  0.2318 -0.1092
   92CHL1    H8 9229   3.847   3.611   7.249  0.6634  0.2223 -1.2475
   92CHL1   C14 9230   3.798   3.489   7.399 -0.1776 -0.1116 -0.0093
   92CHL1   H14 9231   3.780   3.379   7.401  1.0894 -0.3181  0.2641
   92CHL1   C15 9232   3.673   3.555   7.462 -0.0306 -0.3138  0.0544
   92CHL1  H15A 9233   3.666   3.659   7.422  1.5951  0.2731  1.2619
   92CHL1  H15B 9234   3.582   3.494   7.440 -1.0669  0.1518  2.8754
   92CHL1   C16 9235   3.707   3.552   7.610 -0.2648 -0.6189 -0.5701
   92CHL1  H16A 9236   3.718   3.657   7.646  1.2743 -0.4414 -1.5191
   92CHL1  H16B 9237   3.630   3.504   7.675  1.3662 -1.1302  1.0364
   92CHL1   C17 9238   3.841   3.483   7.625 -0.8009  0.6844 -0.2007
   92CHL1   H17 9239   3.810   3.377   7.630 -0.5939  0.6122 -0.4532
   92CHL1   C13 9240   3.920   3.505   7.491  0.9385 -0.6013 -0.0418
   92CHL1   C18 9241   3.969   3.652   7.474 -0.4629  0.4839  0.0361
   92CHL1  H18A 9242   4.050   3.663   7.549  0.1398 -0.5922 -0.4510
   92CHL1  H18B 9243   3.998   3.675   7.369 -0.3104  0.3840  0.0576
   92CHL1  H18C 9244   3.887   3.719   7.508 -0.1707  1.1293 -0.5153
   92CHL1   C12 9245   4.028   3.404   7.455 -0.4537  0.0437 -0.0717
   92CHL1  H12A 9246   4.120   3.413   7.517 -1.7827 -2.4345  2.3761
   92CHL1  H12B 9247   3.979   3.304   7.457  1.5718 -1.0186 -1.1094
   92CHL1   C11 9248   4.066   3.412   7.308 -0.2266 -0.0221 -0.2394
   92CHL1  H11A 9249   4.131   3.501   7.293  0.4344 -0.4951 -0.1986
   92CHL1  H11B 9250   4.130   3.327   7.276  0.0290  0.5297 -1.2167
   92CHL1    C9 9251   3.944   3.416   7.200  0.0299 -0.2516 -0.2595
   92CHL1    H9 9252   3.908   3.311   7.189  1.7210 -0.8122 -0.6857
   92CHL1   C10 9253   3.990   3.469   7.056 -0.0058  0.8170  0.3793
   92CHL1   C19 9254   4.079   3.595   7.065 -0.1884  0.2693  0.2398
   92CHL1  H19A 9255   4.094   3.640   6.965  1.5703  1.2882  0.9392
   92CHL1  H19B 9256   4.026   3.667   7.131  1.9516  2.0634  0.0379
   92CHL1  H19C 9257   4.178   3.574   7.111 -1.1878 -0.9342  1.9148
   92CHL1    C1 9258   4.060   3.346   6.987  1.0420  0.0035  0.6930
   92CHL1   H1A 9259   4.156   3.335   7.042  0.8736 -2.2602  0.5977
   92CHL1   H1B 9260   3.999   3.256   7.009  0.1102  0.1138 -1.3029
   92CHL1    C2 9261   4.085   3.348   6.830  0.4193 -0.0938  0.8319
   92CHL1   H2A 9262   4.114   3.255   6.777 -0.8315  0.4908 -0.9151
   92CHL1   H2B 9263   4.149   3.436   6.810  2.1647 -1.9889 -2.2228
   92CHL1   C20 9264   3.913   3.505   7.765 -0.2232 -0.0964  0.7320
   92CHL1   H20 9265   3.993   3.581   7.754 -0.3381  0.0193  0.6943
   92CHL1   C21 9266   3.989   3.373   7.805  0.1504 -0.0994  0.3123
   92CHL1  H21A 9267   3.908   3.300   7.829 -0.0179 -0.0858 -0.2013
   92CHL1  H21B 9268   4.046   3.391   7.898  0.0957  0.4466  0.2381
   92CHL1  H21C 9269   4.056   3.335   7.725 -2.3289  0.1294 -1.9487
   92CHL1   C22 9270   3.823   3.548   7.875  0.1550 -0.0499 -0.9275
   92CHL1  H22A 9271   3.752   3.625   7.837 -1.6297  0.1114  2.5870
   92CHL1  H22B 9272   3.754   3.469   7.911 -1.3825  1.2701 -0.9076
   92CHL1   C23 9273   3.895   3.621   7.989  0.6699 -0.0136 -0.1078
   92CHL1  H23A 9274   3.988   3.567   8.018  0.4951  0.9419  2.3509
   92CHL1  H23B 9275   3.931   3.723   7.963 -2.2165  1.5407  1.7402
   92CHL1   C24 9276   3.803   3.643   8.115 -0.4547 -0.2651 -0.4088
   92CHL1  H24A 9277   3.720   3.714   8.099  0.4846  0.3292 -2.8036
   92CHL1  H24B 9278   3.763   3.541   8.135  2.7851 -2.3369 -3.7710
   92CHL1   C25 9279   3.889   3.667   8.238 -0.1763 -0.1109  0.2861
   92CHL1   H25 9280   3.967   3.589   8.232  0.5671  0.7591 -1.6187
   92CHL1   C26 9281   3.958   3.806   8.239 -0.2111 -0.4137 -0.2662
   92CHL1  H26A 9282   4.017   3.810   8.146 -1.5384 -0.5354 -1.1234
   92CHL1  H26B 9283   3.886   3.892   8.242  2.9139  2.2865  0.3699
   92CHL1  H26C 9284   4.018   3.806   8.333  2.0425  3.0702 -1.5980
   92CHL1   C27 9285   3.815   3.629   8.370 -0.3072  0.2535  0.3521
   92CHL1  H27A 9286   3.888   3.612   8.452  0.0558  1.0970  0.2105
   92CHL1  H27B 9287   3.743   3.709   8.399 -0.8230  0.0901 -0.4372
   92CHL1  H27C 9288   3.764   3.531   8.359 -0.4105  0.4971 -1.5214
   93CHL1    C3 9289   2.644   0.769   6.952 -0.2364  0.3228 -0.2968
   93CHL1    H3 9290   2.632   0.660   6.932 -0.3026  0.1498  0.6808
   93CHL1    O3 9291   2.606   0.836   6.831  0.1891 -0.0858  0.1319
   93CHL1   H3' 9292   2.676   0.814   6.768  0.5679 -0.5302  0.6998
   93CHL1    C4 9293   2.559   0.815   7.069 -0.1065 -0.0446 -0.5885
   93CHL1   H4A 9294   2.544   0.925   7.071  2.8988  0.4047 -0.7976
   93CHL1   H4B 9295   2.460   0.770   7.049 -0.2586  1.2952 -2.9741
   93CHL1    C5 9296   2.610   0.784   7.207 -0.7010 -0.8419 -0.0975
   93CHL1    C6 9297   2.529   0.721   7.294  0.1978 -0.0198 -0.1778
   93CHL1    H6 9298   2.426   0.690   7.268  0.2758 -0.9480  0.6158
   93CHL1    C7 9299   2.582   0.687   7.432 -0.7860  0.6304 -0.2540
   93CHL1   H7A 9300   2.513   0.715   7.515  0.6756  0.3632  1.0550
   93CHL1   H7B 9301   2.596   0.578   7.448 -3.0393 -0.0871 -2.6453
   93CHL1    C8 9302   2.712   0.766   7.469 -0.0052  0.5557 -0.0728
   93CHL1    H8 9303   2.686   0.873   7.482 -1.3785  0.5293 -2.3271
   93CHL1   C14 9304   2.769   0.701   7.594 -0.6299 -0.3085  0.6209
   93CHL1   H14 9305   2.794   0.597   7.564  0.5386  0.5608 -1.5861
   93CHL1   C15 9306   2.686   0.684   7.725  0.0045  0.4013  0.2876
   93CHL1  H15A 9307   2.624   0.773   7.752  0.8266  0.8224  0.8229
   93CHL1  H15B 9308   2.609   0.604   7.721  0.8391 -0.4508  1.0738
   93CHL1   C16 9309   2.783   0.663   7.841 -0.2577  0.3187  0.0089
   93CHL1  H16A 9310   2.771   0.740   7.921 -1.2007 -1.5734  1.7444
   93CHL1  H16B 9311   2.781   0.560   7.883 -0.8198  0.3381  0.0316
   93CHL1   C17 9312   2.922   0.676   7.773  0.1265  0.7091 -0.4259
   93CHL1   H17 9313   2.959   0.578   7.738  2.2686  0.5661  2.0724
   93CHL1   C13 9314   2.903   0.754   7.643 -0.4822  0.4523  0.3566
   93CHL1   C18 9315   2.893   0.900   7.683  0.3404  0.0145  0.0597
   93CHL1  H18A 9316   2.874   0.963   7.593 -3.7508 -2.1270 -0.6880
   93CHL1  H18B 9317   2.827   0.932   7.767  1.9935  2.0930  0.6222
   93CHL1  H18C 9318   2.982   0.948   7.728 -0.5236  0.0221  1.7867
   93CHL1   C12 9319   3.011   0.745   7.534 -0.4975 -0.5155 -0.3136
   93CHL1  H12A 9320   3.106   0.802   7.547 -1.5291  0.5288  3.0168
   93CHL1  H12B 9321   3.030   0.637   7.513 -1.8228 -0.5634 -1.2952
   93CHL1   C11 9322   2.958   0.804   7.397  0.1972 -0.5262 -0.2596
   93CHL1  H11A 9323   2.934   0.911   7.410  0.3800 -0.4832 -0.2691
   93CHL1  H11B 9324   3.030   0.783   7.315 -0.3929 -2.5462 -0.3034
   93CHL1    C9 9325   2.813   0.752   7.354  0.1231  0.0509 -0.0992
   93CHL1    H9 9326   2.816   0.642   7.339 -3.0457  0.0235 -0.9353
   93CHL1   C10 9327   2.761   0.810   7.222 -0.1722  0.1117 -0.2206
   93CHL1   C19 9328   2.790   0.969   7.214  0.1038  0.4699 -0.3417
   93CHL1  H19A 9329   2.894   0.994   7.186  0.5720 -0.6062  0.3933
   93CHL1  H19B 9330   2.723   1.013   7.137 -0.1472  2.4951  0.9996
   93CHL1  H19C 9331   2.763   1.009   7.314 -1.3178 -2.7360  0.6312
   93CHL1    C1 9332   2.832   0.741   7.104 -0.1046  0.2966 -0.3579
   93CHL1   H1A 9333   2.939   0.767   7.118 -0.7651  1.5752  2.5661
   93CHL1   H1B 9334   2.817   0.631   7.114 -0.0582  0.5009  2.3109
   93CHL1    C2 9335   2.795   0.797   6.967  0.8340  0.1052 -0.2799
   93CHL1   H2A 9336   2.860   0.743   6.894 -0.9652 -1.0254 -1.0600
   93CHL1   H2B 9337   2.811   0.907   6.966 -0.8793  0.3740  0.0534
   93CHL1   C20 9338   3.038   0.720   7.864 -0.3838  0.4584 -0.0468
   93CHL1   H20 9339   3.038   0.829   7.883  1.1349  0.5947 -0.8121
   93CHL1   C21 9340   3.175   0.687   7.810  0.1566 -0.0806 -0.1177
   93CHL1  H21A 9341   3.175   0.577   7.796  0.1487 -0.0157 -0.6618
   93CHL1  H21B 9342   3.255   0.707   7.884  1.1039 -1.2898 -0.8031
   93CHL1  H21C 9343   3.195   0.734   7.711 -2.1643 -2.9428 -2.0249
   93CHL1   C22 9344   3.017   0.647   8.006  0.2736 -0.1724  0.1116
   93CHL1  H22A 9345   2.931   0.696   8.056 -1.8667 -0.7230 -2.8610
   93CHL1  H22B 9346   2.994   0.540   7.986 -0.7648 -0.2581  1.7079
   93CHL1   C23 9347   3.135   0.658   8.108 -0.4813 -0.2163 -0.3182
   93CHL1  H23A 9348   3.222   0.601   8.069  0.0556  0.0408  0.5171
   93CHL1  H23B 9349   3.168   0.764   8.104 -0.5350 -0.1677  0.5725
   93CHL1   C24 9350   3.107   0.611   8.248 -0.0211  0.2304  0.4096
   93CHL1  H24A 9351   3.037   0.688   8.288 -2.2158  0.2048 -3.1853
   93CHL1  H24B 9352   3.055   0.512   8.250 -0.9119  0.7040  2.2186
   93CHL1   C25 9353   3.235   0.604   8.336 -0.3946  0.0059  0.2153
   93CHL1   H25 9354   3.318   0.579   8.266  0.1448 -1.3984  1.3257
   93CHL1   C26 9355   3.271   0.743   8.395  0.5613  0.2856  0.7565
   93CHL1  H26A 9356   3.195   0.773   8.470 -2.1970  1.1025 -2.2542
   93CHL1  H26B 9357   3.374   0.733   8.436  1.0317 -0.9784 -0.6821
   93CHL1  H26C 9358   3.265   0.818   8.313  0.0690 -1.1512 -0.5500
   93CHL1   C27 9359   3.229   0.485   8.441  0.1350 -0.4939  0.1221
   93CHL1  H27A 9360   3.328   0.474   8.490 -1.4125  0.1968  3.6281
   93CHL1  H27B 9361   3.160   0.502   8.526 -1.1040  0.9575 -1.1493
   93CHL1  H27C 9362   3.192   0.390   8.396 -2.9934  1.9516 -2.6977
   94CHL1    C3 9363   5.086   3.851   6.853  0.1605  0.9070  0.5573
   94CHL1    H3 9364   5.036   3.753   6.833  2.0841  0.0313 -0.0994
   94CHL1    O3 9365   5.123   3.924   6.731 -0.2495  0.5871 -0.4787
   94CHL1   H3' 9366   5.151   4.010   6.763 -1.0019  0.3532  0.8385
   94CHL1    C4 9367   4.986   3.937   6.932 -0.4890 -0.4228 -0.5092
   94CHL1   H4A 9368   5.020   4.042   6.937  2.9310 -1.5264  1.1893
   94CHL1   H4B 9369   4.887   3.932   6.882  0.7548  0.0555 -3.0649
   94CHL1    C5 9370   4.960   3.885   7.074 -0.1297 -0.4545 -0.3732
   94CHL1    C6 9371   4.835   3.859   7.118  0.1247 -0.0496  0.1495
   94CHL1    H6 9372   4.749   3.879   7.052  0.6648 -1.8700 -1.1312
   94CHL1    C7 9373   4.797   3.807   7.251 -0.9696  0.5175  0.2114
   94CHL1   H7A 9374   4.707   3.860   7.290 -1.0810  1.0632 -0.7804
   94CHL1   H7B 9375   4.755   3.704   7.252  0.6385 -0.1714 -1.1134
   94CHL1    C8 9376   4.913   3.831   7.351  0.0531  0.0626 -0.4338
   94CHL1    H8 9377   4.922   3.940   7.370 -1.8997  0.4131 -1.4237
   94CHL1   C14 9378   4.899   3.761   7.490  0.3175  0.1246 -0.6250
   94CHL1   H14 9379   4.909   3.654   7.462 -2.0137 -0.3064  0.0836
   94CHL1   C15 9380   4.769   3.784   7.573 -0.3423  0.2149  0.3145
   94CHL1  H15A 9381   4.728   3.887   7.576 -0.3411  0.2261  0.0076
   94CHL1  H15B 9382   4.689   3.719   7.531 -0.5166 -0.0454  1.0373
   94CHL1   C16 9383   4.807   3.743   7.716 -0.1770  0.3500 -0.4896
   94CHL1  H16A 9384   4.768   3.818   7.788 -1.7907 -0.9037 -0.0252
   94CHL1  H16B 9385   4.754   3.646   7.729 -1.1783  1.0779  0.9286
   94CHL1   C17 9386   4.963   3.742   7.726 -0.2041  0.9395  0.0060
   94CHL1   H17 9387   4.987   3.634   7.725 -1.9205  0.5352 -0.9069
   94CHL1   C13 9388   5.011   3.797   7.587  0.2402 -0.0926  0.6357
   94CHL1   C18 9389   5.020   3.948   7.604  0.3833 -0.6376  0.1673
   94CHL1  H18A 9390   5.061   3.996   7.513  0.2975 -2.9323 -1.1052
   94CHL1  H18B 9391   4.915   3.985   7.611  0.6260 -0.2825  2.3214
   94CHL1  H18C 9392   5.080   3.994   7.685  0.9341  1.7089 -1.5083
   94CHL1   C12 9393   5.137   3.731   7.529 -0.1671 -0.0458 -0.1752
   94CHL1  H12A 9394   5.222   3.755   7.596 -0.0472 -0.3577 -0.2149
   94CHL1  H12B 9395   5.135   3.621   7.543  2.6252 -0.1939 -0.6374
   94CHL1   C11 9396   5.160   3.785   7.386 -0.4097  0.4905 -0.4561
   94CHL1  H11A 9397   5.192   3.890   7.404  1.0155  0.2014 -1.1513
   94CHL1  H11B 9398   5.244   3.737   7.330 -1.1846  1.0715 -2.1437
   94CHL1    C9 9399   5.042   3.788   7.287 -0.0930 -0.5346 -0.3627
   94CHL1    H9 9400   5.020   3.683   7.259  1.0252 -0.7829 -0.3514
   94CHL1   C10 9401   5.087   3.856   7.157 -0.2438 -0.3711  0.3529
   94CHL1   C19 9402   5.167   3.986   7.170  0.3848  0.2223 -0.3246
   94CHL1  H19A 9403   5.117   4.059   7.237  0.8359 -0.1149  0.3923
   94CHL1  H19B 9404   5.264   3.973   7.223  0.4606  0.2897 -0.4487
   94CHL1  H19C 9405   5.207   4.032   7.077  0.7268  2.4552  0.8925
   94CHL1    C1 9406   5.181   3.758   7.068  0.9698 -0.0204 -0.1479
   94CHL1   H1A 9407   5.275   3.738   7.125  1.8740  2.7670 -0.5544
   94CHL1   H1B 9408   5.136   3.657   7.064  0.0101  0.3810  0.4077
   94CHL1    C2 9409   5.212   3.816   6.931 -0.1584  0.3144 -0.0760
   94CHL1   H2A 9410   5.272   3.749   6.866  0.3850  1.4683 -0.7666
   94CHL1   H2B 9411   5.276   3.906   6.935 -0.1629  0.2933  0.4167
   94CHL1   C20 9412   5.025   3.799   7.855  0.7064  0.0706  0.2480
   94CHL1   H20 9413   5.026   3.910   7.857 -2.7755  0.1811 -0.3028
   94CHL1   C21 9414   5.170   3.756   7.864  0.3992  0.4485 -0.1496
   94CHL1  H21A 9415   5.181   3.648   7.840 -0.2919  0.1576  0.8102
   94CHL1  H21B 9416   5.201   3.770   7.970 -0.4482 -0.8350  0.2830
   94CHL1  H21C 9417   5.235   3.822   7.802  1.7597 -0.4135  0.3373
   94CHL1   C22 9418   4.947   3.766   7.985 -0.5461 -0.5430 -0.1035
   94CHL1  H22A 9419   5.003   3.802   8.074  0.6870 -0.9412 -0.7228
   94CHL1  H22B 9420   4.845   3.812   7.985  0.5545  1.9899  1.1506
   94CHL1   C23 9421   4.928   3.610   7.992 -0.7543  0.5024 -0.7078
   94CHL1  H23A 9422   4.864   3.569   7.911  0.1125  1.9367 -2.1632
   94CHL1  H23B 9423   5.026   3.559   7.985 -0.4420  1.1366 -1.0458
   94CHL1   C24 9424   4.877   3.571   8.133 -0.6327 -0.1258 -0.0384
   94CHL1  H24A 9425   4.946   3.618   8.206  0.3046  0.2601 -1.1447
   94CHL1  H24B 9426   4.776   3.612   8.151 -0.7234 -0.1373 -0.5080
   94CHL1   C25 9427   4.864   3.424   8.173 -0.1264 -0.0456 -0.5055
   94CHL1   H25 9428   4.957   3.368   8.153  1.1632  1.2972  1.5416
   94CHL1   C26 9429   4.830   3.431   8.325 -0.5530  0.4547  0.2171
   94CHL1  H26A 9430   4.912   3.489   8.374 -0.4509  0.3699  0.1465
   94CHL1  H26B 9431   4.731   3.481   8.335 -0.8980 -0.2043  0.1036
   94CHL1  H26C 9432   4.825   3.336   8.382 -1.6257  0.2383 -0.2250
   94CHL1   C27 9433   4.748   3.348   8.104  0.3451 -0.0990 -0.9009
   94CHL1  H27A 9434   4.767   3.335   7.996 -0.4150 -0.7188 -0.9652
   94CHL1  H27B 9435   4.741   3.247   8.150  1.4070  0.7437  1.1969
   94CHL1  H27C 9436   4.650   3.399   8.117  0.3606 -0.5498  1.2218
   95CHL1    C3 9437   5.153   2.734   6.628 -0.3475  0.5625 -0.0858
   95CHL1    H3 9438   5.177   2.631   6.664  0.2217 -0.2423 -2.6243
   95CHL1    O3 9439   5.206   2.738   6.499  1.0964 -0.2866  1.0116
   95CHL1   H3' 9440   5.169   2.807   6.444  2.1018 -2.8438 -3.0251
   95CHL1    C4 9441   5.001   2.768   6.624 -0.4779  0.2570 -0.2505
   95CHL1   H4A 9442   4.992   2.864   6.568  0.7769  1.7435  2.0387
   95CHL1   H4B 9443   4.950   2.693   6.559 -0.0398  1.3559 -1.9181
   95CHL1    C5 9444   4.950   2.775   6.764  0.2055  0.8974  0.8904
   95CHL1    C6 9445   4.850   2.698   6.802  0.2617  0.0485  0.1829
   95CHL1    H6 9446   4.796   2.635   6.729 -1.0308  0.2409  0.9522
   95CHL1    C7 9447   4.775   2.713   6.933 -1.4210 -0.3120 -0.0911
   95CHL1   H7A 9448   4.667   2.733   6.915 -1.2293 -0.2221 -1.1745
   95CHL1   H7B 9449   4.767   2.613   6.981  0.7522 -0.9242 -0.9622
   95CHL1    C8 9450   4.831   2.815   7.027 -0.5761 -0.3509  0.1338
   95CHL1    H8 9451   4.790   2.914   6.995 -0.7368 -0.0802  1.1575
   95CHL1   C14 9452   4.793   2.783   7.170 -0.6207  0.6167 -0.6572
   95CHL1   H14 9453   4.844   2.689   7.199 -4.2396 -1.5281 -0.9067
   95CHL1   C15 9454   4.646   2.753   7.202 -0.7141 -0.3002 -0.0697
   95CHL1  H15A 9455   4.589   2.836   7.155  0.6874  0.2442 -0.8345
   95CHL1  H15B 9456   4.606   2.658   7.161 -0.8465 -0.5277  0.5830
   95CHL1   C16 9457   4.638   2.771   7.356 -0.0174  0.0528  0.1566
   95CHL1  H16A 9458   4.571   2.855   7.387  0.4681  0.8471 -0.9447
   95CHL1  H16B 9459   4.612   2.681   7.416  0.9291 -0.8661 -0.7931
   95CHL1   C17 9460   4.778   2.800   7.405  0.4912 -0.5746  0.5697
   95CHL1   H17 9461   4.833   2.704   7.417 -0.0915 -1.0502 -0.4715
   95CHL1   C13 9462   4.845   2.874   7.281  0.3953 -0.8436 -0.1450
   95CHL1   C18 9463   4.790   3.014   7.275 -0.1395  0.1656  0.0881
   95CHL1  H18A 9464   4.819   3.053   7.175  0.7925 -2.1520 -0.5933
   95CHL1  H18B 9465   4.679   3.011   7.274 -0.1708  1.2051 -2.0034
   95CHL1  H18C 9466   4.833   3.080   7.353 -0.4177  0.5161 -0.0561
   95CHL1   C12 9467   5.003   2.873   7.270  0.4520 -0.2908 -0.5107
   95CHL1  H12A 9468   5.056   2.939   7.342  1.0652 -1.3900  0.0644
   95CHL1  H12B 9469   5.047   2.772   7.283  1.7933  0.4347  0.7719
   95CHL1   C11 9470   5.049   2.916   7.127 -0.4150 -0.0647  0.4239
   95CHL1  H11A 9471   5.017   3.021   7.109 -0.7947 -0.0655  1.0866
   95CHL1  H11B 9472   5.160   2.905   7.131 -0.3272 -0.6959 -2.5824
   95CHL1    C9 9473   4.981   2.825   7.013  0.3495 -0.4014  0.2462
   95CHL1    H9 9474   5.012   2.719   7.018 -0.2338 -0.6846 -1.6801
   95CHL1   C10 9475   5.026   2.860   6.867 -0.5491 -0.7076 -0.1534
   95CHL1   C19 9476   4.999   3.006   6.840  0.2351 -0.2445  0.9981
   95CHL1  H19A 9477   5.087   3.063   6.877 -1.2140  0.3982  3.5897
   95CHL1  H19B 9478   4.999   3.033   6.732 -1.1040  1.3490  1.3793
   95CHL1  H19C 9479   4.907   3.043   6.891  0.3434 -0.3743  1.2873
   95CHL1    C1 9480   5.180   2.836   6.851  0.8742  0.6307  0.0789
   95CHL1   H1A 9481   5.240   2.901   6.918  0.4242  2.1740 -0.9630
   95CHL1   H1B 9482   5.195   2.735   6.894 -0.2822  0.8637  1.0519
   95CHL1    C2 9483   5.229   2.842   6.708 -0.6304  0.7212  0.2852
   95CHL1   H2A 9484   5.339   2.824   6.704 -0.7349 -0.2790  1.6463
   95CHL1   H2B 9485   5.215   2.945   6.670  1.7090  1.0145  0.1078
   95CHL1   C20 9486   4.774   2.872   7.544 -0.4920 -0.3765  1.1997
   95CHL1   H20 9487   4.731   2.971   7.521  3.6245  0.7219 -2.2319
   95CHL1   C21 9488   4.915   2.905   7.595 -0.1597  0.4108  0.2144
   95CHL1  H21A 9489   4.972   2.970   7.525 -1.7759  0.1000 -1.4234
   95CHL1  H21B 9490   4.963   2.807   7.614 -0.3101  0.1378 -0.7953
   95CHL1  H21C 9491   4.919   2.960   7.692 -0.9753  0.8779 -0.0069
   95CHL1   C22 9492   4.692   2.803   7.653  0.3896 -0.5719  0.6131
   95CHL1  H22A 9493   4.586   2.802   7.621  0.5491  0.5569  0.0309
   95CHL1  H22B 9494   4.719   2.697   7.670 -1.1700 -1.2730 -1.1816
   95CHL1   C23 9495   4.683   2.873   7.789  0.6188 -0.0565  0.0039
   95CHL1  H23A 9496   4.777   2.855   7.847  0.7471 -0.7141 -0.4055
   95CHL1  H23B 9497   4.658   2.980   7.777  0.0578 -0.2118 -0.2214
   95CHL1   C24 9498   4.565   2.817   7.876  0.3748 -0.1137 -0.2927
   95CHL1  H24A 9499   4.467   2.834   7.826  0.1211 -0.2026  0.1636
   95CHL1  H24B 9500   4.580   2.708   7.865 -0.2290 -0.2352  0.0532
   95CHL1   C25 9501   4.565   2.863   8.022 -0.3256 -0.5326  0.3884
   95CHL1   H25 9502   4.669   2.849   8.057  0.4515  1.0022 -1.2137
   95CHL1   C26 9503   4.537   3.016   8.039 -0.1880  0.8027  0.7120
   95CHL1  H26A 9504   4.515   3.049   8.143  1.3275  0.0907  1.2846
   95CHL1  H26B 9505   4.608   3.087   7.990 -0.8928  1.2306  0.3118
   95CHL1  H26C 9506   4.445   3.026   7.979 -0.6657 -1.9432  0.9462
   95CHL1   C27 9507   4.468   2.781   8.106  0.1177 -0.0148  0.0525
   95CHL1  H27A 9508   4.465   2.814   8.212 -0.2816  1.6912 -0.4660
   95CHL1  H27B 9509   4.365   2.777   8.066 -0.3532  1.0598  1.1145
   95CHL1  H27C 9510   4.504   2.676   8.109 -0.2279 -0.0818  2.7689
   96CHL1    C3 9511   4.919   2.309   6.672  1.1533 -0.4320 -0.8024
   96CHL1    H3 9512   4.897   2.418   6.675 -0.8080 -0.8604  0.6644
   96CHL1    O3 9513   4.946   2.265   6.537 -0.5227  0.1037 -0.0149
   96CHL1   H3' 9514   4.998   2.337   6.502  0.5374 -0.1663  0.9959
   96CHL1    C4 9515   5.041   2.271   6.760  0.0425  0.4426 -0.0008
   96CHL1   H4A 9516   5.049   2.161   6.746 -2.4457  0.3755 -1.1405
   96CHL1   H4B 9517   5.137   2.314   6.725 -1.0919  2.4308 -0.7936
   96CHL1    C5 9518   5.016   2.297   6.906  0.0280  0.2876  0.0146
   96CHL1    C6 9519   5.091   2.380   6.980  0.2476 -0.2668  0.8966
   96CHL1    H6 9520   5.183   2.426   6.941 -0.3477  1.1641  1.1444
   96CHL1    C7 9521   5.061   2.423   7.121  0.6429  0.0718 -0.0487
   96CHL1   H7A 9522   5.145   2.428   7.193 -0.8448 -0.6592  1.7898
   96CHL1   H7B 9523   5.009   2.522   7.123 -0.4101 -0.4916  2.0258
   96CHL1    C8 9524   4.955   2.326   7.194  0.4010 -0.5867  0.4408
   96CHL1    H8 9525   5.017   2.238   7.221  1.1058 -0.6750 -1.4200
   96CHL1   C14 9526   4.905   2.387   7.329 -0.1129  0.0321  0.7288
   96CHL1   H14 9527   4.846   2.476   7.299  0.3977  0.7019  1.6717
   96CHL1   C15 9528   5.004   2.468   7.425 -0.1892  0.0099 -0.2775
   96CHL1  H15A 9529   5.102   2.416   7.431 -0.0579  0.0539 -1.8266
   96CHL1  H15B 9530   5.016   2.570   7.385  1.5308 -0.3037 -0.6030
   96CHL1   C16 9531   4.927   2.464   7.554 -0.3651 -0.1091  0.1664
   96CHL1  H16A 9532   4.993   2.419   7.631 -1.2754  1.3537  1.8482
   96CHL1  H16B 9533   4.887   2.562   7.589 -1.0794  1.9117 -5.7531
   96CHL1   C17 9534   4.794   2.373   7.534  0.0080 -0.6093 -0.5474
   96CHL1   H17 9535   4.722   2.453   7.504  1.0718  0.3707 -0.4958
   96CHL1   C13 9536   4.815   2.293   7.410  0.6406 -0.2997 -0.0307
   96CHL1   C18 9537   4.899   2.163   7.441 -0.2873 -0.0933  0.7272
   96CHL1  H18A 9538   4.938   2.110   7.352 -2.3734  1.3670 -1.1225
   96CHL1  H18B 9539   4.995   2.196   7.487  0.4120 -0.6123 -0.3590
   96CHL1  H18C 9540   4.841   2.093   7.506 -0.6996 -0.4640 -0.0388
   96CHL1   C12 9541   4.693   2.268   7.324 -0.4804  0.0220 -0.3007
   96CHL1  H12A 9542   4.625   2.196   7.373  0.7418 -1.4531 -0.7386
   96CHL1  H12B 9543   4.647   2.369   7.312  1.3057  0.8150 -0.6577
   96CHL1   C11 9544   4.728   2.206   7.183  0.4254  0.1688 -0.0835
   96CHL1  H11A 9545   4.758   2.100   7.198  1.0580  0.4492  0.6887
   96CHL1  H11B 9546   4.637   2.196   7.121  0.3987  3.2484 -0.6178
   96CHL1    C9 9547   4.835   2.293   7.105 -0.1584  0.2201 -0.4320
   96CHL1    H9 9548   4.782   2.389   7.089 -2.0067 -0.4254  1.6345
   96CHL1   C10 9549   4.883   2.235   6.971  0.1511  0.1725 -0.3048
   96CHL1   C19 9550   4.901   2.076   6.980 -0.4777  0.2398  0.5306
   96CHL1  H19A 9551   4.947   2.049   7.077  0.7451 -0.4521 -0.2341
   96CHL1  H19B 9552   4.813   2.009   6.967 -0.3410  0.4226 -1.5466
   96CHL1  H19C 9553   4.964   2.043   6.895 -1.4967 -0.9168  0.1938
   96CHL1    C1 9554   4.771   2.267   6.873  0.5110 -0.3197 -0.0888
   96CHL1   H1A 9555   4.680   2.211   6.903  3.3484 -4.7084  0.8201
   96CHL1   H1B 9556   4.749   2.375   6.886 -0.9435 -0.7276  0.9937
   96CHL1    C2 9557   4.796   2.229   6.723  0.0579 -0.1397  0.2042
   96CHL1   H2A 9558   4.697   2.242   6.675 -0.2166  0.5469  0.9277
   96CHL1   H2B 9559   4.825   2.122   6.726  1.1931  0.1412 -0.7410
   96CHL1   C20 9560   4.754   2.305   7.667 -0.7345  0.9394  0.7698
   96CHL1   H20 9561   4.826   2.224   7.692 -0.8273  0.2013 -1.2046
   96CHL1   C21 9562   4.610   2.243   7.646  0.4411  0.0852 -0.1970
   96CHL1  H21A 9563   4.557   2.231   7.743 -1.8950  0.7100 -1.3725
   96CHL1  H21B 9564   4.607   2.145   7.593  0.0266  0.3710 -0.7015
   96CHL1  H21C 9565   4.540   2.301   7.583 -0.0072 -1.9509 -1.6337
   96CHL1   C22 9566   4.761   2.411   7.785 -1.3084  0.4745 -0.3429
   96CHL1  H22A 9567   4.868   2.441   7.789 -0.7190 -1.3380 -1.6500
   96CHL1  H22B 9568   4.689   2.495   7.780 -2.3353 -0.3950 -0.2831
   96CHL1   C23 9569   4.726   2.336   7.922 -0.3167  0.7220  0.6751
   96CHL1  H23A 9570   4.621   2.322   7.954 -0.4055 -1.5281 -0.5237
   96CHL1  H23B 9571   4.776   2.236   7.924 -0.7612  0.4681  5.0905
   96CHL1   C24 9572   4.785   2.417   8.040 -0.2230 -0.2524 -0.1263
   96CHL1  H24A 9573   4.887   2.453   8.013 -0.2641  1.3829  1.7576
   96CHL1  H24B 9574   4.739   2.518   8.032  0.9322  0.3661  0.9426
   96CHL1   C25 9575   4.764   2.371   8.179 -0.0832  0.7487 -0.5074
   96CHL1   H25 9576   4.840   2.417   8.245 -0.4284 -0.4829  0.7723
   96CHL1   C26 9577   4.628   2.402   8.226 -0.1209 -0.0449  0.0950
   96CHL1  H26A 9578   4.605   2.510   8.217 -0.1135 -0.0356  0.1867
   96CHL1  H26B 9579   4.545   2.345   8.180  0.1649  0.0419 -0.5213
   96CHL1  H26C 9580   4.622   2.376   8.334  0.9028  4.9178  1.4442
   96CHL1   C27 9581   4.788   2.223   8.194  0.0280  0.3897 -0.2291
   96CHL1  H27A 9582   4.897   2.208   8.180 -0.3191 -1.8348 -0.7566
   96CHL1  H27B 9583   4.768   2.194   8.300 -1.9939  1.1658 -0.3704
   96CHL1  H27C 9584   4.725   2.152   8.136 -1.8912  0.5190  1.6074
   97OSM      N 9585   2.051   3.797  11.500  0.7066  0.1432 -0.3629
   97OSM    C15 9586   2.121   3.879  11.607  0.0601 -0.2134  0.8579
   97OSM   H15A 9587   2.053   3.879  11.691 -1.4021  1.1885 -0.2987
   97OSM   H15B 9588   2.157   3.974  11.571  0.3803 -1.1512 -1.4065
   97OSM   H15C 9589   2.205   3.826  11.650  0.3806  0.2825  0.8404
   97OSM    C14 9590   2.040   3.652  11.537 -0.6100 -0.0850 -0.7359
   97OSM   H14A 9591   1.958   3.637  11.606 -0.0407  1.5638  0.3347
   97OSM   H14B 9592   2.138   3.620  11.570 -0.6397  0.8750  0.3239
   97OSM   H14C 9593   2.025   3.601  11.443 -0.9275  0.6285 -1.0800
   97OSM    C13 9594   1.918   3.851  11.479 -0.1156  0.1049  0.0970
   97OSM   H13A 9595   1.913   3.944  11.423 -0.9096  0.4999  0.7984
   97OSM   H13B 9596   1.856   3.860  11.567  5.0620  1.0966  3.8045
   97OSM   H13C 9597   1.861   3.781  11.419  1.8923  1.3263 -3.3893
   97OSM    C12 9598   2.149   3.805  11.377  0.5333  0.5574 -0.0162
   97OSM   H12A 9599   2.242   3.759  11.407  1.1023  2.4708  1.2723
   97OSM   H12B 9600   2.178   3.906  11.352 -0.3206  0.8738  0.2246
   97OSM    C11 9601   2.103   3.746  11.239 -0.2534 -0.6222  0.8116
   97OSM   H11A 9602   2.175   3.781  11.162 -2.2747 -1.3226 -1.4929
   97OSM   H11B 9603   2.010   3.804  11.215  1.0126  1.7703  1.5053
   97OSM      P 9604   2.184   3.512  11.171 -0.4219 -0.1081 -0.3725
   97OSM    O13 9605   2.319   3.546  11.217  0.1962  0.0009  0.2947
   97OSM    O14 9606   2.140   3.378  11.208  0.0918  0.4417  0.5500
   97OSM    O11 9607   2.151   3.541  11.018  0.0401 -0.0464  0.0342
   97OSM    O12 9608   2.080   3.607  11.247 -0.2687 -0.3016 -0.1073
   97OSM    C1S 9609   2.018   3.536  10.968  0.2242 -0.0642 -0.2922
   97OSM    H1S 9610   1.958   3.624  11.002  0.0636 -0.3050  0.0526
   97OSM    H1T 9611   1.962   3.450  11.010 -0.7093  1.3641  1.4819
   97OSM     NF 9612   1.890   3.551  10.755  0.5902 -0.8335 -0.4777
   97OSM    HNF 9613   1.844   3.463  10.747 -1.4257  0.0973  0.4212
   97OSM    C2S 9614   2.019   3.534  10.809 -0.1467  0.0884 -0.1680
   97OSM    H2S 9615   2.083   3.616  10.770  1.2188  0.8354  3.4506
   97OSM    C3S 9616   2.091   3.404  10.757  0.5988  0.4360 -0.5305
   97OSM    H3S 9617   2.020   3.323  10.781 -0.4092  1.7766  1.1001
   97OSM     O3 9618   2.214   3.369  10.824  0.6275  0.2588 -0.4144
   97OSM    HO3 9619   2.218   3.439  10.889 -1.5574  0.8865 -0.9376
   97OSM    C4S 9620   2.107   3.390  10.607 -0.1614 -0.2535 -0.9708
   97OSM    H4S 9621   2.016   3.343  10.566 -1.6032 -0.2492  2.0270
   97OSM    C5S 9622   2.206   3.433  10.531 -0.1202  0.7497 -0.0016
   97OSM    H5S 9623   2.284   3.495  10.578 -1.5361  0.9186  2.1897
   97OSM    C6S 9624   2.216   3.413  10.387 -0.5637  0.5366 -0.1728
   97OSM    H6S 9625   2.288   3.328  10.382 -1.3557 -0.3130  2.0946
   97OSM    H6T 9626   2.257   3.506  10.343 -0.2923  0.6250  0.2677
   97OSM    C7S 9627   2.087   3.365  10.314  0.0836 -0.6457 -1.3726
   97OSM    H7S 9628   2.003   3.434  10.335  1.8710  0.0248  4.2951
   97OSM    H7T 9629   2.055   3.269  10.361  1.7455  0.4937  2.2541
   97OSM    C8S 9630   2.103   3.355  10.162 -0.0330 -0.1779  0.5275
   97OSM    H8S 9631   2.037   3.274  10.124  0.8330 -1.5446  1.8709
   97OSM    H8T 9632   2.200   3.304  10.145 -1.2005 -3.0897  2.1815
   97OSM    C9S 9633   2.091   3.486  10.092  0.6678  0.0169 -0.1567
   97OSM    H9S 9634   2.185   3.542  10.110 -0.4631  1.5236  1.3209
   97OSM    H9T 9635   1.996   3.538  10.121  0.1421 -0.6840 -0.6100
   97OSM   C10S 9636   2.057   3.466   9.940 -0.4866 -0.4292  0.4224
   97OSM   H10S 9637   2.075   3.361   9.909 -2.8974  0.3708 -4.0663
   97OSM   H10T 9638   2.121   3.532   9.878 -0.1907  0.4644  1.6397
   97OSM   C11S 9639   1.912   3.494   9.897  0.5819  0.3185  0.2400
   97OSM   H11S 9640   1.895   3.603   9.888 -2.8542 -0.0437  1.6084
   97OSM   H11T 9641   1.857   3.450   9.983 -0.2360 -4.3583 -2.5182
   97OSM   C12S 9642   1.861   3.415   9.777 -0.1551 -0.3325  0.1270
   97OSM   H12S 9643   1.755   3.445   9.762  0.9242  4.3646  1.0521
   97OSM   H12T 9644   1.864   3.307   9.803 -1.8388 -0.9031 -1.9621
   97OSM   C13S 9645   1.934   3.452   9.637 -1.3323  0.3697  0.2511
   97OSM   H13S 9646   1.908   3.371   9.566 -3.3380  0.1769  1.1859
   97OSM   H13T 9647   2.045   3.457   9.641 -1.3317 -0.2551  1.4049
   97OSM   C14S 9648   1.877   3.582   9.580  0.5532 -0.0597 -0.7504
   97OSM   H14S 9649   1.892   3.666   9.651 -2.8694 -0.2017  0.2696
   97OSM   H14T 9650   1.768   3.569   9.562  0.7031  0.5455 -2.1633
   97OSM   C15S 9651   1.949   3.625   9.453  0.6768  0.5179 -0.2637
   97OSM   H15S 9652   2.058   3.643   9.468  1.0932 -2.0443  0.0647
   97OSM   H15T 9653   1.912   3.720   9.410  2.6848  0.6835 -1.7253
   97OSM   C16S 9654   1.918   3.532   9.337 -0.3306  0.0452  0.0765
   97OSM   H16S 9655   1.809   3.512   9.342  0.0157 -2.2407 -0.6258
   97OSM   H16T 9656   1.961   3.430   9.346  3.5805  1.5323 -0.7744
   97OSM   C17S 9657   1.943   3.602   9.204  0.3480  0.4386  1.2456
   97OSM   H17S 9658   2.045   3.586   9.165 -1.2322 -0.2417 -2.8752
   97OSM   H17T 9659   1.932   3.713   9.207  1.8895  0.6240  0.4470
   97OSM   C18S 9660   1.841   3.548   9.100 -0.3539 -0.1827 -0.0162
   97OSM   H18S 9661   1.854   3.439   9.080  1.3001 -0.1787  0.9522
   97OSM   H18T 9662   1.852   3.607   9.007 -0.4586 -1.2439 -0.7177
   97OSM   H18U 9663   1.735   3.572   9.122 -0.7865 -1.2721 -0.8574
   97OSM    C1F 9664   1.822   3.667  10.764 -0.2925 -0.7286  0.2098
   97OSM     OF 9665   1.868   3.755  10.840 -0.6176 -1.1038 -0.2454
   97OSM    C2F 9666   1.709   3.681  10.662 -0.3870  0.7238 -0.5229
   97OSM    H2F 9667   1.669   3.784  10.668  3.3327  2.2189 -0.3755
   97OSM    H2G 9668   1.632   3.608  10.695  1.6173 -1.4547 -0.5254
   97OSM    C3F 9669   1.758   3.649  10.526  0.2966 -0.2397 -0.0217
   97OSM    H3F 9670   1.782   3.541  10.517  1.6240  0.0251  0.3295
   97OSM    H3G 9671   1.846   3.713  10.502 -0.7497 -0.0097 -3.5900
   97OSM    C4F 9672   1.657   3.684  10.416 -0.0611  0.1503  0.2115
   97OSM    H4F 9673   1.656   3.795  10.412  0.5841  0.0922 -2.5837
   97OSM    H4G 9674   1.555   3.644  10.429 -0.5300  1.5655  1.0035
   97OSM    C5F 9675   1.714   3.623  10.278  0.0712  0.6087 -0.7046
   97OSM    H5F 9676   1.716   3.513  10.298  1.1198  0.7685  0.1039
   97OSM    H5G 9677   1.821   3.653  10.277  0.2576 -0.0380 -1.1248
   97OSM    C6F 9678   1.638   3.668  10.159 -0.4931 -0.2425  0.6780
   97OSM    H6F 9679   1.692   3.650  10.063  0.8343  0.4825  1.2711
   97OSM    H6G 9680   1.631   3.779  10.167 -1.1075 -0.0846 -1.6668
   97OSM    C7F 9681   1.492   3.614  10.140  0.1585 -0.1804  0.1255
   97OSM    H7F 9682   1.417   3.660  10.208  1.1575  2.5607 -0.5720
   97OSM    H7G 9683   1.503   3.508  10.171  0.0574 -1.2124 -3.1797
   97OSM    C8F 9684   1.435   3.624   9.999 -0.1651 -0.0301  0.1787
   97OSM    H8F 9685   1.348   3.555   9.998 -0.5536  0.3475  3.5968
   97OSM    H8G 9686   1.503   3.583   9.921 -2.8030 -2.7122 -0.7913
   97OSM    C9F 9687   1.399   3.758   9.953  0.2016 -0.2052 -0.1183
   97OSM    H9F 9688   1.333   3.813  10.021 -1.0480 -1.0621 -0.6097
   97OSM   C10F 9689   1.421   3.811   9.834  0.0512 -0.0527  0.0738
   97OSM   H10F 9690   1.400   3.918   9.817  1.0145  0.1961  0.4196
   97OSM   C11F 9691   1.500   3.753   9.713  0.4183  0.6364  0.2368
   97OSM   H11F 9692   1.556   3.662   9.744  1.5363  1.3673  0.3938
   97OSM   H11G 9693   1.582   3.824   9.692  0.8985  0.2235  0.7181
   97OSM   C12F 9694   1.415   3.737   9.591  0.5679  0.1160  0.0198
   97OSM   H12F 9695   1.346   3.823   9.597  0.8099  0.4711 -2.0553
   97OSM   H12G 9696   1.349   3.648   9.604  0.4831  0.2634  0.5879
   97OSM   C13F 9697   1.475   3.745   9.449 -0.1090 -0.7657 -0.0643
   97OSM   H13F 9698   1.406   3.722   9.365  0.0383  1.4254 -0.7967
   97OSM   H13G 9699   1.546   3.660   9.447 -0.2785 -0.9074 -0.0787
   97OSM   C14F 9700   1.557   3.870   9.427 -0.2622 -0.7722 -0.8017
   97OSM   H14F 9701   1.634   3.879   9.506 -0.3629  1.9537 -0.9497
   97OSM   H14G 9702   1.495   3.962   9.431  0.7718 -0.0959 -0.0204
   97OSM   C15F 9703   1.636   3.860   9.303  0.3393  0.3932  0.2027
   97OSM   H15F 9704   1.691   3.767   9.280  0.2530  0.3115  0.3309
   97OSM   H15G 9705   1.707   3.946   9.301  0.7708  0.0317 -0.0957
   97OSM   C16F 9706   1.563   3.856   9.166 -0.5080  0.5478 -0.5192
   97OSM   H16F 9707   1.509   3.952   9.155  0.4151  0.9269 -1.8504
   97OSM   H16G 9708   1.484   3.778   9.167 -2.9842  2.9729  2.7736
   97OSM   C17F 9709   1.645   3.850   9.037 -0.7509  0.5163  0.4864
   97OSM   H17F 9710   1.579   3.863   8.948 -0.2434  0.8570  0.1615
   97OSM   H17G 9711   1.692   3.749   9.039 -0.2702  0.7400  0.6062
   97OSM   C18F 9712   1.756   3.952   9.019  0.0881  0.1026  0.3550
   97OSM   H18F 9713   1.844   3.933   9.085  0.3940 -2.1319 -0.6727
   97OSM   H18G 9714   1.722   4.053   9.051 -1.4287  1.0287 -3.7849
   97OSM   H18H 9715   1.788   3.967   8.913 -3.7417  0.1219 -0.8638
   98OSM      N 9716   1.453   3.544  11.144 -0.3617 -0.3849 -0.3241
   98OSM    C15 9717   1.367   3.426  11.194  0.6350  0.3429 -0.0013
   98OSM   H15A 9718   1.438   3.348  11.217  1.8464  1.0566 -1.1936
   98OSM   H15B 9719   1.298   3.375  11.128 -2.6441  1.3190  2.5915
   98OSM   H15C 9720   1.314   3.439  11.286 -0.7558  1.1836 -0.9069
   98OSM    C14 9721   1.371   3.639  11.058  0.1002  0.2580 -0.2885
   98OSM   H14A 9722   1.308   3.581  10.992  2.2224 -0.1558 -1.9934
   98OSM   H14B 9723   1.439   3.706  11.008  2.1562 -1.2827  0.3524
   98OSM   H14C 9724   1.311   3.709  11.115 -0.2199 -0.0402 -0.2581
   98OSM    C13 9725   1.505   3.625  11.258  0.5877  0.0532 -0.4971
   98OSM   H13A 9726   1.423   3.660  11.318  0.1454 -0.3468 -0.8633
   98OSM   H13B 9727   1.559   3.709  11.218 -2.0419  1.7489 -0.6030
   98OSM   H13C 9728   1.573   3.560  11.311  1.0829  0.5387 -0.5305
   98OSM    C12 9729   1.573   3.490  11.068  0.0129 -0.1365  0.4599
   98OSM   H12A 9730   1.624   3.413  11.125 -1.0414 -0.9770  0.2881
   98OSM   H12B 9731   1.645   3.570  11.061  1.0480 -0.9813  1.2209
   98OSM    C11 9732   1.541   3.431  10.928  0.6401  0.5343 -0.7538
   98OSM   H11A 9733   1.637   3.409  10.877  0.5704 -1.0971 -0.2226
   98OSM   H11B 9734   1.486   3.506  10.868 -3.7919 -1.1170  1.0162
   98OSM      P 9735   1.529   3.172  10.980 -0.0167 -0.2013  0.0113
   98OSM    O13 9736   1.655   3.198  11.060  0.2178  0.1882  0.3252
   98OSM    O14 9737   1.420   3.085  11.030 -0.3683  0.2735  0.4311
   98OSM    O11 9738   1.581   3.114  10.843 -0.0573  0.1709  0.4584
   98OSM    O12 9739   1.461   3.311  10.943  0.0406  0.2869  0.3951
   98OSM    C1S 9740   1.498   3.115  10.729  0.5811  0.2601  0.0443
   98OSM    H1S 9741   1.469   3.218  10.699 -0.5979 -0.3584 -0.9848
   98OSM    H1T 9742   1.398   3.072  10.751  0.9479 -0.4770  0.2828
   98OSM     NF 9743   1.505   3.052  10.478  0.2694  0.7893 -0.2523
   98OSM    HNF 9744   1.458   2.971  10.444  0.2894  0.7287 -0.1343
   98OSM    C2S 9745   1.569   3.031  10.613  0.6547 -0.5885  0.0045
   98OSM    H2S 9746   1.678   3.053  10.601  0.7278 -0.8347  0.2340
   98OSM    C3S 9747   1.560   2.884  10.652 -0.0117  0.1410  0.2132
   98OSM    H3S 9748   1.455   2.853  10.669  0.3522 -1.2197  0.1269
   98OSM     O3 9749   1.625   2.849  10.778 -0.5312 -0.2442  0.1346
   98OSM    HO3 9750   1.629   2.934  10.823 -0.8256  1.1181 -2.3210
   98OSM    C4S 9751   1.616   2.796  10.546  0.1158  0.3161 -0.2271
   98OSM    H4S 9752   1.725   2.809  10.533  0.3745 -1.7476 -0.2326
   98OSM    C5S 9753   1.551   2.701  10.477  0.0737  0.0595 -0.4675
   98OSM    H5S 9754   1.442   2.689  10.475  0.0913 -0.8250  1.7052
   98OSM    C6S 9755   1.610   2.621  10.369  0.1927 -0.5430 -0.7050
   98OSM    H6S 9756   1.570   2.518  10.365  0.3168 -0.7244  1.8924
   98OSM    H6T 9757   1.721   2.620  10.369  0.1872 -0.9731  0.5894
   98OSM    C7S 9758   1.568   2.706  10.244  0.6271 -0.2898  0.2848
   98OSM    H7S 9759   1.608   2.808  10.265 -0.9818  0.2352  0.9076
   98OSM    H7T 9760   1.457   2.708  10.242  0.6471  0.0796 -0.4297
   98OSM    C8S 9761   1.617   2.649  10.109  0.0485  1.0858  0.6061
   98OSM    H8S 9762   1.592   2.541  10.111  1.1436  0.8413  1.6606
   98OSM    H8T 9763   1.728   2.641  10.110 -0.1784 -3.2046 -0.1343
   98OSM    C9S 9764   1.557   2.717   9.988  0.2223  0.6634 -1.0741
   98OSM    H9S 9765   1.602   2.818   9.979 -0.3953  1.1967  1.6229
   98OSM    H9T 9766   1.447   2.719  10.001  0.4579 -0.6558  1.4512
   98OSM   C10S 9767   1.583   2.637   9.860 -0.5036  0.1636 -0.3511
   98OSM   H10S 9768   1.570   2.529   9.881  2.4007 -0.7018 -2.6527
   98OSM   H10T 9769   1.690   2.651   9.834 -0.3149  2.1166  1.3708
   98OSM   C11S 9770   1.492   2.666   9.747 -0.0807 -0.0581 -0.1038
   98OSM   H11S 9771   1.388   2.653   9.784 -0.8331  2.0309 -1.4502
   98OSM   H11T 9772   1.509   2.587   9.671  0.8020 -0.9556  0.9998
   98OSM   C12S 9773   1.535   2.804   9.689  0.2842 -0.5432 -0.1328
   98OSM   H12S 9774   1.646   2.806   9.692  0.2500 -0.0677  1.2948
   98OSM   H12T 9775   1.498   2.883   9.758 -0.6615 -0.3242 -0.8866
   98OSM   C13S 9776   1.476   2.842   9.560  0.3112  0.0745 -0.0900
   98OSM   H13S 9777   1.468   2.952   9.547  0.4707 -0.0624 -1.4356
   98OSM   H13T 9778   1.371   2.808   9.549  0.0210  0.3872  1.6840
   98OSM   C14S 9779   1.547   2.791   9.432 -0.4957  0.5900 -0.2506
   98OSM   H14S 9780   1.549   2.680   9.441 -0.7514  0.7222  1.6649
   98OSM   H14T 9781   1.651   2.830   9.434 -0.1664 -0.2567 -0.5065
   98OSM   C15S 9782   1.500   2.853   9.295 -0.1443 -0.2078  0.5111
   98OSM   H15S 9783   1.503   2.964   9.299  0.8519 -0.2977  2.8721
   98OSM   H15T 9784   1.396   2.823   9.270 -0.1835  1.2326 -1.1342
   98OSM   C16S 9785   1.584   2.791   9.185  0.5343 -1.0366 -0.4742
   98OSM   H16S 9786   1.564   2.682   9.195 -1.2137 -0.7900 -1.1094
   98OSM   H16T 9787   1.686   2.807   9.226  0.8467 -0.3328 -1.5263
   98OSM   C17S 9788   1.556   2.851   9.043 -0.1890 -0.3690 -0.1539
   98OSM   H17S 9789   1.624   2.797   8.974  2.3790  0.9060  1.3044
   98OSM   H17T 9790   1.595   2.954   9.055  2.0380 -1.3887  2.0493
   98OSM   C18S 9791   1.414   2.833   8.991 -0.3726  0.4245  0.6817
   98OSM   H18S 9792   1.389   2.727   8.970  1.3188 -0.3478  2.5203
   98OSM   H18T 9793   1.405   2.883   8.892 -0.7803  1.2448  1.1304
   98OSM   H18U 9794   1.345   2.885   9.061 -0.2406  1.6777 -0.0970
   98OSM    C1F 9795   1.511   3.170  10.415 -0.2309 -0.0491 -1.7596
   98OSM     OF 9796   1.567   3.267  10.464 -0.2871 -1.1043  0.5333
   98OSM    C2F 9797   1.439   3.185  10.279  0.1377 -0.2359  0.1792
   98OSM    H2F 9798   1.431   3.295  10.274  2.1568 -0.1993 -3.1690
   98OSM    H2G 9799   1.337   3.142  10.269 -0.0098  0.4119 -1.1743
   98OSM    C3F 9800   1.535   3.154  10.163  0.3028  0.2513 -0.5933
   98OSM    H3F 9801   1.528   3.043  10.170  1.6182  0.3166  2.2842
   98OSM    H3G 9802   1.639   3.186  10.184  0.3842 -1.9267  2.5303
   98OSM    C4F 9803   1.470   3.206  10.033 -0.7030 -0.0712 -0.7628
   98OSM    H4F 9804   1.432   3.310  10.050  0.6739  0.5959 -1.7207
   98OSM    H4G 9805   1.382   3.140  10.018  0.8057 -3.4956  4.3012
   98OSM    C5F 9806   1.564   3.194   9.910  0.8640  0.5023  0.0738
   98OSM    H5F 9807   1.566   3.087   9.878  3.9599  0.5286 -0.0029
   98OSM    H5G 9808   1.668   3.226   9.933 -0.5931  3.9194  2.2366
   98OSM    C6F 9809   1.502   3.267   9.794 -0.7672  0.4670 -0.5013
   98OSM    H6F 9810   1.487   3.376   9.809  1.1983  0.6769  0.0798
   98OSM    H6G 9811   1.403   3.219   9.782 -1.2893  1.5788 -0.6708
   98OSM    C7F 9812   1.581   3.227   9.664  0.3205 -0.5872 -0.3874
   98OSM    H7F 9813   1.607   3.120   9.652  0.1380 -0.5896 -0.7851
   98OSM    H7G 9814   1.673   3.289   9.670  1.4472 -1.8798 -3.2832
   98OSM    C8F 9815   1.503   3.269   9.536 -0.1312  0.1255  0.3837
   98OSM    H8F 9816   1.449   3.363   9.564  1.4949  2.1597 -3.0093
   98OSM    H8G 9817   1.438   3.188   9.497 -0.1339  1.2575 -2.0613
   98OSM    C9F 9818   1.602   3.297   9.423  0.0127 -0.0712 -1.5744
   98OSM    H9F 9819   1.709   3.291   9.446  0.0181  3.5458 -0.2717
   98OSM   C10F 9820   1.578   3.340   9.296 -0.0025 -1.0743 -0.1855
   98OSM   H10F 9821   1.663   3.366   9.231 -1.8781  1.0625 -1.8540
   98OSM   C11F 9822   1.443   3.342   9.239 -0.0580  0.4121  0.0302
   98OSM   H11F 9823   1.386   3.435   9.260  0.5624  0.4342  1.7320
   98OSM   H11G 9824   1.380   3.261   9.282 -0.1156  0.0063 -0.8197
   98OSM   C12F 9825   1.416   3.319   9.085  0.4951 -0.7406  0.3758
   98OSM   H12F 9826   1.307   3.317   9.067  0.7595 -0.9534 -1.2551
   98OSM   H12G 9827   1.457   3.219   9.059 -1.4038 -1.2228 -0.8502
   98OSM   C13F 9828   1.472   3.423   8.990 -0.4090 -0.3377 -0.5644
   98OSM   H13F 9829   1.579   3.437   9.016 -0.0290 -0.5837 -1.9411
   98OSM   H13G 9830   1.429   3.525   8.998  1.4164  0.4480 -0.4557
   98OSM   C14F 9831   1.463   3.380   8.845 -0.9778 -0.5280  0.2535
   98OSM   H14F 9832   1.360   3.352   8.814 -1.3659  1.0031  0.1121
   98OSM   H14G 9833   1.517   3.284   8.836 -1.1608 -0.8780  2.5883
   98OSM   C15F 9834   1.538   3.480   8.745 -0.0631  0.5035  0.5020
   98OSM   H15F 9835   1.621   3.526   8.802  0.7220  0.9501 -0.9836
   98OSM   H15G 9836   1.479   3.568   8.712  1.8064  2.3740  2.0152
   98OSM   C16F 9837   1.586   3.401   8.618 -0.5961 -0.4189 -0.2318
   98OSM   H16F 9838   1.498   3.361   8.563  0.3240 -3.9095  0.7653
   98OSM   H16G 9839   1.651   3.319   8.655 -1.6260 -1.2992 -0.3698
   98OSM   C17F 9840   1.666   3.489   8.517  0.3914  0.8536  0.1182
   98OSM   H17F 9841   1.769   3.505   8.555  1.0425 -0.2529 -1.1201
   98OSM   H17G 9842   1.621   3.590   8.513 -0.1586  0.5507 -3.0647
   98OSM   C18F 9843   1.687   3.438   8.371 -0.2769  0.7227  0.2005
   98OSM   H18F 9844   1.739   3.514   8.308 -0.9017  0.6027 -0.4600
   98OSM   H18G 9845   1.586   3.427   8.327  0.4646  1.5814 -1.8059
   98OSM   H18H 9846   1.736   3.338   8.366 -1.1668  0.0990  3.2361
   99OSM      N 9847   3.491   4.290  11.138  0.0147  0.3190 -0.0969
   99OSM    C15 9848   3.633   4.335  11.137  0.0661 -0.5643  0.3739
   99OSM   H15A 9849   3.659   4.393  11.050  0.0553 -0.1039  0.6790
   99OSM   H15B 9850   3.703   4.253  11.150  0.7052 -0.0472  0.1897
   99OSM   H15C 9851   3.646   4.398  11.224  1.7833 -1.2569  0.6395
   99OSM    C14 9852   3.473   4.177  11.246  0.1370  0.1594 -0.3407
   99OSM   H14A 9853   3.497   4.202  11.348  0.1475 -0.9752 -0.0624
   99OSM   H14B 9854   3.523   4.084  11.227 -0.3360 -0.0138 -0.7795
   99OSM   H14C 9855   3.372   4.138  11.246  1.7715 -4.3649 -1.4357
   99OSM    C13 9856   3.400   4.401  11.177 -0.0063  0.3668  0.1461
   99OSM   H13A 9857   3.414   4.436  11.278  0.3256 -1.8034  0.8884
   99OSM   H13B 9858   3.301   4.358  11.167  0.7667 -1.4028 -0.0884
   99OSM   H13C 9859   3.414   4.480  11.106 -2.1663 -0.6397 -1.4617
   99OSM    C12 9860   3.450   4.241  11.002 -0.2270 -0.2359 -0.0378
   99OSM   H12A 9861   3.342   4.237  11.012 -0.2640  1.9097  0.5603
   99OSM   H12B 9862   3.482   4.139  10.986  0.6175 -0.0692  0.5917
   99OSM    C11 9863   3.493   4.316  10.866  0.0930 -0.0027 -0.3092
   99OSM   H11A 9864   3.477   4.426  10.875  0.8717 -0.0135  1.6034
   99OSM   H11B 9865   3.434   4.286  10.777  1.0056  0.2291 -0.9985
   99OSM      P 9866   3.685   4.162  10.791 -0.5183  0.0052  0.0034
   99OSM    O13 9867   3.832   4.165  10.778 -0.2240  0.1842 -0.0141
   99OSM    O14 9868   3.632   4.046  10.874 -0.4692 -0.5171  0.7329
   99OSM    O11 9869   3.625   4.150  10.643 -0.1072  0.3242 -0.4772
   99OSM    O12 9870   3.636   4.297  10.842 -0.5283 -0.0505 -0.2887
   99OSM    C1S 9871   3.655   4.256  10.547 -0.2948 -0.1568  0.7643
   99OSM    H1S 9872   3.764   4.269  10.530 -0.7515  0.0550 -2.2704
   99OSM    H1T 9873   3.613   4.355  10.576  2.6189  1.1467  0.7368
   99OSM     NF 9874   3.669   4.325  10.308  0.1563 -0.5233 -0.1283
   99OSM    HNF 9875   3.607   4.376  10.250 -0.2526 -2.2307 -1.2232
   99OSM    C2S 9876   3.611   4.224  10.392 -0.2708  0.8160  0.0129
   99OSM    H2S 9877   3.652   4.123  10.368 -0.1077  1.2139 -1.4236
   99OSM    C3S 9878   3.459   4.206  10.384 -0.0499 -0.8289  0.6555
   99OSM    H3S 9879   3.411   4.299  10.421  1.6483  0.6436 -0.7636
   99OSM     O3 9880   3.411   4.096  10.465 -0.4990 -0.0223 -0.7586
   99OSM    HO3 9881   3.489   4.050  10.497  1.6370  3.0294 -1.3891
   99OSM    C4S 9882   3.421   4.184  10.237  0.5178 -0.1887  0.1553
   99OSM    H4S 9883   3.420   4.280  10.183  0.4785 -0.1767  0.1770
   99OSM    C5S 9884   3.403   4.066  10.166  0.2206 -0.6300  0.1719
   99OSM    H5S 9885   3.418   3.975  10.226  0.5999  1.2196  3.0118
   99OSM    C6S 9886   3.374   4.050  10.014 -0.4770  0.4555 -0.2662
   99OSM    H6S 9887   3.298   3.971   9.995 -0.6882  0.5778  0.0617
   99OSM    H6T 9888   3.465   4.005   9.969 -0.1222 -0.6699  1.5367
   99OSM    C7S 9889   3.344   4.175   9.934  0.2223  0.1812  0.7160
   99OSM    H7S 9890   3.426   4.251   9.935 -2.5412  3.3240 -1.0846
   99OSM    H7T 9891   3.260   4.233   9.978  1.9357  0.3786  3.8290
   99OSM    C8S 9892   3.315   4.149   9.785  0.3552  0.0025 -0.0360
   99OSM    H8S 9893   3.404   4.105   9.735 -2.4143 -1.7165 -3.7328
   99OSM    H8T 9894   3.302   4.249   9.739  0.7714 -0.3235 -0.8893
   99OSM    C9S 9895   3.199   4.053   9.767  0.8202  0.6601 -0.1686
   99OSM    H9S 9896   3.107   4.094   9.815 -0.2352  2.0640 -3.2142
   99OSM    H9T 9897   3.230   3.953   9.805  1.4347  0.4992 -1.0777
   99OSM   C10S 9898   3.162   4.032   9.618  0.2523 -0.6493 -0.2899
   99OSM   H10S 9899   3.097   3.943   9.604 -0.9869  0.2427 -0.3079
   99OSM   H10T 9900   3.260   4.021   9.567 -0.4919 -4.4081 -1.0380
   99OSM   C11S 9901   3.078   4.140   9.554 -0.0427 -0.1410 -0.3766
   99OSM   H11S 9902   3.118   4.242   9.566 -1.3381  0.2725  0.6177
   99OSM   H11T 9903   2.973   4.136   9.591  0.3538  1.4910  1.0085
   99OSM   C12S 9904   3.069   4.126   9.402  0.3926 -0.2060 -0.8481
   99OSM   H12S 9905   3.153   4.080   9.347 -0.1373  0.1578 -1.9853
   99OSM   H12T 9906   2.991   4.048   9.385  1.6359 -1.2280 -1.9907
   99OSM   C13S 9907   3.047   4.259   9.329 -0.2344 -0.0364 -0.0087
   99OSM   H13S 9908   3.130   4.330   9.353  0.6163 -1.2244  0.6271
   99OSM   H13T 9909   2.963   4.318   9.373  0.0171  1.8028 -1.9413
   99OSM   C14S 9910   3.025   4.236   9.174 -1.1218 -0.3570 -0.3808
   99OSM   H14S 9911   2.937   4.171   9.156 -1.3775 -0.5967  1.6510
   99OSM   H14T 9912   3.112   4.186   9.126 -0.3363  0.8520 -0.2518
   99OSM   C15S 9913   2.993   4.366   9.105  0.0415  0.0872  0.7805
   99OSM   H15S 9914   2.903   4.415   9.149  1.0028  0.3638  2.4611
   99OSM   H15T 9915   2.965   4.350   8.999 -0.4613  0.3344  0.8763
   99OSM   C16S 9916   3.114   4.467   9.092  0.1923 -0.1026  0.1229
   99OSM   H16S 9917   3.202   4.418   9.045  0.4360 -0.2535  0.7217
   99OSM   H16T 9918   3.144   4.512   9.189  0.9892 -0.7433  0.1819
   99OSM   C17S 9919   3.081   4.578   8.998 -0.4109 -0.1374 -0.3853
   99OSM   H17S 9920   3.060   4.542   8.895  1.6131 -2.3255 -0.0991
   99OSM   H17T 9921   3.170   4.645   8.996  1.9761 -3.2241 -2.6086
   99OSM   C18S 9922   2.955   4.665   9.044 -0.2855 -0.2937 -0.4557
   99OSM   H18S 9923   2.860   4.607   9.044 -0.5087 -0.0244  3.0145
   99OSM   H18T 9924   2.945   4.751   8.975  2.2844  1.3008  1.0726
   99OSM   H18U 9925   2.981   4.708   9.143 -0.3447 -0.9532 -0.1501
   99OSM    C1F 9926   3.795   4.346  10.281 -0.1267  0.0455 -0.3108
   99OSM     OF 9927   3.885   4.284  10.335  0.3888  0.3053 -0.6449
   99OSM    C2F 9928   3.818   4.452  10.178 -0.4703  0.1011  0.3804
   99OSM    H2F 9929   3.828   4.551  10.226  0.6008 -0.4383  1.3077
   99OSM    H2G 9930   3.723   4.452  10.121 -1.0647  0.2041  1.3593
   99OSM    C3F 9931   3.943   4.425  10.087  0.2301 -0.2847 -0.1106
   99OSM    H3F 9932   3.969   4.515  10.027  1.5687 -0.4126  0.2607
   99OSM    H3G 9933   4.034   4.412  10.150  0.1594 -0.4635 -0.0428
   99OSM    C4F 9934   3.934   4.296  10.007 -0.5101 -0.3441 -0.1989
   99OSM    H4F 9935   3.908   4.210  10.072 -1.1935 -0.3483 -0.4741
   99OSM    H4G 9936   4.024   4.271   9.949  0.4515  0.6669  0.8235
   99OSM    C5F 9937   3.817   4.295   9.913  0.4673 -0.6883  0.2163
   99OSM    H5F 9938   3.720   4.304   9.967 -0.8169 -0.0550 -2.1530
   99OSM    H5G 9939   3.820   4.207   9.845  1.3767  0.8217 -1.7431
   99OSM    C6F 9940   3.828   4.405   9.803 -0.4858  0.3946  0.1573
   99OSM    H6F 9941   3.938   4.416   9.789 -0.1852 -1.3337  0.9757
   99OSM    H6G 9942   3.791   4.506   9.831  0.3993  1.6194 -2.9149
   99OSM    C7F 9943   3.759   4.370   9.669  0.1496  0.3753 -0.1312
   99OSM    H7F 9944   3.778   4.264   9.640  0.7410  0.5799 -0.4806
   99OSM    H7G 9945   3.820   4.431   9.600  3.1763 -1.1731  1.0892
   99OSM    C8F 9946   3.607   4.408   9.662  0.4298  0.1465  0.5930
   99OSM    H8F 9947   3.601   4.518   9.677 -3.8253  0.1805 -0.5536
   99OSM    H8G 9948   3.547   4.352   9.736  1.0144 -1.4049 -0.0858
   99OSM    C9F 9949   3.538   4.386   9.522  0.0562  0.1841 -0.0938
   99OSM    H9F 9950   3.549   4.283   9.486 -0.6193  0.2636 -0.5208
   99OSM   C10F 9951   3.464   4.464   9.438 -0.0214  0.4420 -0.0438
   99OSM   H10F 9952   3.435   4.426   9.338  1.1975  1.7249 -0.8947
   99OSM   C11F 9953   3.436   4.609   9.460  1.2645 -0.2186  0.9129
   99OSM   H11F 9954   3.432   4.633   9.568 -1.2989  1.9485  0.3802
   99OSM   H11G 9955   3.334   4.644   9.433  0.7213 -1.2570  1.6121
   99OSM   C12F 9956   3.562   4.684   9.401 -0.3972 -0.2760  0.4020
   99OSM   H12F 9957   3.655   4.650   9.450  1.0180  0.6926 -1.5600
   99OSM   H12G 9958   3.553   4.788   9.440  1.2745  0.2802 -0.6677
   99OSM   C13F 9959   3.566   4.679   9.245 -0.5427  0.2331 -0.3330
   99OSM   H13F 9960   3.546   4.575   9.211  2.4863  0.0100 -1.6416
   99OSM   H13G 9961   3.663   4.713   9.202  0.4526 -1.0061  0.8643
   99OSM   C14F 9962   3.453   4.753   9.170  0.0412  0.1812 -0.1841
   99OSM   H14F 9963   3.441   4.856   9.210 -1.9686 -0.2222  0.3129
   99OSM   H14G 9964   3.364   4.700   9.209 -0.3355  1.3764  0.6226
   99OSM   C15F 9965   3.450   4.741   9.016 -0.9022  0.1402  0.2722
   99OSM   H15F 9966   3.360   4.796   8.980 -0.3868  1.5612  1.1057
   99OSM   H15G 9967   3.455   4.635   8.983 -2.2502  1.2736 -3.9089
   99OSM   C16F 9968   3.569   4.814   8.955 -0.6102 -0.1417 -0.2942
   99OSM   H16F 9969   3.662   4.754   8.961  0.8934  2.1697  0.5912
   99OSM   H16G 9970   3.601   4.910   9.003 -0.1206 -1.0645  1.2633
   99OSM   C17F 9971   3.552   4.842   8.799 -0.0184 -0.4083  0.2518
   99OSM   H17F 9972   3.482   4.925   8.776  3.8227  2.0824 -3.2080
   99OSM   H17G 9973   3.519   4.746   8.755  0.7352 -0.7124  0.3435
   99OSM   C18F 9974   3.688   4.881   8.736  0.5728 -0.2137  0.3331
   99OSM   H18F 9975   3.751   4.791   8.755  0.6566 -0.2631 -0.1815
   99OSM   H18G 9976   3.732   4.963   8.796 -1.6895  0.1320  1.5850
   99OSM   H18H 9977   3.680   4.903   8.628  0.5322  0.1702  0.4128
  100OSM      N 9978   5.646   5.421  10.966  0.4751  0.3814  0.4087
  100OSM    C15 9979   5.783   5.435  10.907  0.4139 -0.0346 -0.3701
  100OSM   H15A 9980   5.787   5.479  10.808  0.1089  1.1566  0.1390
  100OSM   H15B 9981   5.817   5.334  10.895  1.9743 -0.2587  4.7557
  100OSM   H15C 9982   5.852   5.504  10.952 -1.7167  2.2349 -0.4580
  100OSM    C14 9983   5.652   5.345  11.082 -0.5275  1.1143  0.8237
  100OSM   H14A 9984   5.555   5.321  11.124 -0.3665 -0.6931  0.2027
  100OSM   H14B 9985   5.721   5.389  11.152  1.1331 -0.7531  0.3964
  100OSM   H14C 9986   5.692   5.249  11.051 -0.4003  2.2244 -2.6102
  100OSM    C13 9987   5.603   5.562  10.997  0.6578  0.5438 -0.0811
  100OSM   H13A 9988   5.667   5.618  11.065  0.7949 -1.2240  1.2824
  100OSM   H13B 9989   5.502   5.572  11.034  0.4440 -0.9677 -0.2250
  100OSM   H13C 9990   5.601   5.616  10.904  1.7714  0.0096 -0.4258
  100OSM    C12 9991   5.551   5.350  10.862  0.1136 -0.2009 -0.0809
  100OSM   H12A 9992   5.540   5.416  10.778 -1.0806 -1.9007 -1.2977
  100OSM   H12B 9993   5.457   5.332  10.913  0.6065 -1.5031  0.3896
  100OSM    C11 9994   5.594   5.215  10.795  0.2635 -0.0638 -0.0738
  100OSM   H11A 9995   5.696   5.218  10.750 -0.3820 -2.2941 -1.7994
  100OSM   H11B 9996   5.525   5.202  10.709  0.0743 -2.3434  0.3887
  100OSM      P 9997   5.483   4.990  10.866 -0.2929 -0.1444  0.0494
  100OSM    O13 9998   5.506   4.875  10.956 -0.6268  0.3153 -0.0664
  100OSM    O14 9999   5.354   5.056  10.870  0.1727  0.8349 -0.3869
  100OSM    O1110000   5.514   4.940  10.718  0.3975  0.0929  0.1825
  100OSM    O1210001   5.590   5.104  10.894 -0.4952  0.0028  0.2760
  100OSM    C1S10002   5.649   4.900  10.686 -0.1994  0.5500  0.3228
  100OSM    H1S10003   5.684   4.809  10.739  0.2305  0.2348 -0.4921
  100OSM    H1T10004   5.721   4.983  10.706 -2.0091  2.0831  0.6253
  100OSM     NF10005   5.789   4.819  10.492  0.1715  0.2188 -0.2152
  100OSM    HNF10006   5.836   4.881  10.430 -1.1267  0.6880 -0.7430
  100OSM    C2S10007   5.656   4.869  10.537  0.1246 -0.6920 -0.5284
  100OSM    H2S10008   5.589   4.782  10.519 -2.3535  1.4699 -2.0724
  100OSM    C3S10009   5.616   4.995  10.449 -0.8948 -0.3435  0.7030
  100OSM    H3S10010   5.678   5.082  10.481 -1.3638  0.5173 -0.7026
  100OSM     O310011   5.484   5.040  10.470 -0.0064  0.7108 -0.2204
  100OSM    HO310012   5.490   5.020  10.564 -1.2691 -3.4943 -0.9567
  100OSM    C4S10013   5.640   4.970  10.299  0.6316 -0.1714  0.0442
  100OSM    H4S10014   5.591   4.876  10.269 -1.1003 -0.6703  4.1011
  100OSM    C5S10015   5.693   5.062  10.213  0.1996  0.0424  0.3156
  100OSM    H5S10016   5.741   5.152  10.253  3.5235 -0.6337 -2.0296
  100OSM    C6S10017   5.714   5.044  10.061  0.0490 -0.6566  0.7778
  100OSM    H6S10018   5.645   5.103   9.997 -0.3953 -0.2330  1.6422
  100OSM    H6T10019   5.690   4.941  10.026 -1.2324 -0.2735  0.5043
  100OSM    C7S10020   5.857   5.068  10.008 -0.7537 -0.2886 -0.2369
  100OSM    H7S10021   5.920   5.000  10.070  1.3342 -1.3115 -3.3887
  100OSM    H7T10022   5.882   5.175  10.023 -0.6576 -0.1744 -1.2334
  100OSM    C8S10023   5.883   5.026   9.869 -0.4121 -0.0342  0.4826
  100OSM    H8S10024   5.860   4.920   9.844  0.5750 -0.4621  1.3943
  100OSM    H8T10025   5.993   5.039   9.863 -0.5060  1.9914  2.5470
  100OSM    C9S10026   5.820   5.130   9.772 -0.0118  0.2340  0.4258
  100OSM    H9S10027   5.852   5.232   9.801 -0.0495  0.8152 -1.4740
  100OSM    H9T10028   5.709   5.133   9.765 -0.0986 -0.6209  1.2938
  100OSM   C10S10029   5.879   5.105   9.630  0.0310 -0.2960 -0.1452
  100OSM   H10S10030   5.841   5.004   9.604  1.2520 -0.9121  0.4410
  100OSM   H10T10031   5.990   5.105   9.631  0.0424  1.0966  1.4925
  100OSM   C11S10032   5.828   5.204   9.528  0.6297 -0.1895  0.0605
  100OSM   H11S10033   5.870   5.306   9.541  1.3441 -0.4970  0.2198
  100OSM   H11T10034   5.720   5.225   9.540  1.3193  3.4599  0.4584
  100OSM   C12S10035   5.837   5.163   9.381  0.3589 -0.4340  0.0780
  100OSM   H12S10036   5.765   5.078   9.372 -0.4517  0.4501 -2.0769
  100OSM   H12T10037   5.936   5.128   9.346  0.8164  0.4936  0.4397
  100OSM   C13S10038   5.789   5.276   9.298  0.2031 -0.9987  0.0471
  100OSM   H13S10039   5.866   5.356   9.294  1.1993 -1.9673 -0.4814
  100OSM   H13T10040   5.699   5.322   9.344  0.8245  2.7741 -2.2913
  100OSM   C14S10041   5.752   5.223   9.157  0.1738  0.0877 -0.0252
  100OSM   H14S10042   5.674   5.145   9.174  0.6854 -0.5241 -0.4851
  100OSM   H14T10043   5.844   5.192   9.103  0.1881 -2.4531  1.3599
  100OSM   C15S10044   5.680   5.329   9.072  0.4843  0.3273  0.4250
  100OSM   H15S10045   5.680   5.292   8.967  1.5128 -1.0651  0.9137
  100OSM   H15T10046   5.739   5.423   9.071  0.9825  0.0195 -1.2389
  100OSM   C16S10047   5.548   5.382   9.131  0.1693  0.0162 -0.2819
  100OSM   H16S10048   5.579   5.431   9.226  1.0098  0.6983 -0.8908
  100OSM   H16T10049   5.492   5.287   9.147 -0.4829  0.7441  1.9419
  100OSM   C17S10050   5.494   5.490   9.036  0.5706  0.2501  0.2489
  100OSM   H17S10051   5.573   5.568   9.025  0.3060  0.4173 -0.5128
  100OSM   H17T10052   5.402   5.535   9.080  2.0328  2.2888  1.3335
  100OSM   C18S10053   5.468   5.451   8.885  0.0913  0.5090  0.3698
  100OSM   H18S10054   5.397   5.521   8.836  0.2381 -0.4368 -1.1967
  100OSM   H18T10055   5.427   5.348   8.876  2.0997 -0.3206  0.4073
  100OSM   H18U10056   5.562   5.456   8.827  1.1056  1.6046  2.0544
  100OSM    C1F10057   5.836   4.701  10.527 -0.2884  0.1350 -0.5757
  100OSM     OF10058   5.770   4.627  10.594  0.1379  0.3859 -0.5145
  100OSM    C2F10059   5.966   4.664  10.480 -0.4830  0.7289 -0.1591
  100OSM    H2F10060   5.983   4.555  10.485 -0.4381  0.7335 -0.2057
  100OSM    H2G10061   6.043   4.705  10.548  0.5609  1.6828 -1.8847
  100OSM    C3F10062   5.983   4.700  10.330  0.3762 -0.0056 -0.7051
  100OSM    H3F10063   6.073   4.658  10.280 -0.2913  0.0107 -1.9486
  100OSM    H3G10064   5.977   4.808  10.305 -1.4085  0.4111  1.4310
  100OSM    C4F10065   5.875   4.631  10.245 -0.1186 -0.2969  0.7848
  100OSM    H4F10066   5.783   4.689  10.266 -0.0353  0.3519 -0.6143
  100OSM    H4G10067   5.849   4.530  10.283  0.7462 -1.3585 -1.3525
  100OSM    C5F10068   5.894   4.633  10.092  0.1367 -0.0108 -0.4497
  100OSM    H5F10069   5.984   4.572  10.070 -0.4464 -0.7789 -0.7435
  100OSM    H5G10070   5.929   4.731  10.054  2.3836 -0.5278  0.2211
  100OSM    C6F10071   5.774   4.596  10.015  0.3945 -0.1440 -0.1896
  100OSM    H6F10072   5.787   4.636   9.912  0.0658  1.5650  0.4132
  100OSM    H6G10073   5.687   4.645  10.065  1.1116  0.7661  0.1663
  100OSM    C7F10074   5.753   4.440   9.990 -0.5329  0.5325 -0.3040
  100OSM    H7F10075   5.745   4.388  10.087  2.6558  1.1441  0.3287
  100OSM    H7G10076   5.848   4.401   9.948 -0.4192  0.0092  0.4365
  100OSM    C8F10077   5.633   4.420   9.902  0.2397  0.2730  0.6181
  100OSM    H8F10078   5.646   4.484   9.812  0.0915  0.3754  0.6715
  100OSM    H8G10079   5.540   4.460   9.947  0.1943  2.7463 -1.5771
  100OSM    C9F10080   5.619   4.277   9.856 -0.1423  0.5328 -0.2899
  100OSM    H9F10081   5.598   4.204   9.935  0.5637  0.8970  0.2383
  100OSM   C10F10082   5.635   4.242   9.728  0.3641 -0.1631 -0.5051
  100OSM   H10F10083   5.629   4.136   9.700 -2.2288 -0.4601  1.1079
  100OSM   C11F10084   5.671   4.323   9.607 -0.3526 -0.4568  0.2946
  100OSM   H11F10085   5.735   4.265   9.537 -1.8057 -0.6414 -0.8883
  100OSM   H11G10086   5.731   4.408   9.644  1.8082 -1.6071 -0.4464
  100OSM   C12F10087   5.545   4.357   9.531 -0.3615 -0.6682 -0.1857
  100OSM   H12F10088   5.464   4.406   9.590  1.2647  1.6981  0.1342
  100OSM   H12G10089   5.498   4.263   9.493  2.3504 -1.2669 -2.2199
  100OSM   C13F10090   5.578   4.439   9.403 -0.0342 -0.6302  0.2412
  100OSM   H13F10091   5.614   4.540   9.435 -2.2519 -0.6691  3.0869
  100OSM   H13G10092   5.480   4.454   9.353  0.2040 -2.4251 -0.8156
  100OSM   C14F10093   5.682   4.377   9.315  0.6685 -0.8586 -0.1232
  100OSM   H14F10094   5.660   4.268   9.308 -0.5716 -0.4196 -5.1581
  100OSM   H14G10095   5.788   4.379   9.351  0.5189  0.6388  0.2734
  100OSM   C15F10096   5.675   4.435   9.171 -0.2305 -0.0605  0.5405
  100OSM   H15F10097   5.671   4.546   9.171  1.7882  0.0485  2.6599
  100OSM   H15G10098   5.578   4.392   9.139 -0.5433  0.1938  1.1361
  100OSM   C16F10099   5.784   4.370   9.079  0.1127  0.0283 -0.5461
  100OSM   H16F10100   5.762   4.261   9.086  1.7541 -0.2217  1.0669
  100OSM   H16G10101   5.886   4.385   9.118  0.2568 -2.2145  0.0004
  100OSM   C17F10102   5.774   4.407   8.934  0.5631  0.8196  0.2713
  100OSM   H17F10103   5.772   4.518   8.926  0.0629  0.7411 -0.8193
  100OSM   H17G10104   5.676   4.376   8.890  1.0673  1.3486 -1.2542
  100OSM   C18F10105   5.879   4.346   8.842 -0.6717 -0.2396  0.1036
  100OSM   H18F10106   5.872   4.391   8.741 -1.5153 -0.2155  0.1659
  100OSM   H18G10107   5.871   4.235   8.837 -1.2623 -0.1709 -0.6748
  100OSM   H18H10108   5.984   4.357   8.874 -0.3357 -2.0230 -0.2965
  101OSM      N10109   1.062   4.747  10.889  0.7995  0.3880  0.2531
  101OSM    C1510110   0.928   4.689  10.861  0.3480 -0.1570  0.0580
  101OSM   H15A10111   0.885   4.722  10.767  1.3714  0.9627 -0.0325
  101OSM   H15B10112   0.855   4.705  10.938  2.5084  1.6720  1.7829
  101OSM   H15C10113   0.931   4.582  10.849  0.2807 -0.0104 -1.4619
  101OSM    C1410114   1.160   4.721  10.775  0.2205 -0.3853  0.4232
  101OSM   H14A10115   1.251   4.775  10.799  1.0462 -0.4973 -2.2874
  101OSM   H14B10116   1.125   4.759  10.681  2.2684  0.8642  0.1440
  101OSM   H14C10117   1.176   4.615  10.761 -1.4872 -0.5233 -0.5298
  101OSM    C1310118   1.060   4.897  10.887 -0.2839  0.9666 -0.2885
  101OSM   H13A10119   0.983   4.932  10.954 -3.1305 -0.2096 -2.8336
  101OSM   H13B10120   1.031   4.944  10.795 -0.0634 -0.8986 -1.3239
  101OSM   H13C10121   1.152   4.947  10.913  0.5952 -0.8925  0.3014
  101OSM    C1210122   1.122   4.687  11.014 -0.0055 -0.5600  0.7835
  101OSM   H12A10123   1.072   4.731  11.098 -1.6101  0.4546 -0.6774
  101OSM   H12B10124   1.226   4.714  11.014  0.5529 -2.5469  1.9924
  101OSM    C1110125   1.117   4.534  11.040 -0.1504 -0.9039 -0.2646
  101OSM   H11A10126   1.012   4.500  11.029 -0.0918 -1.1917  0.0674
  101OSM   H11B10127   1.157   4.507  11.140 -0.2090 -0.8153 -0.2162
  101OSM      P10128   1.185   4.321  10.911  0.5203 -0.1935  0.0417
  101OSM    O1310129   1.189   4.250  11.044  0.0700  0.0529  0.1229
  101OSM    O1410130   1.063   4.295  10.830 -0.1296 -0.5973  0.1724
  101OSM    O1110131   1.312   4.281  10.832  0.0504 -0.0794  0.1496
  101OSM    O1210132   1.194   4.475  10.936  0.3382  0.3053  0.5799
  101OSM    C1S10133   1.345   4.335  10.702  0.0686 -0.3174  0.0528
  101OSM    H1S10134   1.340   4.446  10.698  0.0546 -0.2212  2.2242
  101OSM    H1T10135   1.272   4.303  10.625 -0.4860 -0.8734  0.8048
  101OSM     NF10136   1.511   4.368  10.523 -0.1965  0.0899  0.3030
  101OSM    HNF10137   1.495   4.320  10.437 -0.7679 -0.0376  0.4752
  101OSM    C2S10138   1.489   4.293  10.647  0.1302  0.2108  0.4110
  101OSM    H2S10139   1.575   4.316  10.714 -0.8883 -1.3594  2.2894
  101OSM    C3S10140   1.486   4.130  10.634 -0.6268  0.4916  0.1644
  101OSM    H3S10141   1.392   4.095  10.585 -1.5340  0.8668  1.5850
  101OSM     O310142   1.470   4.063  10.768  0.3272  0.1534  0.1789
  101OSM    HO310143   1.438   4.130  10.829 -1.2091 -0.6932  0.3234
  101OSM    C4S10144   1.603   4.088  10.550  0.1418 -0.2095  0.6389
  101OSM    H4S10145   1.574   4.088  10.444  1.4432 -0.0724  0.2807
  101OSM    C5S10146   1.721   4.050  10.589 -0.2921  0.1227 -0.2000
  101OSM    H5S10147   1.725   4.043  10.698 -3.7731  0.3245 -0.0148
  101OSM    C6S10148   1.838   4.008  10.504  0.0476  0.6438 -0.0592
  101OSM    H6S10149   1.863   3.904  10.532  1.3626  2.0106  4.1286
  101OSM    H6T10150   1.928   4.066  10.535  0.9144 -1.5686  1.7089
  101OSM    C7S10151   1.812   4.033  10.356 -0.2026  0.3696 -0.0108
  101OSM    H7S10152   1.822   4.143  10.342  0.9434  0.0963 -1.3877
  101OSM    H7T10153   1.714   3.994  10.322  0.3009  1.0232 -2.2801
  101OSM    C8S10154   1.908   3.966  10.266  0.0944  0.0506  0.5026
  101OSM    H8S10155   1.914   3.855  10.269  0.9927  0.1107  1.0939
  101OSM    H8T10156   2.009   4.004  10.290  0.0572 -0.0405  0.8076
  101OSM    C9S10157   1.871   4.000  10.119 -0.0296 -0.5509  0.2008
  101OSM    H9S10158   1.876   4.109  10.103  1.2344 -0.8924 -2.0036
  101OSM    H9T10159   1.767   3.968  10.101  0.7807 -2.0409 -2.0051
  101OSM   C10S10160   1.964   3.944  10.019 -0.3567 -0.7949 -1.2308
  101OSM   H10S10161   1.955   3.833  10.017 -2.2486 -0.6547 -1.5196
  101OSM   H10T10162   2.071   3.966  10.040 -0.9311  0.1727  0.7605
  101OSM   C11S10163   1.923   3.991   9.883  0.5834  0.0224 -0.2092
  101OSM   H11S10164   1.914   4.099   9.860 -0.5749 -0.0863 -0.3015
  101OSM   H11T10165   1.824   3.947   9.861  0.9283 -1.7100  1.6170
  101OSM   C12S10166   2.019   3.942   9.767  0.1599 -0.1345  0.3860
  101OSM   H12S10167   1.992   3.835   9.762 -3.4734  0.7397 -0.0876
  101OSM   H12T10168   2.125   3.940   9.801 -0.2692 -0.7558  1.7489
  101OSM   C13S10169   2.004   4.025   9.635  0.2669 -0.1332  0.2885
  101OSM   H13S10170   2.037   4.127   9.665 -0.8626 -0.3766  2.4784
  101OSM   H13T10171   1.898   4.003   9.608  0.3804 -0.1410 -0.1517
  101OSM   C14S10172   2.081   3.974   9.514 -0.1352 -0.2414 -0.3930
  101OSM   H14S10173   2.079   3.863   9.510 -1.8935 -0.1246 -3.6153
  101OSM   H14T10174   2.188   4.003   9.527  0.7595 -2.8738 -1.4627
  101OSM   C15S10175   2.052   4.030   9.371  0.0490 -0.3751 -0.3699
  101OSM   H15S10176   2.037   4.139   9.381 -0.9224 -0.3927 -1.5243
  101OSM   H15T10177   1.955   3.981   9.347  0.0533 -0.3783 -0.3786
  101OSM   C16S10178   2.161   3.982   9.275 -0.3436 -0.2772  0.2218
  101OSM   H16S10179   2.183   3.874   9.270 -0.6041 -0.3251  0.0599
  101OSM   H16T10180   2.254   4.029   9.313  0.1419  0.2522 -1.5511
  101OSM   C17S10181   2.142   4.046   9.140  0.6688 -0.0359 -0.1807
  101OSM   H17S10182   2.137   4.156   9.151 -1.2574 -0.0730 -0.4678
  101OSM   H17T10183   2.041   4.022   9.100  0.3852 -0.1518  0.5990
  101OSM   C18S10184   2.247   4.027   9.036 -0.5147  0.1172  0.4881
  101OSM   H18S10185   2.239   3.927   8.989 -0.1286  0.3134 -0.0055
  101OSM   H18T10186   2.345   4.032   9.088 -2.0044 -0.0463  3.4170
  101OSM   H18U10187   2.239   4.107   8.959  3.2340 -1.1468 -1.3034
  101OSM    C1F10188   1.534   4.499  10.529 -0.1222  0.2968  0.3871
  101OSM     OF10189   1.522   4.556  10.639  0.1639  0.0374  0.0404
  101OSM    C2F10190   1.575   4.563  10.400  0.8716  0.7289  0.1396
  101OSM    H2F10191   1.506   4.533  10.318 -0.5455 -0.0231  1.5810
  101OSM    H2G10192   1.681   4.536  10.378  1.7860  2.1368  2.6120
  101OSM    C3F10193   1.567   4.723  10.397 -0.2076 -0.0297  0.2583
  101OSM    H3F10194   1.639   4.753  10.477  2.2314 -2.1350 -1.0539
  101OSM    H3G10195   1.462   4.751  10.421 -0.2244  0.3303 -0.2424
  101OSM    C4F10196   1.612   4.782  10.266  0.8331 -0.0552 -0.4762
  101OSM    H4F10197   1.585   4.889  10.259  1.2253  0.0279 -0.7680
  101OSM    H4G10198   1.547   4.736  10.188 -1.4436  0.0764  1.2985
  101OSM    C5F10199   1.762   4.768  10.246 -0.6132  0.2833 -0.0243
  101OSM    H5F10200   1.799   4.663  10.240  0.3971  0.5053  1.8160
  101OSM    H5G10201   1.817   4.818  10.329 -0.0227  1.0785 -0.8790
  101OSM    C6F10202   1.814   4.830  10.115 -0.0746  0.5223 -0.0885
  101OSM    H6F10203   1.921   4.804  10.098  0.3494  1.2344  1.3800
  101OSM    H6G10204   1.767   4.789  10.023  0.5193 -1.7774  0.6085
  101OSM    C7F10205   1.799   4.985  10.096 -0.0906 -0.1566  0.5203
  101OSM    H7F10206   1.855   5.039  10.176 -1.2073  0.9661  0.5669
  101OSM    H7G10207   1.698   5.026  10.117  0.2201  1.2811 -0.7178
  101OSM    C8F10208   1.849   5.035   9.958  0.1508  0.3462 -0.3811
  101OSM    H8F10209   1.952   5.005   9.929 -0.7036  0.2872 -3.5536
  101OSM    H8G10210   1.838   5.146   9.962 -1.6789  0.1360  1.2808
  101OSM    C9F10211   1.757   4.988   9.844 -0.3888 -0.4222 -0.7476
  101OSM    H9F10212   1.648   5.001   9.856 -0.5122 -0.3924 -1.8922
  101OSM   C10F10213   1.800   4.928   9.726  0.1534 -0.1030  0.1738
  101OSM   H10F10214   1.717   4.895   9.662  1.4955 -1.9845 -0.6446
  101OSM   C11F10215   1.936   4.892   9.687 -0.1747  0.5903  0.1626
  101OSM   H11F10216   1.934   4.787   9.651  1.3618  0.0616  1.5790
  101OSM   H11G10217   2.009   4.912   9.769 -0.3802  1.9503  0.0286
  101OSM   C12F10218   1.996   4.978   9.574  0.4405  0.7448  0.0380
  101OSM   H12F10219   1.962   5.081   9.595  2.4056  1.6437 -1.1131
  101OSM   H12G10220   1.940   4.946   9.483  2.1863  0.7225 -1.0356
  101OSM   C13F10221   2.144   4.970   9.546  0.0127  0.4381 -0.3639
  101OSM   H13F10222   2.168   4.861   9.541 -1.9054 -0.0485  0.1859
  101OSM   H13G10223   2.210   4.996   9.632  0.8536  1.2655 -1.2603
  101OSM   C14F10224   2.198   5.039   9.424 -0.3359  0.3270  0.3131
  101OSM   H14F10225   2.223   5.143   9.454  0.5962  0.3590 -0.5632
  101OSM   H14G10226   2.128   5.050   9.338  1.0196  1.3786 -0.6573
  101OSM   C15F10227   2.331   4.977   9.382  0.1890 -0.3548 -0.0282
  101OSM   H15F10228   2.315   4.871   9.355  0.8203 -0.6677  0.8288
  101OSM   H15G10229   2.407   4.972   9.463  0.0480  2.0722  0.2865
  101OSM   C16F10230   2.403   5.050   9.272  0.0816 -1.1908 -0.1479
  101OSM   H16F10231   2.397   5.157   9.303  0.1481 -1.1543 -0.2624
  101OSM   H16G10232   2.344   5.032   9.180 -1.2446  2.8855 -0.1999
  101OSM   C17F10233   2.555   5.011   9.249 -0.1372  0.3432  0.5916
  101OSM   H17F10234   2.611   5.024   9.345  0.2921  2.1310  0.1250
  101OSM   H17G10235   2.592   5.091   9.182  1.4325 -0.2266  0.7541
  101OSM   C18F10236   2.583   4.869   9.206  0.0109 -0.5645 -0.9611
  101OSM   H18F10237   2.692   4.852   9.191  0.1207  1.6126 -2.9037
  101OSM   H18G10238   2.545   4.847   9.104 -0.0819 -2.9327 -0.4430
  101OSM   H18H10239   2.543   4.785   9.267 -0.4667 -0.9003 -1.7176
  102OSM      N10240   3.832   0.182  10.830 -0.3413 -0.6344  0.2370
  102OSM    C1510241   3.852   0.179  10.684  0.2125 -0.1067 -0.1523
  102OSM   H15A10242   3.853   0.277  10.639  1.5182 -0.5526 -1.1117
  102OSM   H15B10243   3.778   0.124  10.628 -0.3637  1.6057 -1.0816
  102OSM   H15C10244   3.946   0.139  10.649 -0.0870 -0.3175 -0.7220
  102OSM    C1410245   3.926   0.280  10.897  0.0530  0.0391  0.4653
  102OSM   H14A10246   4.025   0.239  10.885  0.2047  0.4747  0.2278
  102OSM   H14B10247   3.907   0.279  11.003 -2.9580 -2.8738 -0.0240
  102OSM   H14C10248   3.898   0.379  10.864 -0.4369 -0.1842  0.2066
  102OSM    C1310249   3.694   0.237  10.863  0.0683  0.2905 -0.0332
  102OSM   H13A10250   3.614   0.176  10.824 -0.5089 -1.3809  3.4992
  102OSM   H13B10251   3.684   0.337  10.823 -0.3945  0.4290  0.4272
  102OSM   H13C10252   3.680   0.242  10.970  1.2030  1.8598  0.0593
  102OSM    C1210253   3.843   0.052  10.895  0.3309 -0.1952  0.3927
  102OSM   H12A10254   3.761  -0.009  10.862 -0.4741  1.3873 -0.6001
  102OSM   H12B10255   3.834   0.054  11.003 -0.6814  0.3029  0.3083
  102OSM    C1110256   3.975  -0.035  10.870 -0.2949  0.1391 -0.4001
  102OSM   H11A10257   3.964  -0.114  10.947  2.7954 -1.2848 -1.3434
  102OSM   H11B10258   4.064   0.026  10.898 -1.3555  0.6940  1.9094
  102OSM      P10259   3.933  -0.223  10.707 -0.2340 -0.4041  0.3469
  102OSM    O1310260   4.048  -0.316  10.721  0.4142  0.4200  0.2833
  102OSM    O1410261   3.806  -0.247  10.772 -0.1021 -0.5801  0.9006
  102OSM    O1110262   3.909  -0.222  10.545  0.5349 -0.1257 -0.2057
  102OSM    O1210263   3.981  -0.078  10.734  0.2737 -0.1029  0.8673
  102OSM    C1S10264   4.011  -0.139  10.474 -0.3300 -0.3667 -0.2603
  102OSM    H1S10265   4.117  -0.164  10.495 -0.0029  0.3732 -0.9782
  102OSM    H1T10266   3.997  -0.035  10.511  1.2817  0.9832 -3.2690
  102OSM     NF10267   4.086  -0.088  10.245 -0.8448 -0.7077 -0.3374
  102OSM    HNF10268   4.095   0.010  10.256  1.9918 -0.8453 -1.1193
  102OSM    C2S10269   3.977  -0.149  10.323 -0.1607 -0.1990  0.7383
  102OSM    H2S10270   3.958  -0.254  10.293 -2.2052  0.4589 -0.4195
  102OSM    C3S10271   3.842  -0.079  10.303 -0.3639  0.2361 -0.2853
  102OSM    H3S10272   3.860   0.026  10.333 -1.1912  0.0279  0.9710
  102OSM     O310273   3.736  -0.123  10.388 -0.8730  0.1837 -0.4640
  102OSM    HO310274   3.788  -0.177  10.447 -2.0906  0.6412  1.0650
  102OSM    C4S10275   3.803  -0.091  10.161 -0.5117  0.4172  0.2824
  102OSM    H4S10276   3.760  -0.189  10.133 -2.7392  1.2232  0.7589
  102OSM    C5S10277   3.804   0.002  10.064 -1.0849 -0.0406 -0.2126
  102OSM    H5S10278   3.853   0.100  10.079 -0.2892 -0.1682 -1.8674
  102OSM    C6S10279   3.752  -0.024   9.920  0.3494 -0.0022 -0.5137
  102OSM    H6S10280   3.663   0.036   9.893 -0.5744 -1.1755 -0.1086
  102OSM    H6T10281   3.715  -0.127   9.901  0.9120 -0.7021  2.0200
  102OSM    C7S10282   3.871  -0.006   9.826 -0.2364 -0.4569  0.6545
  102OSM    H7S10283   3.945  -0.086   9.849 -1.1082 -1.2968  0.5976
  102OSM    H7T10284   3.909   0.097   9.835  1.6158 -0.9805 -0.8829
  102OSM    C8S10285   3.820  -0.027   9.679 -0.2390 -0.3366  0.3884
  102OSM    H8S10286   3.719   0.019   9.674 -0.8033 -1.7175 -2.8571
  102OSM    H8T10287   3.814  -0.136   9.656  1.5089  0.0981 -2.4233
  102OSM    C9S10288   3.909   0.050   9.576  0.9257  0.1772 -0.5505
  102OSM    H9S10289   4.007  -0.000   9.573  1.4292  1.0617  0.6027
  102OSM    H9T10290   3.924   0.149   9.625  1.2544  0.9090 -2.0986
  102OSM   C10S10291   3.844   0.075   9.442 -0.4084 -0.0429  0.4015
  102OSM   H10S10292   3.742   0.116   9.458 -0.9870 -1.8962  1.6146
  102OSM   H10T10293   3.833  -0.022   9.390  0.3102  1.6964 -3.1886
  102OSM   C11S10294   3.917   0.185   9.357  0.2167 -0.2432  0.6798
  102OSM   H11S10295   3.910   0.277   9.418  1.2080 -0.4159  1.0735
  102OSM   H11T10296   3.865   0.211   9.263 -0.7662  0.1722  1.3358
  102OSM   C12S10297   4.066   0.143   9.333 -0.2102 -0.7417 -0.2178
  102OSM   H12S10298   4.078   0.035   9.313  3.2627 -0.0658 -2.1654
  102OSM   H12T10299   4.117   0.158   9.431 -3.2210  2.9756  0.9012
  102OSM   C13S10300   4.145   0.218   9.222  0.2675 -0.0218 -0.4066
  102OSM   H13S10301   4.249   0.180   9.232  0.2118 -0.2926 -0.8659
  102OSM   H13T10302   4.142   0.327   9.241 -1.9553 -0.1191 -0.1446
  102OSM   C14S10303   4.082   0.192   9.082 -0.2020  0.5442 -0.3928
  102OSM   H14S10304   3.988   0.251   9.072 -0.8725 -0.2414  1.1010
  102OSM   H14T10305   4.043   0.089   9.089 -1.4976  1.0585  0.0501
  102OSM   C15S10306   4.174   0.227   8.966 -0.4181  0.0043  0.8883
  102OSM   H15S10307   4.260   0.161   8.988  1.0289  1.8650  0.9874
  102OSM   H15T10308   4.204   0.334   8.961  1.1389 -0.5107 -3.3102
  102OSM   C16S10309   4.108   0.202   8.838  0.1709 -0.1454 -0.1906
  102OSM   H16S10310   4.060   0.295   8.799 -0.7339 -1.1530 -1.5230
  102OSM   H16T10311   4.024   0.131   8.847 -0.9108  0.9236 -1.4988
  102OSM   C17S10312   4.204   0.155   8.723  1.2838 -0.4353 -0.1403
  102OSM   H17S10313   4.264   0.069   8.758 -0.1673 -1.8613 -1.1123
  102OSM   H17T10314   4.267   0.243   8.698 -1.3557  0.7342 -2.9555
  102OSM   C18S10315   4.143   0.121   8.592 -0.1460  0.1916  1.1072
  102OSM   H18S10316   4.055   0.185   8.571 -0.0101  0.1423  0.3717
  102OSM   H18T10317   4.117   0.013   8.587  0.1072  0.2325 -1.6352
  102OSM   H18U10318   4.212   0.144   8.508 -1.4216  3.8543  0.9760
  102OSM    C1F10319   4.183  -0.163  10.189  0.8325 -0.3293  0.0710
  102OSM     OF10320   4.190  -0.279  10.215 -0.0541  0.1153 -0.1715
  102OSM    C2F10321   4.273  -0.101  10.088  0.1409  0.1486  0.3092
  102OSM    H2F10322   4.326  -0.014  10.133  1.3526 -1.0625  1.2369
  102OSM    H2G10323   4.205  -0.066  10.007  1.7183 -0.8865 -1.5137
  102OSM    C3F10324   4.388  -0.199  10.023  0.4079 -0.3711  0.4742
  102OSM    H3F10325   4.330  -0.280   9.974 -0.1272 -1.3419  2.6621
  102OSM    H3G10326   4.454  -0.236  10.104 -0.0430 -0.0217  1.0002
  102OSM    C4F10327   4.482  -0.139   9.923  0.1602  0.3977 -0.6313
  102OSM    H4F10328   4.562  -0.213   9.904 -0.7927 -1.1531  1.2397
  102OSM    H4G10329   4.531  -0.053   9.974 -0.9583  1.3283 -1.1009
  102OSM    C5F10330   4.410  -0.099   9.799  0.6131 -0.8250 -0.6308
  102OSM    H5F10331   4.320  -0.045   9.835  0.2045 -3.0124  1.8001
  102OSM    H5G10332   4.376  -0.194   9.752  0.2145 -1.0046  0.0141
  102OSM    C6F10333   4.490  -0.025   9.690  0.7354  0.7710 -0.0021
  102OSM    H6F10334   4.574  -0.093   9.664  0.7105  1.9603 -3.3273
  102OSM    H6G10335   4.524   0.074   9.726  2.3049  0.0223  0.6251
  102OSM    C7F10336   4.406   0.002   9.565  0.0726  0.0179 -0.5265
  102OSM    H7F10337   4.322   0.064   9.604 -1.5377 -2.5038  0.1278
  102OSM    H7G10338   4.358  -0.094   9.537 -0.5903  1.0068 -2.9037
  102OSM    C8F10339   4.497   0.055   9.450  0.0460 -0.1549  0.2715
  102OSM    H8F10340   4.536   0.144   9.502  0.9468 -1.2622  1.5126
  102OSM    H8G10341   4.422   0.082   9.372  0.6167 -1.9311 -0.9340
  102OSM    C9F10342   4.599  -0.048   9.397 -0.0725 -0.0784  0.1750
  102OSM    H9F10343   4.659  -0.093   9.476  0.2900 -1.6525 -0.9713
  102OSM   C10F10344   4.593  -0.108   9.277 -0.1188 -0.0150  0.6673
  102OSM   H10F10345   4.673  -0.176   9.243  1.1155  1.8338 -0.1994
  102OSM   C11F10346   4.490  -0.086   9.167 -0.2287 -0.1305 -0.4054
  102OSM   H11F10347   4.432   0.009   9.174 -0.4287 -0.2980  0.1705
  102OSM   H11G10348   4.412  -0.162   9.186 -0.1586 -0.1482 -0.1894
  102OSM   C12F10349   4.555  -0.113   9.027 -0.2356 -0.9773  0.0882
  102OSM   H12F10350   4.479  -0.079   8.954  0.6407  2.1716  0.5211
  102OSM   H12G10351   4.567  -0.223   9.016  0.1108 -1.1003  1.5639
  102OSM   C13F10352   4.679  -0.031   8.997 -0.6256 -1.0475  0.2746
  102OSM   H13F10353   4.768  -0.080   9.041 -1.1566 -0.1539  2.4063
  102OSM   H13G10354   4.680   0.065   9.053  0.6766  0.5094 -2.3152
  102OSM   C14F10355   4.704   0.014   8.850  0.1379 -0.5169 -0.2678
  102OSM   H14F10356   4.795   0.077   8.853  0.0164 -0.3875  0.9093
  102OSM   H14G10357   4.613   0.073   8.826 -0.5636 -0.9119  1.3084
  102OSM   C15F10358   4.719  -0.098   8.747  0.1146  0.4896 -0.4713
  102OSM   H15F10359   4.644  -0.179   8.758  0.4402 -0.2930 -3.6012
  102OSM   H15G10360   4.813  -0.153   8.770  1.4383  2.4116 -1.1340
  102OSM   C16F10361   4.714  -0.057   8.598 -0.2942  0.7705 -0.0594
  102OSM   H16F10362   4.780   0.031   8.587  0.4750  0.2674  0.4575
  102OSM   H16G10363   4.609  -0.033   8.573 -0.3212  2.0237  1.1900
  102OSM   C17F10364   4.762  -0.171   8.511 -0.0071 -0.3874 -0.4551
  102OSM   H17F10365   4.844  -0.229   8.556 -0.8931 -1.1799  0.1489
  102OSM   H17G10366   4.801  -0.133   8.414 -0.0038 -0.7424 -0.5948
  102OSM   C18F10367   4.651  -0.275   8.482  0.6265 -0.4128 -0.4428
  102OSM   H18F10368   4.566  -0.235   8.422  0.4900  2.2302  1.4196
  102OSM   H18G10369   4.613  -0.314   8.578  1.5250 -2.2057 -0.7948
  102OSM   H18H10370   4.703  -0.359   8.431 -1.4303 -0.3921 -2.7050
  103OSM      N10371   3.060   2.424  10.889  0.2882  0.5953  0.6369
  103OSM    C1510372   3.045   2.389  10.744  0.4561 -0.3424  0.4241
  103OSM   H15A10373   2.965   2.316  10.741  0.5132 -0.3501 -1.8669
  103OSM   H15B10374   3.127   2.337  10.696  1.2212  1.2651 -0.0709
  103OSM   H15C10375   3.012   2.475  10.686 -0.5709  1.2589  3.3107
  103OSM    C1410376   3.092   2.304  10.961  0.2175  0.3488  0.4613
  103OSM   H14A10377   3.175   2.257  10.911  0.4500 -1.1412  2.1652
  103OSM   H14B10378   3.011   2.235  10.943  0.1745  0.5040  0.0715
  103OSM   H14C10379   3.117   2.330  11.063 -0.5742  2.1146  0.2217
  103OSM    C1310380   3.183   2.513  10.913  0.9397  0.0008  0.0448
  103OSM   H13A10381   3.213   2.522  11.016 -0.0872 -0.0082  0.3460
  103OSM   H13B10382   3.174   2.611  10.868 -1.2725 -0.6603 -1.0391
  103OSM   H13C10383   3.266   2.463  10.865  1.3334 -0.7846  1.5248
  103OSM    C1210384   2.933   2.484  10.953  0.0102  0.0967  0.1069
  103OSM   H12A10385   2.960   2.525  11.050  0.9352  1.1668 -0.5933
  103OSM   H12B10386   2.861   2.405  10.967 -0.8938  1.2905  2.5182
  103OSM    C1110387   2.859   2.594  10.874  1.1117 -0.3891 -0.8348
  103OSM   H11A10388   2.772   2.628  10.933  0.8417 -2.3361 -0.0887
  103OSM   H11B10389   2.830   2.544  10.779  0.7719 -2.2582  0.2377
  103OSM      P10390   2.952   2.827  10.937 -0.4042 -0.2819 -0.0486
  103OSM    O1310391   2.866   2.802  11.051  0.1159 -0.3121  0.1299
  103OSM    O1410392   3.091   2.865  10.968  0.2781 -0.2370 -0.0913
  103OSM    O1110393   2.881   2.940  10.852 -0.2571  0.6367  0.0612
  103OSM    O1210394   2.952   2.701  10.841  0.1213 -0.1566 -0.5113
  103OSM    C1S10395   2.945   2.976  10.723 -0.8655  0.1452  0.7798
  103OSM    H1S10396   3.022   2.903  10.689 -1.4605 -0.9837  1.8433
  103OSM    H1T10397   3.007   3.069  10.720  0.3671 -0.6741  0.0886
  103OSM     NF10398   2.884   2.998  10.485 -0.3292  0.8972  0.1703
  103OSM    HNF10399   2.900   3.084  10.438 -2.3699  1.6426  0.8103
  103OSM    C2S10400   2.831   2.983  10.619  0.7010 -0.0693 -0.2264
  103OSM    H2S10401   2.789   2.881  10.633  2.0457 -0.4371  1.3674
  103OSM    C3S10402   2.721   3.093  10.639  0.3111  0.5858 -0.2378
  103OSM    H3S10403   2.754   3.198  10.646 -0.0244  0.5656  1.9028
  103OSM     O310404   2.656   3.069  10.764 -0.2384 -0.3478 -0.5745
  103OSM    HO310405   2.722   3.014  10.807 -1.4958 -0.2841  1.5574
  103OSM    C4S10406   2.626   3.070  10.520  0.2671  0.1660  0.5882
  103OSM    H4S10407   2.557   2.985  10.538 -0.8203  0.9210  0.0463
  103OSM    C5S10408   2.612   3.145  10.410  0.3762  0.7321 -0.2182
  103OSM    H5S10409   2.678   3.233  10.403  1.7934 -0.4248 -2.0262
  103OSM    C6S10410   2.508   3.128  10.302  0.0194  1.0432  0.1191
  103OSM    H6S10411   2.544   3.168  10.205  0.6614 -0.0942 -0.1136
  103OSM    H6T10412   2.417   3.190  10.319 -0.6840 -0.2921  1.4624
  103OSM    C7S10413   2.448   2.984  10.293  0.5046  0.0161  0.3699
  103OSM    H7S10414   2.383   2.966  10.381  2.4380 -0.5865  1.7251
  103OSM    H7T10415   2.521   2.901  10.288 -0.0560 -0.7317  3.5610
  103OSM    C8S10416   2.371   2.966  10.168  0.3556 -0.0491  0.7348
  103OSM    H8S10417   2.298   3.050  10.165  2.0336  1.3849 -1.2302
  103OSM    H8T10418   2.314   2.871  10.178 -0.4628  0.3985  0.4073
  103OSM    C9S10419   2.462   2.962  10.039  0.1514  0.4367  0.1324
  103OSM    H9S10420   2.534   2.879  10.058  0.1170 -0.0569 -1.7975
  103OSM    H9T10421   2.508   3.063  10.031  0.3824  0.2461 -1.0901
  103OSM   C10S10422   2.386   2.934   9.911 -0.1766 -0.2536 -0.4236
  103OSM   H10S10423   2.290   2.892   9.948 -0.3174 -0.8585 -1.4421
  103OSM   H10T10424   2.452   2.861   9.859 -0.1058 -0.4041 -0.1207
  103OSM   C11S10425   2.362   3.063   9.830  0.7685 -0.3017 -0.1179
  103OSM   H11S10426   2.460   3.116   9.834  0.8342 -0.4349  0.0789
  103OSM   H11T10427   2.291   3.130   9.882  0.6213  0.7483 -1.6504
  103OSM   C12S10428   2.335   3.045   9.680  0.4754  0.2163 -0.2217
  103OSM   H12S10429   2.235   2.998   9.670 -0.0617  1.3824 -0.5022
  103OSM   H12T10430   2.415   2.979   9.639  1.5572  1.2720  0.1603
  103OSM   C13S10431   2.338   3.167   9.591 -0.2642  0.2045  0.3760
  103OSM   H13S10432   2.413   3.243   9.621  0.0525 -0.2396  0.7089
  103OSM   H13T10433   2.239   3.218   9.595  0.1151  0.8470  2.0141
  103OSM   C14S10434   2.366   3.136   9.445 -0.0923  0.3242  0.5375
  103OSM   H14S10435   2.288   3.070   9.402  1.5504 -2.1470  1.2246
  103OSM   H14T10436   2.460   3.076   9.449  0.3768  0.6863 -2.9824
  103OSM   C15S10437   2.378   3.259   9.368  0.3555  0.0084 -0.1167
  103OSM   H15S10438   2.467   3.320   9.397  1.9185 -2.0116 -0.5772
  103OSM   H15T10439   2.288   3.320   9.391  1.3993  0.9403  1.6420
  103OSM   C16S10440   2.394   3.245   9.214  0.3656 -0.2040 -0.8588
  103OSM   H16S10441   2.481   3.186   9.178  1.3389  1.1930 -0.8068
  103OSM   H16T10442   2.407   3.345   9.169  0.6745  1.8618  3.6280
  103OSM   C17S10443   2.277   3.177   9.142 -0.0288  0.3132  0.8995
  103OSM   H17S10444   2.182   3.220   9.181 -1.1199 -0.7720 -0.5099
  103OSM   H17T10445   2.268   3.069   9.166  0.9193  0.1268  0.4338
  103OSM   C18S10446   2.271   3.191   8.991 -0.0081  0.7202  0.1515
  103OSM   H18S10447   2.346   3.125   8.943  0.2955  1.5545 -0.5279
  103OSM   H18T10448   2.275   3.296   8.956 -2.8130  0.1987 -1.8966
  103OSM   H18U10449   2.175   3.156   8.949  1.2920 -1.5650 -1.0159
  103OSM    C1F10450   2.912   2.891  10.413 -0.3085  0.4217 -0.4650
  103OSM     OF10451   2.901   2.781  10.466  0.0768 -0.6717 -0.2764
  103OSM    C2F10452   2.962   2.903  10.278 -0.1315 -0.7145  0.2298
  103OSM    H2F10453   2.931   2.807  10.231 -1.7455 -1.3026  2.4399
  103OSM    H2G10454   3.071   2.922  10.270 -0.6725  1.8265 -1.9878
  103OSM    C3F10455   2.895   3.014  10.199 -0.5591 -0.0705 -0.5578
  103OSM    H3F10456   2.944   3.112  10.222 -0.2141  0.0538 -1.7965
  103OSM    H3G10457   2.789   3.025  10.229 -0.2337 -1.5375  1.2525
  103OSM    C4F10458   2.890   2.992  10.047 -0.2659 -0.1039 -0.4847
  103OSM    H4F10459   2.830   2.899  10.034 -0.9439  0.1570  0.7875
  103OSM    H4G10460   2.988   2.979   9.996  0.8473  2.9491  0.7921
  103OSM    C5F10461   2.812   3.102   9.976 -0.7201  0.3007 -0.1831
  103OSM    H5F10462   2.870   3.195   9.991 -0.2586  0.2298 -1.4105
  103OSM    H5G10463   2.717   3.115  10.032 -0.5529  0.7273 -0.0035
  103OSM    C6F10464   2.801   3.072   9.828 -0.0490 -0.3721 -0.6867
  103OSM    H6F10465   2.713   3.004   9.820 -0.4463  0.3137 -2.2588
  103OSM    H6G10466   2.890   3.027   9.779  1.0918  1.7774 -0.6170
  103OSM    C7F10467   2.763   3.204   9.749  0.6764  0.4286 -0.9065
  103OSM    H7F10468   2.805   3.299   9.790 -2.8382  1.5950  0.1296
  103OSM    H7G10469   2.653   3.203   9.762  0.7020 -1.6096 -0.7445
  103OSM    C8F10470   2.771   3.199   9.596  0.1770 -0.1576  0.5617
  103OSM    H8F10471   2.699   3.269   9.549 -0.5238 -1.2941 -0.0898
  103OSM    H8G10472   2.742   3.096   9.567 -0.7025  0.4347 -0.6956
  103OSM    C9F10473   2.912   3.222   9.553 -0.3832 -0.0745 -0.5435
  103OSM    H9F10474   2.985   3.182   9.625  0.5931 -0.9598 -1.9984
  103OSM   C10F10475   2.948   3.279   9.436 -0.4467 -0.5522 -0.9527
  103OSM   H10F10476   3.054   3.299   9.417 -0.9220  1.1856 -1.9468
  103OSM   C11F10477   2.845   3.315   9.325 -0.3373  0.1485  0.2976
  103OSM   H11F10478   2.764   3.379   9.365 -0.9838 -1.5403  1.7296
  103OSM   H11G10479   2.797   3.219   9.297 -2.2085  1.0303  0.4286
  103OSM   C12F10480   2.924   3.379   9.211 -0.4700 -0.4674 -0.1801
  103OSM   H12F10481   2.995   3.307   9.166  0.3228  0.3071 -0.1798
  103OSM   H12G10482   2.992   3.464   9.230  0.3343 -1.3298  0.7952
  103OSM   C13F10483   2.836   3.421   9.093 -0.0635 -0.8092  0.4113
  103OSM   H13F10484   2.912   3.465   9.026 -1.6937  2.9757  0.9276
  103OSM   H13G10485   2.756   3.490   9.127  1.5749  1.5642 -0.4322
  103OSM   C14F10486   2.765   3.305   9.020 -0.2420 -0.0371 -0.5359
  103OSM   H14F10487   2.679   3.268   9.080  0.5982  0.0611  0.7532
  103OSM   H14G10488   2.829   3.220   8.989 -0.2588 -0.6756  1.1007
  103OSM   C15F10489   2.714   3.360   8.890  0.0954  0.0642 -0.4453
  103OSM   H15F10490   2.796   3.401   8.827 -0.1870  2.4963  0.6931
  103OSM   H15G10491   2.638   3.437   8.914 -0.7085 -0.1687 -2.1412
  103OSM   C16F10492   2.652   3.249   8.804 -0.2756 -0.0170 -0.4904
  103OSM   H16F10493   2.598   3.186   8.878 -0.4932  0.2658 -0.4074
  103OSM   H16G10494   2.735   3.183   8.773 -1.3718 -0.7916 -1.8940
  103OSM   C17F10495   2.573   3.309   8.685  0.2194 -0.0914 -0.3483
  103OSM   H17F10496   2.484   3.356   8.732 -0.1513 -0.8456 -0.2929
  103OSM   H17G10497   2.539   3.220   8.628 -0.1996  1.0643 -1.9245
  103OSM   C18F10498   2.654   3.394   8.595 -0.2836  0.6417 -0.2147
  103OSM   H18F10499   2.650   3.499   8.630 -0.3828  0.1848  1.1737
  103OSM   H18G10500   2.596   3.395   8.500 -1.1221  2.4251  0.3041
  103OSM   H18H10501   2.760   3.362   8.588 -0.5675 -1.1026  2.4463
  104OSM      N10502   4.558   2.772  10.954  0.4556  0.1070 -0.7032
  104OSM    C1510503   4.657   2.882  10.924  0.4910 -0.1256  0.0421
  104OSM   H15A10504   4.614   2.961  10.864  2.1915  0.5405 -0.3375
  104OSM   H15B10505   4.744   2.852  10.867 -0.3550  1.6559 -2.3052
  104OSM   H15C10506   4.687   2.925  11.018 -1.8677 -1.4411  1.4361
  104OSM    C1410507   4.636   2.654  11.005  0.4490  0.7819 -0.0065
  104OSM   H14A10508   4.714   2.622  10.938  1.6663  0.8971  1.3304
  104OSM   H14B10509   4.581   2.567  11.036 -0.4346  1.1300 -0.5723
  104OSM   H14C10510   4.693   2.671  11.095  2.8642 -0.3614 -1.2758
  104OSM    C1310511   4.480   2.824  11.065  0.4948  0.6652  0.6274
  104OSM   H13A10512   4.544   2.833  11.152  1.6160  0.4916 -0.1626
  104OSM   H13B10513   4.398   2.757  11.084  1.5673 -0.9103 -0.1936
  104OSM   H13C10514   4.441   2.922  11.045  0.5198  0.4583 -0.4428
  104OSM    C1210515   4.464   2.743  10.837  0.5930  0.1914  0.5262
  104OSM   H12A10516   4.526   2.714  10.754  0.0937  0.3680  0.0901
  104OSM   H12B10517   4.420   2.834  10.799  2.0143  0.3382 -0.8137
  104OSM    C1110518   4.341   2.652  10.861 -1.0563  0.1350  0.9362
  104OSM   H11A10519   4.365   2.566  10.927  1.4417 -1.2148 -1.6205
  104OSM   H11B10520   4.311   2.608  10.764  1.7925 -3.3945  1.5327
  104OSM      P10521   4.142   2.843  10.842  0.0953 -0.1167 -0.1648
  104OSM    O1310522   3.996   2.805  10.853 -0.1808  1.0569  0.3684
  104OSM    O1410523   4.183   2.976  10.898  0.1783 -0.4175 -0.5193
  104OSM    O1110524   4.201   2.835  10.691 -0.4738 -0.1837  0.7181
  104OSM    O1210525   4.234   2.731  10.919 -0.1871 -0.6038 -0.0783
  104OSM    C1S10526   4.149   2.752  10.587 -0.9012 -0.1501 -0.4846
  104OSM    H1S10527   4.039   2.771  10.585 -0.1698  4.5525 -0.7271
  104OSM    H1T10528   4.169   2.644  10.603  0.3529  0.2838  1.0007
  104OSM     NF10529   4.104   2.770  10.337 -0.7316 -0.1259  0.1809
  104OSM    HNF10530   4.113   2.692  10.275 -4.8694 -0.5233 -0.0283
  104OSM    C2S10531   4.205   2.795  10.446 -0.0605 -0.6034  0.3068
  104OSM    H2S10532   4.216   2.905  10.450  1.5654 -0.7229 -0.5766
  104OSM    C3S10533   4.342   2.728  10.419  0.7565 -0.9774  0.0007
  104OSM    H3S10534   4.318   2.620  10.402  2.8051 -1.3598 -0.5952
  104OSM     O310535   4.421   2.721  10.535 -0.0169 -0.7224  0.5047
  104OSM    HO310536   4.370   2.776  10.595  0.7833  1.4755 -0.7690
  104OSM    C4S10537   4.417   2.789  10.310 -0.1462 -0.3787  0.0784
  104OSM    H4S10538   4.423   2.726  10.220 -0.4619  0.4764 -0.5458
  104OSM    C5S10539   4.483   2.909  10.309 -1.1312  0.0707  0.4740
  104OSM    H5S10540   4.486   2.967  10.402  1.6261 -0.2916  0.6607
  104OSM    C6S10541   4.555   2.966  10.189  0.2638 -0.0715 -0.4532
  104OSM    H6S10542   4.634   3.033  10.229  1.6589 -1.1617 -1.3450
  104OSM    H6T10543   4.491   3.037  10.133 -1.2897 -2.0855 -1.2981
  104OSM    C7S10544   4.621   2.868  10.089  0.7388 -0.0597  0.3500
  104OSM    H7S10545   4.537   2.816  10.039 -0.9082 -0.0517  2.9760
  104OSM    H7T10546   4.679   2.782  10.128  0.0031  0.4632  2.7107
  104OSM    C8S10547   4.694   2.934   9.959  0.8042 -0.0930 -0.3921
  104OSM    H8S10548   4.766   3.012   9.991  1.0774 -0.6664  0.4104
  104OSM    H8T10549   4.604   2.977   9.910  0.2026 -1.2542 -0.3298
  104OSM    C9S10550   4.743   2.832   9.861 -0.3408  0.0629  0.6228
  104OSM    H9S10551   4.667   2.785   9.796  0.5231 -1.0475  0.3975
  104OSM    H9T10552   4.787   2.744   9.913  0.4503 -1.2007 -2.1355
  104OSM   C10S10553   4.846   2.878   9.751  0.0531  0.1496  0.1925
  104OSM   H10S10554   4.921   2.797   9.739  0.3142  0.3576  0.4003
  104OSM   H10T10555   4.912   2.958   9.790  2.8151 -2.3051  0.7422
  104OSM   C11S10556   4.779   2.901   9.614  0.0565 -0.4521  0.2511
  104OSM   H11S10557   4.699   2.978   9.624  0.7879  0.3300  0.1875
  104OSM   H11T10558   4.733   2.812   9.567 -4.1582  1.5149  0.4022
  104OSM   C12S10559   4.871   2.962   9.508  0.3575  0.3054 -0.8590
  104OSM   H12S10560   4.943   2.878   9.493 -1.5179 -1.4228 -0.3229
  104OSM   H12T10561   4.929   3.045   9.553 -0.4910  0.1125  0.6129
  104OSM   C13S10562   4.792   3.013   9.386  1.0043  0.3664  0.5843
  104OSM   H13S10563   4.862   3.073   9.325  0.0996  1.4649  0.6150
  104OSM   H13T10564   4.718   3.085   9.427  1.0561  1.0524 -0.5117
  104OSM   C14S10565   4.734   2.901   9.295 -0.1846 -0.1884  0.6223
  104OSM   H14S10566   4.648   2.854   9.347  0.4273 -1.3271  0.6415
  104OSM   H14T10567   4.816   2.829   9.274  0.4298  0.7013 -0.0353
  104OSM   C15S10568   4.670   2.958   9.164 -0.3200 -0.1632  0.2743
  104OSM   H15S10569   4.707   3.060   9.140 -2.8767  0.4002 -1.4661
  104OSM   H15T10570   4.559   2.962   9.177 -0.3881  2.0171 -0.8789
  104OSM   C16S10571   4.695   2.865   9.049 -0.3796 -0.1605  0.7921
  104OSM   H16S10572   4.654   2.767   9.083  1.2990 -0.7463  1.1837
  104OSM   H16T10573   4.803   2.843   9.034 -1.2359 -2.5578 -2.3333
  104OSM   C17S10574   4.646   2.915   8.908  0.4917 -0.1695  0.6080
  104OSM   H17S10575   4.537   2.929   8.924  0.4012 -1.5674  1.3364
  104OSM   H17T10576   4.657   2.827   8.841  1.9869  2.7009 -3.0927
  104OSM   C18S10577   4.713   3.037   8.846  0.5469 -0.0941  0.4335
  104OSM   H18S10578   4.819   3.021   8.816 -0.3169  0.5492 -3.2198
  104OSM   H18T10579   4.699   3.127   8.909  0.5282  0.2443 -0.0567
  104OSM   H18U10580   4.664   3.067   8.751  0.4023  0.7545  0.7705
  104OSM    C1F10581   3.984   2.832  10.328  0.1629 -0.3978 -0.3709
  104OSM     OF10582   3.942   2.912  10.408  0.3476  0.3904  0.6398
  104OSM    C2F10583   3.896   2.785  10.219 -0.1663 -0.6696  0.0963
  104OSM    H2F10584   3.822   2.706  10.247 -0.4918 -0.4258 -0.0773
  104OSM    H2G10585   3.956   2.743  10.136  1.0045 -2.3354  1.7310
  104OSM    C3F10586   3.821   2.909  10.158  0.5581  0.6479  0.8345
  104OSM    H3F10587   3.893   2.992  10.142 -0.4467  1.0613 -1.6757
  104OSM    H3G10588   3.752   2.935  10.241 -0.6164 -2.8278  1.0149
  104OSM    C4F10589   3.742   2.866  10.039 -0.6252  0.5231 -0.2304
  104OSM    H4F10590   3.663   2.804  10.086 -1.0866  1.9888  0.9816
  104OSM    H4G10591   3.804   2.797   9.977 -1.2012  0.4885 -0.7782
  104OSM    C5F10592   3.693   2.978   9.941 -0.1496 -0.0970 -0.0430
  104OSM    H5F10593   3.776   3.042   9.903 -1.7076  1.4376 -0.9374
  104OSM    H5G10594   3.636   3.049  10.005  1.1470  0.5596  0.4109
  104OSM    C6F10595   3.615   2.926   9.819  0.8391  0.1039  0.0971
  104OSM    H6F10596   3.572   3.016   9.769 -1.1715 -0.2012  1.2123
  104OSM    H6G10597   3.535   2.864   9.865  0.5906  0.3948  0.0609
  104OSM    C7F10598   3.702   2.845   9.719  0.2944  0.0670  0.2491
  104OSM    H7F10599   3.631   2.792   9.651 -0.3520  0.6840  0.4326
  104OSM    H7G10600   3.762   2.768   9.773 -0.3818  0.6697  1.9086
  104OSM    C8F10601   3.795   2.939   9.646  0.4756  0.1874 -0.5391
  104OSM    H8F10602   3.866   2.970   9.725 -0.1088 -2.5716  1.1415
  104OSM    H8G10603   3.748   3.037   9.624 -0.8726  0.0762  1.7251
  104OSM    C9F10604   3.871   2.879   9.532 -0.0334 -0.4089 -0.4250
  104OSM    H9F10605   3.939   2.798   9.560 -0.3441  0.0106  1.6453
  104OSM   C10F10606   3.845   2.909   9.400 -0.3712 -0.2959  0.4377
  104OSM   H10F10607   3.910   2.869   9.320 -1.6878  1.7028 -1.7056
  104OSM   C11F10608   3.733   3.001   9.354  0.3849 -0.2405  0.2100
  104OSM   H11F10609   3.758   3.109   9.362 -3.0447  0.6932 -0.7325
  104OSM   H11G10610   3.655   2.986   9.431  0.7166 -1.6166  0.2852
  104OSM   C12F10611   3.672   2.963   9.216 -0.2319  0.5881 -0.2754
  104OSM   H12F10612   3.570   3.007   9.220 -1.3079 -1.9173  2.3267
  104OSM   H12G10613   3.639   2.857   9.207 -0.6327  0.7677 -0.9518
  104OSM   C13F10614   3.743   3.003   9.086 -0.6114 -0.1433  0.1629
  104OSM   H13F10615   3.825   2.936   9.053  0.5343  1.1341  0.3361
  104OSM   H13G10616   3.789   3.103   9.103 -0.8597  0.2414 -1.3349
  104OSM   C14F10617   3.647   3.033   8.966 -0.3888 -0.1526  0.1810
  104OSM   H14F10618   3.712   3.059   8.880 -0.3576 -1.2242 -0.1282
  104OSM   H14G10619   3.580   3.117   8.993  0.3457  0.2440  0.7736
  104OSM   C15F10620   3.572   2.904   8.925 -0.5141 -0.1596 -0.2603
  104OSM   H15F10621   3.520   2.852   9.009  0.3527 -0.8066 -0.1049
  104OSM   H15G10622   3.649   2.826   8.905  0.6164  0.6992  0.7291
  104OSM   C16F10623   3.479   2.916   8.801 -0.3894  0.2061 -0.2393
  104OSM   H16F10624   3.536   2.959   8.715 -1.5824  1.9359 -0.2030
  104OSM   H16G10625   3.409   2.988   8.847  2.4423  2.2018  1.0908
  104OSM   C17F10626   3.422   2.776   8.756  0.3253 -0.1216 -0.6317
  104OSM   H17F10627   3.335   2.747   8.818  1.9346 -1.4455  1.0889
  104OSM   H17G10628   3.505   2.703   8.770  1.0018  0.4976 -1.3624
  104OSM   C18F10629   3.388   2.750   8.611 -0.0534  0.3310 -0.0317
  104OSM   H18F10630   3.339   2.651   8.596  2.2935 -1.2764  2.5129
  104OSM   H18G10631   3.481   2.747   8.551 -0.3795  0.4608 -0.5454
  104OSM   H18H10632   3.314   2.825   8.576 -2.2152 -1.8342 -0.2496
  105OSM      N10633   0.860   5.887  10.915  0.0114 -0.2204  0.2653
  105OSM    C1510634   0.756   5.783  10.944 -0.2677 -0.5283  0.6719
  105OSM   H15A10635   0.738   5.757  11.047 -0.1356 -0.2790  0.7586
  105OSM   H15B10636   0.782   5.690  10.897 -2.3362 -0.3422 -0.9075
  105OSM   H15C10637   0.662   5.809  10.897  0.1682  0.6736  0.4449
  105OSM    C1410638   0.870   5.913  10.767  0.4273 -0.6428 -0.4228
  105OSM   H14A10639   0.855   5.823  10.709 -1.4238  0.1248 -1.1813
  105OSM   H14B10640   0.963   5.964  10.749  0.4943 -0.7725 -0.4453
  105OSM   H14C10641   0.794   5.985  10.740 -0.6179 -1.9635 -1.0730
  105OSM    C1310642   0.815   6.009  10.987 -0.1675 -0.1686 -0.0897
  105OSM   H13A10643   0.831   5.995  11.093  0.2667 -1.3742 -0.3051
  105OSM   H13B10644   0.716   6.037  10.954 -0.6340  0.3306  1.6487
  105OSM   H13C10645   0.890   6.085  10.970  0.6206 -1.0782 -0.7343
  105OSM    C1210646   0.991   5.838  10.962 -0.4490 -0.2394  0.2469
  105OSM   H12A10647   0.974   5.833  11.069 -0.5877  0.8136  0.2751
  105OSM   H12B10648   1.056   5.922  10.950 -1.0314  0.2706  0.6446
  105OSM    C1110649   1.047   5.704  10.899  0.2260  1.0466  1.1060
  105OSM   H11A10650   1.151   5.682  10.932  0.0311 -2.4368 -0.3672
  105OSM   H11B10651   1.056   5.718  10.789  0.4571  0.2658  1.0191
  105OSM      P10652   1.000   5.461  10.843 -0.1031  0.4617  0.7277
  105OSM    O1310653   1.131   5.418  10.886  0.7105  0.6562  0.4827
  105OSM    O1410654   0.884   5.374  10.859 -0.0123  0.2886  0.5946
  105OSM    O1110655   1.013   5.506  10.696  0.0300  0.1762  0.2129
  105OSM    O1210656   0.966   5.586  10.929 -0.1580 -0.1385  0.0763
  105OSM    C1S10657   0.904   5.576  10.637 -0.7571 -0.5434  0.7013
  105OSM    H1S10658   0.913   5.685  10.654 -0.2473 -0.3943 -0.5027
  105OSM    H1T10659   0.809   5.562  10.693  0.1242  0.4377  2.4612
  105OSM     NF10660   0.798   5.637  10.435  0.3239 -0.4666  0.1693
  105OSM    HNF10661   0.709   5.594  10.417  0.1895 -0.8574  1.7462
  105OSM    C2S10662   0.909   5.561  10.484 -0.4494 -0.3037 -0.1265
  105OSM    H2S10663   1.003   5.604  10.442  0.2500 -3.0907 -1.5514
  105OSM    C3S10664   0.913   5.412  10.437  0.6468 -0.5826 -1.0958
  105OSM    H3S10665   0.821   5.357  10.467  1.3589 -1.9447 -1.3473
  105OSM     O310666   1.021   5.335  10.495  0.0315 -0.1301  0.5126
  105OSM    HO310667   1.053   5.385  10.570 -1.7390 -0.4282  1.4854
  105OSM    C4S10668   0.917   5.403  10.286  0.3495  0.3899  0.0991
  105OSM    H4S10669   0.815   5.413  10.246 -0.1112  2.0491  1.6279
  105OSM    C5S10670   1.017   5.381  10.200 -0.1426  0.3115  0.3845
  105OSM    H5S10671   1.116   5.364  10.246 -1.0635 -1.9259  1.6115
  105OSM    C6S10672   1.016   5.368  10.048  0.2743  0.0126 -0.1347
  105OSM    H6S10673   1.048   5.264  10.023  1.9348 -0.2929  3.0385
  105OSM    H6T10674   1.098   5.436  10.019  0.0908  0.6468  0.8103
  105OSM    C7S10675   0.882   5.413   9.985 -0.1352 -0.7470  0.0205
  105OSM    H7S10676   0.877   5.522  10.006 -0.0968 -0.8168  0.3941
  105OSM    H7T10677   0.788   5.380  10.035 -1.8432  0.2903 -2.3481
  105OSM    C8S10678   0.870   5.393   9.827  0.0848  0.0540 -0.4972
  105OSM    H8S10679   0.804   5.473   9.788 -1.1565 -0.7057  0.0028
  105OSM    H8T10680   0.803   5.308   9.803  0.9606 -0.2784 -1.8276
  105OSM    C9S10681   1.001   5.370   9.756  0.4277 -0.1255 -0.5913
  105OSM    H9S10682   1.031   5.264   9.772 -0.5432 -0.5395 -1.4130
  105OSM    H9T10683   1.074   5.449   9.783  0.4796  0.1569 -1.5449
  105OSM   C10S10684   0.978   5.358   9.604  0.4117  0.2103 -0.2726
  105OSM   H10S10685   0.900   5.286   9.573 -0.9847  2.5755 -2.3631
  105OSM   H10T10686   1.081   5.336   9.567  0.4060 -0.1507 -0.0718
  105OSM   C11S10687   0.919   5.484   9.543  0.5934  0.9197  0.0866
  105OSM   H11S10688   0.956   5.581   9.582 -0.6938  1.4099  0.1233
  105OSM   H11T10689   0.809   5.489   9.557  0.5685  0.2418  0.1330
  105OSM   C12S10690   0.938   5.483   9.380  1.0138 -0.6273  0.0975
  105OSM   H12S10691   0.894   5.386   9.351  0.0435  0.2159 -1.3098
  105OSM   H12T10692   1.045   5.494   9.352  0.3824 -0.7231 -2.4681
  105OSM   C13S10693   0.837   5.577   9.312  0.8404  0.1499  0.2648
  105OSM   H13S10694   0.871   5.683   9.316 -0.9668  0.6864  3.2363
  105OSM   H13T10695   0.745   5.580   9.375  0.5049 -0.0338 -0.2160
  105OSM   C14S10696   0.825   5.550   9.161  0.0103  0.6219 -0.0015
  105OSM   H14S10697   0.776   5.452   9.143 -1.1300  1.7076 -3.1634
  105OSM   H14T10698   0.916   5.575   9.102 -0.6291  2.1479 -0.3847
  105OSM   C15S10699   0.729   5.649   9.095  0.1343 -0.1228 -0.0347
  105OSM   H15S10700   0.768   5.753   9.102  1.0963 -0.4357 -0.6615
  105OSM   H15T10701   0.632   5.643   9.149  0.5303 -1.3082  0.5631
  105OSM   C16S10702   0.722   5.619   8.946 -0.8187 -0.0142  0.1195
  105OSM   H16S10703   0.688   5.514   8.938  0.3841 -0.5525  1.9677
  105OSM   H16T10704   0.821   5.647   8.906 -0.7477  2.7311  2.0588
  105OSM   C17S10705   0.625   5.720   8.880 -0.1102  0.1233  0.5806
  105OSM   H17S10706   0.549   5.757   8.952 -0.5209 -1.6096  1.0601
  105OSM   H17T10707   0.555   5.664   8.815  1.1417 -1.9540  0.9387
  105OSM   C18S10708   0.692   5.826   8.792 -0.3916  0.6285  0.6011
  105OSM   H18S10709   0.619   5.888   8.737 -1.7955 -1.6761 -0.1982
  105OSM   H18T10710   0.770   5.783   8.726 -1.5942 -1.4448  0.4868
  105OSM   H18U10711   0.751   5.896   8.855 -1.1422  0.5079  1.4387
  105OSM    C1F10712   0.798   5.768  10.420  0.2582 -0.4772  0.4043
  105OSM     OF10713   0.897   5.832  10.459 -0.4699 -0.5315  0.1610
  105OSM    C2F10714   0.676   5.822  10.343  0.8613 -0.6130  0.0319
  105OSM    H2F10715   0.591   5.765  10.387  0.0340  0.1599 -0.5438
  105OSM    H2G10716   0.678   5.801  10.234 -0.9034  2.0318 -0.5555
  105OSM    C3F10717   0.661   5.976  10.350  0.7631 -0.2895 -0.2701
  105OSM    H3F10718   0.763   6.018  10.340  0.3883  0.7733  0.2554
  105OSM    H3G10719   0.625   5.995  10.454  0.8610 -2.0234  0.0861
  105OSM    C4F10720   0.579   6.044  10.233  0.1613  0.2857 -0.4962
  105OSM    H4F10721   0.586   6.153  10.253  0.7998  0.1277  0.1984
  105OSM    H4G10722   0.472   6.015  10.240  0.5706 -1.4671 -1.0185
  105OSM    C5F10723   0.629   6.012  10.093 -0.6162  0.2133  0.3819
  105OSM    H5F10724   0.616   5.902  10.081 -0.8086  0.3173 -0.4485
  105OSM    H5G10725   0.737   6.037  10.089 -0.4380 -0.3855  1.3143
  105OSM    C6F10726   0.555   6.091   9.977  0.7362 -0.0298 -0.1883
  105OSM    H6F10727   0.583   6.196  10.000 -2.4738  0.5194  1.4204
  105OSM    H6G10728   0.448   6.065   9.991  0.8942  0.3328  1.8276
  105OSM    C7F10729   0.624   6.047   9.855  0.9144  0.2083 -0.4997
  105OSM    H7F10730   0.643   5.938   9.856  2.7216  0.4773  2.7304
  105OSM    H7G10731   0.724   6.094   9.860  1.2700 -0.7297  2.4384
  105OSM    C8F10732   0.553   6.085   9.726 -0.3459  0.0699 -0.1332
  105OSM    H8F10733   0.445   6.063   9.742 -0.4739  1.7122  1.3988
  105OSM    H8G10734   0.590   6.018   9.645  0.2576  0.2829 -0.0395
  105OSM    C9F10735   0.572   6.228   9.695 -0.3075 -0.0525  0.1043
  105OSM    H9F10736   0.555   6.305   9.772 -4.1636  1.1859 -1.8404
  105OSM   C10F10737   0.592   6.276   9.567  0.0732  0.9691 -0.6363
  105OSM   H10F10738   0.610   6.382   9.543  0.5094  0.5444 -2.3108
  105OSM   C11F10739   0.598   6.199   9.437  0.2055 -0.5859  0.2696
  105OSM   H11F10740   0.493   6.169   9.415  0.5130 -0.6385 -1.1624
  105OSM   H11G10741   0.664   6.109   9.441 -0.6478 -1.2096  0.4630
  105OSM   C12F10742   0.644   6.284   9.316 -0.1165  0.2326  0.1833
  105OSM   H12F10743   0.746   6.321   9.338  0.1844 -1.4474  1.7551
  105OSM   H12G10744   0.576   6.371   9.327  0.9360  0.8150  2.3831
  105OSM   C13F10745   0.621   6.208   9.186 -0.0061  0.3275 -0.1140
  105OSM   H13F10746   0.530   6.146   9.204  0.8159 -0.7943  0.2662
  105OSM   H13G10747   0.697   6.134   9.152 -0.2875 -0.2625  0.5201
  105OSM   C14F10748   0.579   6.314   9.074  0.2060 -0.1077 -0.6259
  105OSM   H14F10749   0.648   6.401   9.072  0.1125  0.0037  0.5058
  105OSM   H14G10750   0.480   6.354   9.104  0.4466 -0.1789  0.2911
  105OSM   C15F10751   0.580   6.237   8.937 -0.2626 -1.1823  0.3746
  105OSM   H15F10752   0.504   6.158   8.958  0.1051 -1.1760  1.8286
  105OSM   H15G10753   0.679   6.188   8.926  0.0471 -0.4370 -0.1330
  105OSM   C16F10754   0.532   6.313   8.809  0.1549  0.5199  0.0866
  105OSM   H16F10755   0.600   6.394   8.777 -0.2776  0.9376  0.2092
  105OSM   H16G10756   0.433   6.358   8.831 -0.2448 -0.2052 -0.1978
  105OSM   C17F10757   0.512   6.233   8.681  0.6893 -0.9770 -0.2236
  105OSM   H17F10758   0.454   6.292   8.607  0.3466 -2.3903 -1.0961
  105OSM   H17G10759   0.460   6.138   8.705  0.7285 -0.8194  0.4835
  105OSM   C18F10760   0.649   6.202   8.624 -0.1254  0.5893  0.6120
  105OSM   H18F10761   0.707   6.138   8.693  0.3957 -0.5692 -0.8570
  105OSM   H18G10762   0.704   6.292   8.587 -0.7559  0.9523  0.5460
  105OSM   H18H10763   0.643   6.143   8.530  3.2904  0.3502  0.4554
  106OSM      N10764   6.609   4.545  10.706  0.1052 -0.2670  0.0094
  106OSM    C1510765   6.499   4.632  10.764  0.1191  0.0471  0.0020
  106OSM   H15A10766   6.480   4.718  10.702  0.3955  1.4754  1.8347
  106OSM   H15B10767   6.527   4.662  10.864  0.8762  0.1250 -0.2300
  106OSM   H15C10768   6.407   4.576  10.772  1.1350 -1.5132  1.0680
  106OSM    C1410769   6.646   4.441  10.805  0.0365 -0.4804  0.0231
  106OSM   H14A10770   6.669   4.485  10.901  0.2922 -0.6075  0.0221
  106OSM   H14B10771   6.733   4.387  10.771  1.2928 -0.0580  2.4099
  106OSM   H14C10772   6.561   4.376  10.814 -0.8793  0.4678 -1.5537
  106OSM    C1310773   6.550   4.476  10.583 -0.1796 -0.7790 -0.2410
  106OSM   H13A10774   6.632   4.434  10.526  0.3923 -0.9850  0.7178
  106OSM   H13B10775   6.496   4.553  10.531 -0.2698 -1.2923 -0.9216
  106OSM   H13C10776   6.479   4.402  10.619 -1.5340  0.1946 -0.8844
  106OSM    C1210777   6.728   4.629  10.676  0.0850  0.0516 -0.5481
  106OSM   H12A10778   6.816   4.568  10.664 -1.4212 -1.9885 -1.4838
  106OSM   H12B10779   6.754   4.685  10.765  1.4712 -1.4545  0.0132
  106OSM    C1110780   6.731   4.734  10.566  0.0764  0.0243 -0.5393
  106OSM   H11A10781   6.712   4.682  10.469  0.4655  0.2424 -0.7344
  106OSM   H11B10782   6.836   4.769  10.551  1.2343 -3.0700 -0.0909
  106OSM      P10783   6.669   4.937  10.710 -0.6002 -0.5466 -0.0855
  106OSM    O1310784   6.542   4.993  10.753 -0.5588 -0.1769  0.3880
  106OSM    O1410785   6.743   4.870  10.818  0.4410 -0.1541 -0.0501
  106OSM    O1110786   6.757   5.053  10.658 -0.0970  0.0305  0.1927
  106OSM    O1210787   6.644   4.842  10.587 -0.0853 -1.1650  0.2672
  106OSM    C1S10788   6.804   5.083  10.530  0.0441  0.0442 -0.3565
  106OSM    H1S10789   6.792   4.996  10.461  0.8079 -1.2975  1.1771
  106OSM    H1T10790   6.914   5.096  10.534  0.0175  0.2001 -0.1704
  106OSM     NF10791   6.784   5.231  10.340 -0.4447  0.4155 -0.6592
  106OSM    HNF10792   6.856   5.299  10.341 -1.4564  1.5428 -1.8516
  106OSM    C2S10793   6.728   5.205  10.473  0.7723  0.1750 -0.1523
  106OSM    H2S10794   6.622   5.175  10.461  1.1651 -1.1647 -0.4390
  106OSM    C3S10795   6.732   5.331  10.563 -0.6442  0.5582  0.0814
  106OSM    H3S10796   6.838   5.363  10.557 -0.2259 -1.0163 -0.9997
  106OSM     O310797   6.702   5.307  10.696  0.3428  0.5645 -0.1671
  106OSM    HO310798   6.664   5.219  10.692  0.8350  0.2850  1.1573
  106OSM    C4S10799   6.643   5.441  10.503  0.7971 -0.1359 -0.8048
  106OSM    H4S10800   6.542   5.407  10.477 -0.8562  2.4479  1.9950
  106OSM    C5S10801   6.691   5.560  10.467 -0.2074 -0.5901 -0.1467
  106OSM    H5S10802   6.797   5.581  10.488 -0.7504  1.2537  0.8694
  106OSM    C6S10803   6.615   5.672  10.404  0.3615  0.3598 -0.5772
  106OSM    H6S10804   6.658   5.766  10.444  1.0069 -0.6164  1.0672
  106OSM    H6T10805   6.511   5.670  10.443  0.7884  0.7761  0.5962
  106OSM    C7S10806   6.626   5.668  10.255 -0.9817 -0.4705  0.5068
  106OSM    H7S10807   6.732   5.690  10.227 -1.3897 -1.0851 -1.6245
  106OSM    H7T10808   6.568   5.754  10.216  0.2772 -0.0118 -0.3941
  106OSM    C8S10809   6.573   5.544  10.175 -0.4874  0.1555 -0.5329
  106OSM    H8S10810   6.475   5.514  10.218 -0.9283 -0.1844 -1.7616
  106OSM    H8T10811   6.649   5.466  10.199 -1.2887 -1.2672 -2.4795
  106OSM    C9S10812   6.563   5.569  10.026 -0.2420 -0.4864  0.4802
  106OSM    H9S10813   6.498   5.657  10.006  0.3707 -0.3691 -1.0937
  106OSM    H9T10814   6.522   5.482   9.971  1.4182  0.7426 -2.8814
  106OSM   C10S10815   6.698   5.606   9.959 -0.5399  0.2859 -0.5127
  106OSM   H10S10816   6.741   5.509   9.926  2.2668  1.7314 -1.2922
  106OSM   H10T10817   6.762   5.659  10.033  0.8263 -0.4031 -1.1782
  106OSM   C11S10818   6.681   5.678   9.827 -0.0588 -0.5669  0.5099
  106OSM   H11S10819   6.670   5.788   9.837  1.4155 -0.3481 -0.1220
  106OSM   H11T10820   6.593   5.630   9.778 -0.1804  2.2444 -2.1965
  106OSM   C12S10821   6.796   5.656   9.721  0.5925 -0.2172 -0.6571
  106OSM   H12S10822   6.803   5.548   9.698  2.5095 -0.4900  1.1009
  106OSM   H12T10823   6.889   5.690   9.771  0.0812  0.0534  0.1342
  106OSM   C13S10824   6.765   5.727   9.586 -0.1484  0.1354 -0.7746
  106OSM   H13S10825   6.851   5.702   9.519 -1.1178  0.1983 -2.0702
  106OSM   H13T10826   6.760   5.837   9.602  0.9922  0.0634  0.1346
  106OSM   C14S10827   6.638   5.686   9.512  0.4956  0.7259  0.0569
  106OSM   H14S10828   6.552   5.736   9.561 -0.1621 -0.3427 -0.0014
  106OSM   H14T10829   6.641   5.576   9.519 -1.4524  0.6528 -0.1087
  106OSM   C15S10830   6.640   5.716   9.361  0.4276 -0.0242 -0.1659
  106OSM   H15S10831   6.715   5.648   9.315  1.0208 -0.8116  1.9293
  106OSM   H15T10832   6.666   5.819   9.327  0.0360 -0.7009 -2.6548
  106OSM   C16S10833   6.509   5.668   9.303  0.2388 -0.5339 -0.2487
  106OSM   H16S10834   6.434   5.729   9.358 -0.1411 -0.0104 -1.3418
  106OSM   H16T10835   6.488   5.560   9.316  1.5199 -0.6971  0.4775
  106OSM   C17S10836   6.510   5.702   9.151 -0.2858 -0.5893 -0.1763
  106OSM   H17S10837   6.599   5.650   9.110 -0.6016 -0.7464 -0.6630
  106OSM   H17T10838   6.513   5.810   9.128  3.1082 -0.5542  0.1136
  106OSM   C18S10839   6.392   5.644   9.080 -0.3622  0.5302 -0.6871
  106OSM   H18S10840   6.412   5.552   9.021  0.2098  0.7913 -0.9105
  106OSM   H18T10841   6.352   5.719   9.009 -1.3307 -0.6003 -1.3544
  106OSM   H18U10842   6.306   5.617   9.144  0.2714  0.2291  0.0437
  106OSM    C1F10843   6.749   5.164  10.228  0.1442  0.0868 -0.0840
  106OSM     OF10844   6.664   5.075  10.243 -0.0877 -0.2686  0.3495
  106OSM    C2F10845   6.806   5.208  10.091 -0.0534  0.9255  0.5636
  106OSM    H2F10846   6.914   5.229  10.107  0.0637  0.2079  0.7113
  106OSM    H2G10847   6.764   5.306  10.060 -1.2498 -0.3480 -1.9739
  106OSM    C3F10848   6.788   5.102   9.978  0.4805  0.0163  0.2396
  106OSM    H3F10849   6.678   5.096   9.962  0.9437 -4.0488 -2.2273
  106OSM    H3G10850   6.819   4.999  10.005 -0.5181 -1.9702 -5.5637
  106OSM    C4F10851   6.852   5.144   9.843  0.2882 -0.4212  0.1955
  106OSM    H4F10852   6.963   5.142   9.841  0.5051  4.2527  0.9588
  106OSM    H4G10853   6.828   5.253   9.841  2.1957  0.0385  1.2950
  106OSM    C5F10854   6.779   5.081   9.727  0.6611 -0.1299 -0.4089
  106OSM    H5F10855   6.681   5.131   9.712 -0.5492 -2.1413  0.5794
  106OSM    H5G10856   6.748   4.976   9.745  0.0315 -0.4021 -2.8581
  106OSM    C6F10857   6.869   5.089   9.601 -0.0302 -0.4976 -0.0167
  106OSM    H6F10858   6.954   5.019   9.619  1.2821  0.9416 -0.4739
  106OSM    H6G10859   6.887   5.197   9.587  0.7051 -1.0088 -3.2728
  106OSM    C7F10860   6.799   5.029   9.475 -0.0541  0.0149 -0.5073
  106OSM    H7F10861   6.763   4.926   9.496 -0.7460  0.7983  2.2381
  106OSM    H7G10862   6.887   5.019   9.408 -1.2547  2.7672 -2.6263
  106OSM    C8F10863   6.679   5.103   9.415 -0.5808  0.2535  0.5862
  106OSM    H8F10864   6.591   5.080   9.480 -0.8526 -1.0687 -0.2371
  106OSM    H8G10865   6.662   5.044   9.323  1.8154  1.7902 -0.8898
  106OSM    C9F10866   6.703   5.256   9.398  0.6391  0.1087 -0.5537
  106OSM    H9F10867   6.688   5.315   9.489 -0.9549 -1.7741  0.4438
  106OSM   C10F10868   6.748   5.306   9.286  0.4033 -0.1468 -0.3082
  106OSM   H10F10869   6.779   5.410   9.297 -1.1720  0.3981 -0.8987
  106OSM   C11F10870   6.766   5.231   9.154  0.0945  0.4247  0.3105
  106OSM   H11F10871   6.717   5.131   9.151  1.7201 -0.3558 -1.2610
  106OSM   H11G10872   6.867   5.189   9.134 -1.5404 -3.4186 -0.2336
  106OSM   C12F10873   6.727   5.308   9.022  0.2585  0.4188  0.5987
  106OSM   H12F10874   6.616   5.309   9.021  0.2450 -0.1633 -1.7668
  106OSM   H12G10875   6.761   5.251   8.933  0.3580  2.4538 -0.7032
  106OSM   C13F10876   6.782   5.451   9.001 -0.5389 -0.9880 -0.8269
  106OSM   H13F10877   6.892   5.455   8.981 -0.5512  0.6165 -0.6393
  106OSM   H13G10878   6.765   5.502   9.098 -0.5069 -1.6682 -0.4590
  106OSM   C14F10879   6.718   5.529   8.876 -0.0541 -0.3279 -0.4127
  106OSM   H14F10880   6.608   5.532   8.885 -0.2365 -0.4678 -2.4048
  106OSM   H14G10881   6.738   5.475   8.780 -0.4835  0.0999 -0.7404
  106OSM   C15F10882   6.778   5.672   8.853 -0.4589  0.1376  0.1344
  106OSM   H15F10883   6.882   5.675   8.816 -0.8936  0.0146 -1.1318
  106OSM   H15G10884   6.783   5.722   8.951  0.6325  0.7442 -0.2268
  106OSM   C16F10885   6.695   5.749   8.746 -1.1127 -0.6915 -0.3089
  106OSM   H16F10886   6.589   5.714   8.754 -1.4010  0.0360 -0.9066
  106OSM   H16G10887   6.734   5.737   8.643  1.4140  1.3436  0.3742
  106OSM   C17F10888   6.708   5.897   8.784 -0.1389  0.7782 -0.3399
  106OSM   H17F10889   6.811   5.936   8.789  0.0507  0.3056 -0.5456
  106OSM   H17G10890   6.661   5.912   8.883 -1.8658  0.7832 -1.1390
  106OSM   C18F10891   6.635   5.986   8.685 -1.3282 -0.0446 -1.3640
  106OSM   H18F10892   6.525   5.975   8.698 -1.5609  1.8585 -1.6156
  106OSM   H18G10893   6.648   5.950   8.581 -1.9319 -0.4717 -1.2918
  106OSM   H18H10894   6.665   6.092   8.695  2.0359 -1.1230  0.6415
  107OSM      N10895   2.958   1.953  11.064  0.8971  1.0790 -0.1256
  107OSM    C1510896   3.106   1.985  11.053 -0.4383 -0.2608  0.1104
  107OSM   H15A10897   3.163   1.901  11.017 -0.9716  0.1295 -1.7395
  107OSM   H15B10898   3.140   2.017  11.150 -3.7989  0.7270  1.0184
  107OSM   H15C10899   3.121   2.067  10.984  0.1062 -0.2339  0.2582
  107OSM    C1410900   2.954   1.819  11.140  0.7850  0.6155 -0.4444
  107OSM   H14A10901   2.995   1.844  11.237 -0.8620  0.7051  0.2395
  107OSM   H14B10902   3.005   1.738  11.091 -2.3325 -1.8555  0.2724
  107OSM   H14C10903   2.852   1.794  11.166  1.9617 -3.2374  0.6840
  107OSM    C1310904   2.893   2.043  11.161 -0.2875  0.5724  0.0295
  107OSM   H13A10905   2.788   2.028  11.179  0.0868 -1.7339  0.3841
  107OSM   H13B10906   2.895   2.148  11.135  1.2109  0.5979  0.1562
  107OSM   H13C10907   2.940   2.032  11.258 -0.6796 -2.8331 -0.1105
  107OSM    C1210908   2.887   1.928  10.934  0.5297 -0.0789 -0.6932
  107OSM   H12A10909   2.784   1.899  10.955  0.1595  1.1819 -0.7447
  107OSM   H12B10910   2.941   1.849  10.884 -1.5489 -0.7768 -1.9155
  107OSM    C1110911   2.884   2.054  10.840  0.3004  0.6605 -0.5588
  107OSM   H11A10912   2.846   2.018  10.742  2.5920 -1.8695 -0.5843
  107OSM   H11B10913   2.989   2.074  10.812  1.2602 -2.1417  0.8080
  107OSM      P10914   2.657   2.167  10.893 -0.0415  0.0362 -0.5060
  107OSM    O1310915   2.611   2.039  10.951  0.2966  0.7377 -0.3184
  107OSM    O1410916   2.605   2.295  10.950 -0.1531 -0.2099  0.4858
  107OSM    O1110917   2.635   2.162  10.742 -0.0387  0.1191 -0.2140
  107OSM    O1210918   2.816   2.162  10.899  0.3723 -0.2282 -0.2870
  107OSM    C1S10919   2.680   2.265  10.655 -0.2792 -0.2446  0.3213
  107OSM    H1S10920   2.783   2.293  10.686 -0.9520  0.2446  2.2061
  107OSM    H1T10921   2.606   2.347  10.671  0.8782  0.6765  0.9881
  107OSM     NF10922   2.758   2.305  10.424  0.0114  0.1139  0.0603
  107OSM    HNF10923   2.712   2.377  10.373  0.5801 -0.5779 -1.4437
  107OSM    C2S10924   2.677   2.219  10.507  0.5336 -0.3298  0.0338
  107OSM    H2S10925   2.720   2.117  10.508  0.0798 -0.5213  0.2289
  107OSM    C3S10926   2.527   2.212  10.463 -0.1114 -0.1217 -0.0156
  107OSM    H3S10927   2.491   2.317  10.455 -2.1128 -0.7950 -0.0001
  107OSM     O310928   2.432   2.153  10.558 -0.5198  0.3088  0.4959
  107OSM    HO310929   2.487   2.138  10.635  1.3089  3.3180 -0.1669
  107OSM    C4S10930   2.515   2.153  10.328 -0.8006 -0.4607 -0.9145
  107OSM    H4S10931   2.511   2.232  10.252  0.0043  2.1876  1.7323
  107OSM    C5S10932   2.505   2.025  10.288  0.6387  0.2034  0.4302
  107OSM    H5S10933   2.511   1.939  10.357  1.0353 -1.8683 -2.0699
  107OSM    C6S10934   2.496   1.980  10.142  0.0122 -0.6564  0.0690
  107OSM    H6S10935   2.398   1.933  10.116 -0.7007  0.3156  0.9650
  107OSM    H6T10936   2.564   1.893  10.129  0.8135 -0.0037 -0.1421
  107OSM    C7S10937   2.528   2.087  10.038  0.6076 -0.1820 -0.1150
  107OSM    H7S10938   2.630   2.125  10.060  0.3986 -0.3629  1.1865
  107OSM    H7T10939   2.453   2.168  10.050 -0.1498 -0.8650 -0.2589
  107OSM    C8S10940   2.523   2.024   9.908  0.3241  0.1333  0.0078
  107OSM    H8S10941   2.424   1.976   9.908  1.3355 -2.0074  1.3852
  107OSM    H8T10942   2.604   1.950   9.892  1.9026  1.5890  1.0137
  107OSM    C9S10943   2.529   2.125   9.794 -0.2783  0.2418  0.5699
  107OSM    H9S10944   2.616   2.194   9.800  0.9054 -0.8468 -2.7417
  107OSM    H9T10945   2.430   2.176   9.800  0.2067  1.0560  1.8085
  107OSM   C10S10946   2.542   2.050   9.659 -0.7678 -0.9132 -0.2192
  107OSM   H10S10947   2.448   1.991   9.655 -0.6613 -1.2411  1.9327
  107OSM   H10T10948   2.622   1.973   9.659 -0.3234 -0.4506  0.2205
  107OSM   C11S10949   2.540   2.144   9.534  0.4090  0.1031  0.0116
  107OSM   H11S10950   2.639   2.194   9.519  0.3274  0.4684  0.6583
  107OSM   H11T10951   2.466   2.227   9.540  1.0041  0.6475 -0.0125
  107OSM   C12S10952   2.530   2.063   9.399  0.3331  0.1973  0.1843
  107OSM   H12S10953   2.427   2.023   9.387  0.9312 -0.4979 -3.0836
  107OSM   H12T10954   2.603   1.980   9.396  1.5816  1.2695  0.3226
  107OSM   C13S10955   2.559   2.157   9.285  0.7313  0.6696 -0.3092
  107OSM   H13S10956   2.664   2.193   9.298  0.9974 -0.4757  0.8487
  107OSM   H13T10957   2.494   2.247   9.293 -0.4813 -0.2199 -0.1559
  107OSM   C14S10958   2.540   2.089   9.145  0.0595 -0.0049  0.0074
  107OSM   H14S10959   2.444   2.033   9.154  1.0493 -1.4447  2.0115
  107OSM   H14T10960   2.624   2.020   9.121 -0.8379 -0.7153 -1.1706
  107OSM   C15S10961   2.527   2.198   9.038  0.1803  0.7836  0.6615
  107OSM   H15S10962   2.455   2.273   9.077 -0.3737 -0.2448  1.6526
  107OSM   H15T10963   2.493   2.155   8.942 -0.7894  0.1386  1.2799
  107OSM   C16S10964   2.657   2.280   9.014 -0.6507 -0.4634 -0.3912
  107OSM   H16S10965   2.742   2.211   8.990 -1.0409 -1.2496  0.4549
  107OSM   H16T10966   2.690   2.345   9.098  0.9927 -0.9086 -0.6724
  107OSM   C17S10967   2.649   2.375   8.893 -0.0101 -0.9563 -0.1279
  107OSM   H17S10968   2.572   2.448   8.926  0.4336 -1.2177  1.5159
  107OSM   H17T10969   2.629   2.335   8.792 -0.6113 -0.4643 -0.2128
  107OSM   C18S10970   2.781   2.454   8.868 -0.4028 -0.6455  0.6977
  107OSM   H18S10971   2.744   2.549   8.824 -0.0834 -0.9292 -0.1999
  107OSM   H18T10972   2.844   2.404   8.791  1.6716  1.6717  0.7898
  107OSM   H18U10973   2.839   2.483   8.959  1.3481 -1.1764 -0.2323
  107OSM    C1F10974   2.889   2.307  10.440  0.0094 -0.4614  0.5292
  107OSM     OF10975   2.950   2.218  10.505 -0.7767 -0.6589 -0.0896
  107OSM    C2F10976   2.955   2.419  10.371  0.0298 -0.4736  0.5241
  107OSM    H2F10977   2.922   2.510  10.424 -1.1603 -1.2793  1.1915
  107OSM    H2G10978   2.932   2.414  10.262 -0.0223 -1.2108  0.5628
  107OSM    C3F10979   3.109   2.416  10.367  0.2113  0.1159  0.4486
  107OSM    H3F10980   3.150   2.322  10.324  1.6372  1.1805 -0.5614
  107OSM    H3G10981   3.138   2.399  10.473 -3.6155 -0.0913  1.5268
  107OSM    C4F10982   3.179   2.533  10.292  0.2892 -0.2317 -0.2984
  107OSM    H4F10983   3.289   2.537  10.310  0.0097  0.2408  1.3976
  107OSM    H4G10984   3.137   2.629  10.327  0.8703 -0.2474  0.4472
  107OSM    C5F10985   3.160   2.516  10.139 -0.8250  0.8396  0.6086
  107OSM    H5F10986   3.052   2.516  10.112 -0.0582  0.5196 -2.7870
  107OSM    H5G10987   3.204   2.415  10.119 -1.5252  0.9994 -1.9324
  107OSM    C6F10988   3.222   2.623  10.052  0.3506 -0.2985 -0.1072
  107OSM    H6F10989   3.327   2.629  10.085 -0.3218  1.5751  1.8028
  107OSM    H6G10990   3.179   2.725  10.066 -0.2742 -0.7311  1.1512
  107OSM    C7F10991   3.236   2.564   9.910  0.9452 -0.3937  0.4881
  107OSM    H7F10992   3.274   2.460   9.920  2.4306  0.1925  1.0166
  107OSM    H7G10993   3.315   2.607   9.845 -1.7519  0.9271 -2.0536
  107OSM    C8F10994   3.106   2.566   9.823  0.4842  0.0394  0.2849
  107OSM    H8F10995   3.024   2.513   9.876 -0.0188  0.5704  0.0411
  107OSM    H8G10996   3.126   2.513   9.728 -1.1975 -0.2771  0.0887
  107OSM    C9F10997   3.080   2.712   9.802  0.1396  0.4463  0.1674
  107OSM    H9F10998   3.048   2.768   9.891  1.0535  2.1762 -0.5732
  107OSM   C10F10999   3.103   2.774   9.684  0.5634  0.4859 -0.9974
  107OSM   H10F11000   3.079   2.882   9.680  2.0972  0.9286  1.0586
  107OSM   C11F11001   3.153   2.718   9.554  0.2691 -0.0165  0.7723
  107OSM   H11F11002   3.116   2.615   9.535 -1.6938  0.8662 -0.2873
  107OSM   H11G11003   3.263   2.710   9.569  0.3859 -1.3468 -0.7513
  107OSM   C12F11004   3.130   2.799   9.426 -0.3409 -0.0301  0.5906
  107OSM   H12F11005   3.133   2.909   9.443  0.6724 -0.1006  0.9271
  107OSM   H12G11006   3.027   2.788   9.386  1.6235 -3.0238 -4.0486
  107OSM   C13F11007   3.233   2.778   9.312  0.2282  0.2135  0.3097
  107OSM   H13F11008   3.334   2.762   9.356  0.8921  2.0865 -0.4637
  107OSM   H13G11009   3.242   2.861   9.239  0.2373  0.9197  1.0996
  107OSM   C14F11010   3.210   2.658   9.222  0.3863  0.2576 -0.0675
  107OSM   H14F11011   3.181   2.569   9.282 -1.0741 -1.1205 -2.7196
  107OSM   H14G11012   3.305   2.620   9.177 -0.3357  0.3384 -1.7012
  107OSM   C15F11013   3.105   2.674   9.106 -1.2779  0.7487  0.2061
  107OSM   H15F11014   3.002   2.675   9.149 -0.2203 -2.5732  3.0436
  107OSM   H15G11015   3.120   2.579   9.051  1.2478  1.4267 -0.3222
  107OSM   C16F11016   3.129   2.800   9.019 -0.1529  0.1210 -1.1981
  107OSM   H16F11017   3.237   2.824   9.012  0.3273 -2.5543 -4.1890
  107OSM   H16G11018   3.082   2.894   9.056  1.2384  0.4071 -0.1163
  107OSM   C17F11019   3.070   2.785   8.886  0.8501  0.4449 -0.0659
  107OSM   H17F11020   2.966   2.749   8.894  1.0740 -0.2326 -0.1271
  107OSM   H17G11021   3.116   2.700   8.831 -0.1360 -0.3323  0.3023
  107OSM   C18F11022   3.082   2.916   8.798  0.0144  0.0276  0.0258
  107OSM   H18F11023   3.187   2.952   8.806  0.1935 -0.6507  0.7121
  107OSM   H18G11024   3.004   2.985   8.836 -0.5289 -0.3551 -0.3843
  107OSM   H18H11025   3.066   2.898   8.689  3.2475  2.2386 -0.9022
  108OSM      N11026   0.213   3.782  10.597 -0.0734  0.2632  0.1914
  108OSM    C1511027   0.224   3.927  10.638  0.0012 -0.2588  0.5386
  108OSM   H15A11028   0.155   3.937  10.720 -3.3330  0.7171 -2.2863
  108OSM   H15B11029   0.190   3.993  10.560 -2.0829 -1.0016  0.7902
  108OSM   H15C11030   0.326   3.948  10.669  0.4784  0.8234 -1.6486
  108OSM    C1411031   0.312   3.760  10.484 -0.4070 -0.6853  0.0818
  108OSM   H14A11032   0.409   3.780  10.528  0.2054  0.9156 -1.8995
  108OSM   H14B11033   0.283   3.833  10.410 -2.0553 -0.2315  1.1325
  108OSM   H14C11034   0.296   3.661  10.446  1.9629 -1.1616  0.2528
  108OSM    C1311035   0.246   3.700  10.713 -0.4163  0.4101 -0.0712
  108OSM   H13A11036   0.180   3.719  10.796  0.1758 -2.8042  1.1825
  108OSM   H13B11037   0.349   3.723  10.733 -0.1543  0.7864 -1.7888
  108OSM   H13C11038   0.240   3.594  10.691  1.6069 -0.0397  1.4489
  108OSM    C1211039   0.073   3.754  10.553 -0.4041 -0.1331  0.4055
  108OSM   H12A11040   0.066   3.663  10.495 -2.1574  0.3939 -0.2608
  108OSM   H12B11041   0.059   3.835  10.482 -1.6113 -2.0925 -1.6823
  108OSM    C1111042  -0.041   3.768  10.662 -0.2068  0.1738  0.4247
  108OSM   H11A11043  -0.019   3.693  10.741  1.1938  0.0021 -0.1203
  108OSM   H11B11044  -0.131   3.722  10.615 -1.4603  1.0117  1.9648
  108OSM      P11045  -0.148   4.006  10.615 -0.2852  0.0629  0.1698
  108OSM    O1311046  -0.192   4.109  10.712 -0.0253 -0.6694  0.2959
  108OSM    O1411047  -0.073   4.041  10.492  0.1844  0.5178  0.6936
  108OSM    O1111048  -0.274   3.915  10.585  0.7797 -0.0213 -0.4436
  108OSM    O1211049  -0.062   3.907  10.694 -0.2786  0.2956 -0.1161
  108OSM    C1S11050  -0.391   3.977  10.526  0.2385  0.3065  0.5276
  108OSM    H1S11051  -0.418   4.081  10.553 -1.0693 -0.0926  0.8182
  108OSM    H1T11052  -0.477   3.916  10.561 -0.7574  0.7952 -1.0043
  108OSM     NF11053  -0.518   4.015  10.319  0.2963 -0.2880 -0.1650
  108OSM    HNF11054  -0.595   3.952  10.306 -0.0629  0.0371  0.3567
  108OSM    C2S11055  -0.393   3.967  10.370 -0.0188  0.8479  1.2258
  108OSM    H2S11056  -0.321   4.034  10.319  0.8619 -1.7152 -1.0034
  108OSM    C3S11057  -0.360   3.815  10.328 -0.3214  0.4633  0.3660
  108OSM    H3S11058  -0.419   3.742  10.387  0.4099  1.1013  1.9214
  108OSM     O311059  -0.218   3.787  10.344 -0.1499  0.0814  0.2098
  108OSM    HO311060  -0.183   3.849  10.409  0.9717 -0.7772  0.4432
  108OSM    C4S11061  -0.394   3.794  10.186  0.2936  0.7829  0.3783
  108OSM    H4S11062  -0.329   3.847  10.114  0.1031  1.5514  0.7729
  108OSM    C5S11063  -0.494   3.712  10.147  0.3111  0.5830  0.0150
  108OSM    H5S11064  -0.548   3.652  10.223 -2.6835  0.9772 -1.7140
  108OSM    C6S11065  -0.543   3.701  10.004 -0.1713 -0.2602 -0.0065
  108OSM    H6S11066  -0.654   3.705  10.006 -0.2226 -1.5118  0.0293
  108OSM    H6T11067  -0.516   3.604   9.958 -0.4796 -0.5051  0.3269
  108OSM    C7S11068  -0.479   3.795   9.902  0.2811  0.2697  0.1730
  108OSM    H7S11069  -0.369   3.811   9.915  0.4625  0.5629 -1.6822
  108OSM    H7T11070  -0.525   3.895   9.916 -1.4891 -0.8109  2.4715
  108OSM    C8S11071  -0.493   3.744   9.756 -0.2804 -0.3879  0.1573
  108OSM    H8S11072  -0.604   3.732   9.752 -0.4637  0.8692  1.2011
  108OSM    H8T11073  -0.435   3.650   9.749  0.8491  0.2146  1.3970
  108OSM    C9S11074  -0.450   3.846   9.649  0.0882  0.5156 -0.0159
  108OSM    H9S11075  -0.346   3.881   9.670  0.1159 -0.2286  1.1911
  108OSM    H9T11076  -0.517   3.934   9.652 -1.2911 -0.5297  0.6524
  108OSM   C10S11077  -0.459   3.795   9.501  0.3902  0.2800  0.6521
  108OSM   H10S11078  -0.567   3.780   9.479  0.0878  2.1977  0.6980
  108OSM   H10T11079  -0.415   3.693   9.495 -0.2422 -0.0008  0.7157
  108OSM   C11S11080  -0.387   3.875   9.392 -0.4913  0.1111  0.2985
  108OSM   H11S11081  -0.290   3.912   9.432  0.8533  0.1195 -2.8716
  108OSM   H11T11082  -0.446   3.963   9.357 -0.0722  1.3807  2.6553
  108OSM   C12S11083  -0.362   3.782   9.273 -0.9790 -0.3852  0.4382
  108OSM   H12S11084  -0.459   3.749   9.230 -1.7067  0.3545  1.4863
  108OSM   H12T11085  -0.298   3.697   9.305 -2.1279 -1.8393 -1.0247
  108OSM   C13S11086  -0.283   3.860   9.163 -0.1067 -0.3680  0.0431
  108OSM   H13S11087  -0.192   3.911   9.203 -0.0089  0.4993 -1.2515
  108OSM   H13T11088  -0.344   3.948   9.134 -0.3127 -0.2414  0.8552
  108OSM   C14S11089  -0.248   3.775   9.045  0.2525 -0.2170 -0.3239
  108OSM   H14S11090  -0.339   3.718   9.015 -0.2089  0.8500 -0.9917
  108OSM   H14T11091  -0.172   3.699   9.075 -0.1798 -0.2418  0.7603
  108OSM   C15S11092  -0.203   3.859   8.928  0.2431 -0.1177  0.1211
  108OSM   H15S11093  -0.099   3.892   8.948  0.4403 -0.3998 -0.4244
  108OSM   H15T11094  -0.267   3.948   8.916 -1.1888 -1.2666 -0.9287
  108OSM   C16S11095  -0.218   3.784   8.795 -0.0992 -0.2277  0.4738
  108OSM   H16S11096  -0.325   3.755   8.787 -0.4928  1.5411 -1.0036
  108OSM   H16T11097  -0.166   3.686   8.792  0.3728  0.0314  0.1402
  108OSM   C17S11098  -0.186   3.872   8.678 -0.4919  0.1949  0.1781
  108OSM   H17S11099  -0.076   3.891   8.675 -0.4146 -0.0830  0.9467
  108OSM   H17T11100  -0.238   3.968   8.695 -1.6044 -0.0584 -1.6471
  108OSM   C18S11101  -0.234   3.799   8.549 -0.2234 -0.4483  0.1249
  108OSM   H18S11102  -0.243   3.874   8.468  1.2314 -0.0974  0.2782
  108OSM   H18T11103  -0.339   3.766   8.559  0.4712 -2.6080  0.5429
  108OSM   H18U11104  -0.164   3.722   8.508  0.5873  0.9601 -1.1851
  108OSM    C1F11105  -0.571   4.144  10.331 -0.0732  0.0674 -0.4930
  108OSM     OF11106  -0.499   4.236  10.369 -0.1852  0.0397  0.0853
  108OSM    C2F11107  -0.722   4.166  10.312  0.5239 -0.4963  0.7390
  108OSM    H2F11108  -0.760   4.235  10.390  0.2173 -0.4588  0.5561
  108OSM    H2G11109  -0.786   4.075  10.309  0.7307 -0.6094 -1.6274
  108OSM    C3F11110  -0.760   4.223  10.172 -0.4141 -0.1070  0.3829
  108OSM    H3F11111  -0.705   4.319  10.162 -0.6533  0.0269  0.3480
  108OSM    H3G11112  -0.867   4.250  10.181 -0.3574  0.2731 -0.0497
  108OSM    C4F11113  -0.739   4.131  10.053  0.2453 -0.5048  0.2146
  108OSM    H4F11114  -0.780   4.030  10.075  2.4373 -1.3678  0.5474
  108OSM    H4G11115  -0.630   4.114  10.036  0.6041  0.7499  1.2149
  108OSM    C5F11116  -0.813   4.171   9.927  1.1078 -0.5225  0.2586
  108OSM    H5F11117  -0.789   4.279   9.915  1.6225 -0.5356  1.0844
  108OSM    H5G11118  -0.922   4.166   9.943  1.2404  0.5271  1.5839
  108OSM    C6F11119  -0.761   4.090   9.817 -0.9376  1.0650  0.5949
  108OSM    H6F11120  -0.776   3.980   9.819  0.6048  0.7881 -1.0147
  108OSM    H6G11121  -0.650   4.102   9.817 -1.0110  1.8136  2.5134
  108OSM    C7F11122  -0.807   4.154   9.687 -0.4915 -0.1894 -0.0523
  108OSM    H7F11123  -0.788   4.262   9.676  1.2432 -0.4605 -0.0060
  108OSM    H7G11124  -0.917   4.143   9.686 -0.4883 -0.2817  0.3059
  108OSM    C8F11125  -0.763   4.086   9.556 -0.6932  0.4652  0.4042
  108OSM    H8F11126  -0.776   3.976   9.561  1.2854  0.1085 -1.4689
  108OSM    H8G11127  -0.652   4.090   9.552 -0.4581 -2.1501  2.9969
  108OSM    C9F11128  -0.807   4.150   9.429 -0.7859  0.3480  0.3384
  108OSM    H9F11129  -0.778   4.255   9.421  2.2513 -0.3166  1.9517
  108OSM   C10F11130  -0.886   4.092   9.336  0.2928  1.1905 -0.3248
  108OSM   H10F11131  -0.939   4.144   9.254 -1.0441  0.0727 -0.1779
  108OSM   C11F11132  -0.932   3.948   9.333  0.2158  1.0151 -0.4113
  108OSM   H11F11133  -1.040   3.931   9.315  0.2577  0.5922 -0.2613
  108OSM   H11G11134  -0.893   3.900   9.425  0.7603  2.1825 -0.0242
  108OSM   C12F11135  -0.853   3.880   9.214 -0.6090  0.8330 -0.2894
  108OSM   H12F11136  -0.868   3.772   9.235 -0.5049  0.4118 -2.2672
  108OSM   H12G11137  -0.747   3.900   9.239 -1.5435  0.0640  4.8916
  108OSM   C13F11138  -0.894   3.909   9.070  0.0185 -0.1183 -0.1879
  108OSM   H13F11139  -0.891   4.019   9.060 -1.1131 -0.0698 -0.1463
  108OSM   H13G11140  -0.998   3.881   9.041 -1.0368  1.5941  1.7979
  108OSM   C14F11141  -0.797   3.851   8.970  0.9920 -0.7106  0.2707
  108OSM   H14F11142  -0.785   3.742   8.984  0.3890 -0.7662  0.3560
  108OSM   H14G11143  -0.699   3.899   8.994  0.7986  0.2924 -0.9065
  108OSM   C15F11144  -0.848   3.868   8.824 -0.6538 -0.1385  0.2784
  108OSM   H15F11145  -0.764   3.830   8.762  0.9214 -2.1173  3.4797
  108OSM   H15G11146  -0.853   3.976   8.801 -0.7208 -0.3203 -0.5934
  108OSM   C16F11147  -0.972   3.792   8.779  0.7392 -0.7409  0.4997
  108OSM   H16F11148  -1.044   3.785   8.863 -0.6870  0.4058 -0.6092
  108OSM   H16G11149  -0.945   3.688   8.748  0.3228 -1.1844  1.5946
  108OSM   C17F11150  -1.032   3.869   8.656 -0.4602 -0.0604 -0.1862
  108OSM   H17F11151  -1.084   3.957   8.699  1.5391  1.0853 -0.0610
  108OSM   H17G11152  -1.102   3.795   8.613  2.0621 -3.4071  1.1817
  108OSM   C18F11153  -0.931   3.909   8.553 -0.2101 -0.0440  0.1363
  108OSM   H18F11154  -0.873   3.826   8.508  0.9622  0.6157  0.4018
  108OSM   H18G11155  -0.865   3.988   8.596  1.9682 -2.2160  0.9012
  108OSM   H18H11156  -0.979   3.959   8.466  1.1230  1.5060  0.2430
  109OSM      N11157   4.304   2.379  11.362 -0.7673  0.1518 -0.0669
  109OSM    C1511158   4.239   2.299  11.463 -0.7106  0.3432 -0.0013
  109OSM   H15A11159   4.295   2.287  11.555 -0.3414  0.2675 -0.2349
  109OSM   H15B11160   4.214   2.198  11.434  2.1332 -0.1096 -1.0539
  109OSM   H15C11161   4.144   2.336  11.497 -1.2651  0.6233 -1.8228
  109OSM    C1411162   4.220   2.389  11.242  0.4534  0.3527 -0.3126
  109OSM   H14A11163   4.212   2.291  11.197  1.0212 -0.1400  0.6640
  109OSM   H14B11164   4.262   2.441  11.157 -0.3675 -2.1754 -2.3517
  109OSM   H14C11165   4.119   2.426  11.257 -0.0264 -0.8610 -0.5088
  109OSM    C1311166   4.339   2.515  11.415  1.1789  0.1572 -0.2003
  109OSM   H13A11167   4.376   2.577  11.335 -0.6175  0.4015 -0.8806
  109OSM   H13B11168   4.423   2.514  11.482  1.9632  0.2049 -1.1631
  109OSM   H13C11169   4.257   2.572  11.458  0.6118 -1.1802  0.5103
  109OSM    C1211170   4.431   2.304  11.313  0.1077 -0.0124  0.2976
  109OSM   H12A11171   4.408   2.207  11.272 -0.0689  0.1572 -0.0069
  109OSM   H12B11172   4.498   2.284  11.396 -1.8885 -1.2940  1.6490
  109OSM    C1111173   4.512   2.385  11.205 -0.3047  0.0617 -0.3029
  109OSM   H11A11174   4.615   2.343  11.208  0.0355  0.8572 -0.6242
  109OSM   H11B11175   4.525   2.490  11.237 -1.7476 -0.1532  1.0889
  109OSM      P11176   4.454   2.235  10.995  0.2004  0.1418  0.6046
  109OSM    O1311177   4.517   2.118  11.064 -0.0020 -0.7035 -0.5231
  109OSM    O1411178   4.311   2.220  10.957 -0.5455 -0.0948 -0.2298
  109OSM    O1111179   4.523   2.263  10.863 -0.5261 -0.1006  0.1229
  109OSM    O1211180   4.468   2.375  11.069 -0.1968 -0.6738  0.4404
  109OSM    C1S11181   4.628   2.359  10.841  0.0529 -0.1606  0.2140
  109OSM    H1S11182   4.699   2.340  10.923 -1.8624 -2.1521  1.4522
  109OSM    H1T11183   4.589   2.463  10.850  2.1951  0.9294 -2.0981
  109OSM     NF11184   4.800   2.462  10.688  0.0037 -0.3837  0.1397
  109OSM    HNF11185   4.762   2.534  10.631 -1.2323 -0.3001  1.0517
  109OSM    C2S11186   4.702   2.352  10.700 -0.1640  0.0685  0.7265
  109OSM    H2S11187   4.748   2.251  10.687  1.3214  0.8402 -0.0854
  109OSM    C3S11188   4.588   2.362  10.597 -0.1925 -0.2249 -0.2485
  109OSM    H3S11189   4.514   2.443  10.614 -0.4293 -0.3616 -0.6200
  109OSM     O311190   4.505   2.253  10.585 -0.0899 -0.4167 -0.1337
  109OSM    HO311191   4.533   2.202  10.662  1.5951  2.5099  1.2500
  109OSM    C4S11192   4.647   2.382  10.464  0.7843 -0.9785  0.1633
  109OSM    H4S11193   4.694   2.290  10.425  0.0204 -0.7842 -1.2673
  109OSM    C5S11194   4.629   2.489  10.385  0.2902 -0.1342 -0.2980
  109OSM    H5S11195   4.570   2.577  10.416  0.6793 -0.2800  0.8609
  109OSM    C6S11196   4.689   2.514  10.252  0.3357  0.5318 -0.3039
  109OSM    H6S11197   4.744   2.610  10.260  2.4960 -0.8963  2.7384
  109OSM    H6T11198   4.610   2.523  10.174  0.0842  1.9280  0.0836
  109OSM    C7S11199   4.788   2.415  10.198 -0.3760 -0.1619  0.4144
  109OSM    H7S11200   4.733   2.322  10.172 -1.6044  0.4217  0.9177
  109OSM    H7T11201   4.875   2.397  10.264  0.3971 -0.5442 -0.6804
  109OSM    C8S11202   4.851   2.474  10.069 -0.4429 -0.9807 -0.3432
  109OSM    H8S11203   4.932   2.402  10.045 -0.8322 -1.1854 -1.0832
  109OSM    H8T11204   4.885   2.579  10.084  0.8217 -1.1429 -1.9212
  109OSM    C9S11205   4.763   2.469   9.942 -0.1902 -0.9514 -0.3005
  109OSM    H9S11206   4.670   2.529   9.938 -0.2603 -1.0053  0.3674
  109OSM    H9T11207   4.727   2.364   9.931 -0.3798 -1.4706  4.1307
  109OSM   C10S11208   4.854   2.493   9.822 -0.8831  0.0629 -0.0093
  109OSM   H10S11209   4.937   2.419   9.825 -1.3522 -0.5993 -2.2346
  109OSM   H10T11210   4.903   2.591   9.842 -1.1277 -0.0091  0.9476
  109OSM   C11S11211   4.788   2.480   9.684 -0.1804 -0.7125  0.2408
  109OSM   H11S11212   4.706   2.554   9.670 -1.0598 -2.0480 -1.9271
  109OSM   H11T11213   4.742   2.380   9.668  1.1465 -1.6926  2.3751
  109OSM   C12S11214   4.872   2.481   9.552  0.0362  0.4080 -0.1807
  109OSM   H12S11215   4.914   2.380   9.530  0.4662  0.2733  1.1823
  109OSM   H12T11216   4.951   2.559   9.559  1.2530 -0.8525  0.4788
  109OSM   C13S11217   4.789   2.511   9.427 -0.2613 -0.0626 -0.3724
  109OSM   H13S11218   4.754   2.616   9.416  0.0166  0.0133 -0.5371
  109OSM   H13T11219   4.701   2.443   9.426  0.7965 -1.4568 -0.9035
  109OSM   C14S11220   4.872   2.473   9.305  0.8050 -0.7469 -0.4695
  109OSM   H14S11221   4.895   2.365   9.308 -0.1721 -0.9520 -0.4575
  109OSM   H14T11222   4.971   2.524   9.296  1.4716 -2.2040 -1.4784
  109OSM   C15S11223   4.803   2.496   9.172  0.8287 -0.0455 -0.5277
  109OSM   H15S11224   4.792   2.605   9.152 -1.6410  0.0093  0.9647
  109OSM   H15T11225   4.702   2.452   9.179  0.3979  0.8929 -0.7397
  109OSM   C16S11226   4.868   2.442   9.047 -0.4727 -0.2545  0.1079
  109OSM   H16S11227   4.864   2.331   9.054 -1.2277 -0.2446 -0.1125
  109OSM   H16T11228   4.978   2.458   9.050 -0.3239 -1.3893  1.1266
  109OSM   C17S11229   4.802   2.488   8.913 -0.2193 -0.0327 -0.0648
  109OSM   H17S11230   4.871   2.458   8.831  1.1685  1.5016  0.5050
  109OSM   H17T11231   4.796   2.599   8.918  0.1718 -0.0614  1.2139
  109OSM   C18S11232   4.663   2.432   8.892  0.4904 -0.0591 -0.0651
  109OSM   H18S11233   4.615   2.479   8.803  0.1169  0.0873  0.2099
  109OSM   H18T11234   4.596   2.443   8.981  1.1293  2.3945  0.1490
  109OSM   H18U11235   4.681   2.325   8.867  0.9195 -0.5538  2.2548
  109OSM    C1F11236   4.915   2.463  10.754  0.1139  0.7939 -0.6579
  109OSM     OF11237   4.945   2.365  10.815 -0.2578  0.0955  0.2144
  109OSM    C2F11238   4.992   2.587  10.752 -0.3253  0.2441 -0.1715
  109OSM    H2F11239   4.961   2.628  10.851  1.4612  0.6749  0.2163
  109OSM    H2G11240   4.974   2.656  10.667  0.9862 -1.2627 -1.6811
  109OSM    C3F11241   5.146   2.565  10.763  0.5468 -0.4619  0.1390
  109OSM    H3F11242   5.180   2.520  10.859  3.5568 -1.6580 -1.4264
  109OSM    H3G11243   5.186   2.667  10.747 -2.2691  1.3281  3.7079
  109OSM    C4F11244   5.203   2.485  10.642 -0.0632  0.4669 -0.2968
  109OSM    H4F11245   5.194   2.376  10.665 -0.4575  0.3508 -0.9831
  109OSM    H4G11246   5.312   2.506  10.649  0.0092 -0.0218  0.0830
  109OSM    C5F11247   5.149   2.522  10.496 -0.4200  0.0975 -0.1121
  109OSM    H5F11248   5.174   2.629  10.484  0.1539 -0.0017  0.1554
  109OSM    H5G11249   5.039   2.522  10.484 -0.3049  3.3563 -1.5921
  109OSM    C6F11250   5.219   2.433  10.396 -0.1893  0.3755 -0.9117
  109OSM    H6F11251   5.188   2.328  10.415 -1.3502  0.7261 -0.7989
  109OSM    H6G11252   5.325   2.441  10.428 -0.7543 -0.2919  1.2191
  109OSM    C7F11253   5.211   2.462  10.244  0.0880  0.0010  0.4376
  109OSM    H7F11254   5.210   2.573  10.228  0.0677 -0.3942 -2.7154
  109OSM    H7G11255   5.115   2.418  10.212  0.8776 -0.8131 -0.8715
  109OSM    C8F11256   5.326   2.408  10.169 -0.1197  0.0115  0.6858
  109OSM    H8F11257   5.311   2.421  10.060 -2.0813  1.6626  1.1324
  109OSM    H8G11258   5.335   2.298  10.181  2.2717  0.1285  0.3807
  109OSM    C9F11259   5.455   2.473  10.195  0.4679 -0.8401 -0.4457
  109OSM    H9F11260   5.464   2.535  10.285 -0.4322 -2.2081  0.5898
  109OSM   C10F11261   5.568   2.477  10.115  0.8017  0.8564  0.3270
  109OSM   H10F11262   5.648   2.546  10.145  0.7032  0.6543  1.0585
  109OSM   C11F11263   5.594   2.396   9.993 -0.8148  0.5628  0.3718
  109OSM   H11F11264   5.524   2.318   9.957  1.2613 -0.6889 -1.0828
  109OSM   H11G11265   5.682   2.335  10.024  0.0199  1.0051 -1.0451
  109OSM   C12F11266   5.619   2.491   9.875  0.5173 -0.4839  0.0621
  109OSM   H12F11267   5.703   2.557   9.908  0.4549  0.0052 -0.7144
  109OSM   H12G11268   5.534   2.562   9.862 -0.7722 -2.1092 -0.5175
  109OSM   C13F11269   5.652   2.407   9.750  0.3319  0.2529 -0.4260
  109OSM   H13F11270   5.562   2.352   9.715 -1.1423 -0.3614  3.9997
  109OSM   H13G11271   5.732   2.333   9.774  0.9748  0.4154 -1.9912
  109OSM   C14F11272   5.693   2.498   9.635  0.7507 -0.3429  0.3914
  109OSM   H14F11273   5.787   2.551   9.661  0.4265 -0.1677  1.2479
  109OSM   H14G11274   5.612   2.568   9.605  1.1748  0.6429  1.5113
  109OSM   C15F11275   5.741   2.426   9.509  0.1903 -0.1141  0.8381
  109OSM   H15F11276   5.660   2.385   9.444  0.2136  0.9903  0.1001
  109OSM   H15G11277   5.819   2.356   9.545 -1.1998 -1.7972  0.6958
  109OSM   C16F11278   5.815   2.521   9.412  0.3725  0.1602  1.2920
  109OSM   H16F11279   5.888   2.579   9.472  1.4524  0.5216 -0.3394
  109OSM   H16G11280   5.739   2.592   9.372  0.4563  0.5487  1.8289
  109OSM   C17F11281   5.882   2.436   9.301 -0.3815  0.1146 -0.0431
  109OSM   H17F11282   5.807   2.373   9.248  0.7142 -0.9220 -0.3814
  109OSM   H17G11283   5.949   2.362   9.350 -1.1593  1.1921  2.6922
  109OSM   C18F11284   5.963   2.529   9.211 -0.5126 -0.0410  0.3536
  109OSM   H18F11285   5.998   2.615   9.274  0.0095  0.6101 -0.8116
  109OSM   H18G11286   5.906   2.576   9.129 -0.8360  0.7835  1.0342
  109OSM   H18H11287   6.054   2.475   9.177 -0.9390 -1.3733  1.2798
  110OSM      N11288   5.339   0.596  10.707 -0.2319 -0.4109  0.2605
  110OSM    C1511289   5.417   0.532  10.599 -0.3166  0.4230  0.8285
  110OSM   H15A11290   5.338   0.502  10.532 -0.1953  2.0848 -0.0645
  110OSM   H15B11291   5.451   0.438  10.640 -0.9717  0.9350  2.6147
  110OSM   H15C11292   5.494   0.592  10.555 -0.2756  0.5504  1.0729
  110OSM    C1411293   5.282   0.726  10.640 -0.0201  0.2972 -0.2803
  110OSM   H14A11294   5.217   0.787  10.701  0.8342  0.0267  0.9244
  110OSM   H14B11295   5.222   0.690  10.558 -0.2057  2.0175 -0.9359
  110OSM   H14C11296   5.361   0.790  10.602 -0.2924  0.8372  0.0478
  110OSM    C1311297   5.239   0.502  10.750  0.2203 -0.5956 -0.2877
  110OSM   H13A11298   5.269   0.408  10.794 -0.0062 -0.5272  0.0172
  110OSM   H13B11299   5.176   0.473  10.667 -2.6601 -1.2417  2.0506
  110OSM   H13C11300   5.164   0.543  10.816  2.6590  0.4870  1.9098
  110OSM    C1211301   5.440   0.628  10.820 -0.3706 -0.3370  0.1472
  110OSM   H12A11302   5.392   0.697  10.888 -1.3265  0.0037 -0.8425
  110OSM   H12B11303   5.515   0.692  10.775  0.4145 -0.3820  1.3686
  110OSM    C1111304   5.511   0.512  10.890 -0.3821  0.5845 -0.7077
  110OSM   H11A11305   5.554   0.444  10.813 -0.4767 -0.0731 -0.1768
  110OSM   H11B11306   5.437   0.444  10.935 -0.3348  0.8023 -0.2933
  110OSM      P11307   5.742   0.604  10.954  0.0656  0.0018 -0.0604
  110OSM    O1311308   5.776   0.700  11.061  0.0569  0.3707 -0.0624
  110OSM    O1411309   5.824   0.486  10.933 -0.3112  0.0197  0.1212
  110OSM    O1111310   5.743   0.686  10.818 -0.2007  0.1135 -0.2327
  110OSM    O1211311   5.602   0.553  10.983 -0.3397 -0.1649  0.3116
  110OSM    C1S11312   5.784   0.636  10.694  0.1374  0.1131  1.2089
  110OSM    H1S11313   5.706   0.559  10.675 -0.0239  0.5702 -0.0884
  110OSM    H1T11314   5.883   0.587  10.686  0.4021  0.8336 -0.1960
  110OSM     NF11315   5.833   0.704  10.454  0.3599 -0.4243 -0.5959
  110OSM    HNF11316   5.922   0.724  10.414 -0.3139  1.3533 -1.2252
  110OSM    C2S11317   5.798   0.749  10.591  0.0641  0.0783  0.0184
  110OSM    H2S11318   5.706   0.811  10.591  0.1743  0.2550  1.4479
  110OSM    C3S11319   5.909   0.844  10.645 -0.4744 -0.1443  0.3862
  110OSM    H3S11320   5.998   0.782  10.624  0.3059  0.6910  1.1545
  110OSM     O311321   5.899   0.890  10.777 -0.1997 -0.3403 -0.0951
  110OSM    HO311322   5.835   0.824  10.804 -0.0630 -1.1596 -1.7114
  110OSM    C4S11323   5.929   0.958  10.557 -0.7134  0.4368 -0.4653
  110OSM    H4S11324   5.844   1.022  10.531 -1.9097 -0.8243  0.3092
  110OSM    C5S11325   6.047   0.986  10.498  0.8287 -0.7416 -0.0350
  110OSM    H5S11326   6.125   0.911  10.520  0.4875 -0.7859  1.0717
  110OSM    C6S11327   6.086   1.107  10.417  0.2659  0.3124  0.2345
  110OSM    H6S11328   6.168   1.170  10.457 -0.2127  0.3575  1.1614
  110OSM    H6T11329   6.002   1.179  10.412 -0.4871 -0.5627  0.1224
  110OSM    C7S11330   6.140   1.058  10.282  0.7303  0.0185  0.1837
  110OSM    H7S11331   6.211   0.973  10.295 -0.2918 -0.7091  1.1103
  110OSM    H7T11332   6.192   1.138  10.226  2.4649 -0.3032  1.2669
  110OSM    C8S11333   6.020   1.014  10.200 -0.0047 -0.0260 -0.2449
  110OSM    H8S11334   5.939   1.089  10.202  0.2277  0.2954 -2.0743
  110OSM    H8T11335   5.969   0.923  10.239 -2.3290  0.4772 -1.9797
  110OSM    C9S11336   6.075   0.980  10.055 -0.1880 -0.4657  0.2714
  110OSM    H9S11337   6.152   0.901  10.068 -0.2825 -0.3960  1.3086
  110OSM    H9T11338   6.125   1.073  10.020 -1.2178  0.4193  1.1369
  110OSM   C10S11339   5.970   0.935   9.960 -0.1721 -0.1661  0.1371
  110OSM   H10S11340   5.887   1.007   9.942  2.2056  2.1861 -1.9315
  110OSM   H10T11341   5.913   0.851  10.004  0.9252 -0.6744  0.6081
  110OSM   C11S11342   6.019   0.887   9.824  0.1703 -0.2840 -0.1978
  110OSM   H11S11343   5.933   0.843   9.769  0.5681 -0.6244 -0.5537
  110OSM   H11T11344   6.099   0.810   9.830 -0.3280 -0.9111 -1.3177
  110OSM   C12S11345   6.061   0.990   9.725  0.4736 -0.3417  0.2694
  110OSM   H12S11346   6.146   1.054   9.756 -1.8239  2.3874  1.0925
  110OSM   H12T11347   5.973   1.051   9.696 -0.0368 -0.2782  1.9282
  110OSM   C13S11348   6.121   0.923   9.601 -0.4714 -0.1323  0.4952
  110OSM   H13S11349   6.045   0.857   9.554  2.2588 -2.0314 -1.3907
  110OSM   H13T11350   6.207   0.860   9.629 -1.3895 -2.0748 -0.9082
  110OSM   C14S11351   6.164   1.016   9.490  0.0194 -0.2939 -0.3751
  110OSM   H14S11352   6.233   1.088   9.540  0.8360 -1.9499  0.9464
  110OSM   H14T11353   6.078   1.077   9.454 -0.5390 -1.1192 -0.4380
  110OSM   C15S11354   6.209   0.940   9.362 -0.2661 -0.6993  1.0414
  110OSM   H15S11355   6.120   0.890   9.317  0.8317  1.2851 -3.6310
  110OSM   H15T11356   6.286   0.863   9.381  3.5158  2.5343 -0.4174
  110OSM   C16S11357   6.268   1.038   9.258  0.1008  0.9277  0.4800
  110OSM   H16S11358   6.355   1.088   9.306  0.6983  0.2844  0.0954
  110OSM   H16T11359   6.190   1.114   9.237 -0.1046  0.0468 -2.2461
  110OSM   C17S11360   6.314   0.973   9.125  0.4113 -0.4781  0.9551
  110OSM   H17S11361   6.392   0.896   9.147  1.0688  0.4862  2.0551
  110OSM   H17T11362   6.359   1.055   9.064  0.0175  1.1994  2.8888
  110OSM   C18S11363   6.199   0.915   9.045  0.4979 -0.2238 -0.5236
  110OSM   H18S11364   6.137   0.840   9.097 -0.6371  0.1412 -1.3138
  110OSM   H18T11365   6.225   0.874   8.945 -0.7439 -0.6726 -0.6622
  110OSM   H18U11366   6.130   1.002   9.037  0.6957  0.1141  1.2906
  110OSM    C1F11367   5.741   0.636  10.387 -0.9212  0.0722 -1.1498
  110OSM     OF11368   5.646   0.598  10.447 -0.5068  0.1170  0.0819
  110OSM    C2F11369   5.755   0.618  10.235 -0.3953 -0.0186  0.2858
  110OSM    H2F11370   5.863   0.603  10.211  0.1782  1.8275  1.6000
  110OSM    H2G11371   5.727   0.711  10.183  0.0440 -0.4803 -0.7880
  110OSM    C3F11372   5.679   0.501  10.188 -0.6540  0.0733  1.0009
  110OSM    H3F11373   5.569   0.514  10.191 -0.6914  0.4422 -1.2407
  110OSM    H3G11374   5.716   0.413  10.246  2.2266 -0.5362 -1.6055
  110OSM    C4F11375   5.715   0.468  10.044  0.2627  0.1386 -0.0019
  110OSM    H4F11376   5.666   0.373  10.012  1.5707 -1.3476  2.2110
  110OSM    H4G11377   5.825   0.449  10.041  0.3379  0.5774 -0.0014
  110OSM    C5F11378   5.675   0.582   9.943 -0.2145  0.4946 -0.3490
  110OSM    H5F11379   5.689   0.686   9.979  2.2686  0.5320 -1.3451
  110OSM    H5G11380   5.567   0.558   9.930 -0.2835  0.1027  0.9028
  110OSM    C6F11381   5.758   0.560   9.817 -0.4309 -0.4700  0.1234
  110OSM    H6F11382   5.863   0.525   9.830  0.0840  1.1787  0.5054
  110OSM    H6G11383   5.758   0.654   9.757  1.1683 -0.1732  0.5717
  110OSM    C7F11384   5.699   0.451   9.725  0.0517  0.3909  0.2552
  110OSM    H7F11385   5.593   0.474   9.701 -0.2476  0.3879  1.5301
  110OSM    H7G11386   5.691   0.351   9.771 -0.0021 -0.3096 -1.2395
  110OSM    C8F11387   5.780   0.446   9.596 -0.3856  0.8330 -0.6596
  110OSM    H8F11388   5.767   0.347   9.546  1.1376 -0.2980  1.0923
  110OSM    H8G11389   5.887   0.446   9.626 -0.4415 -1.1032 -0.3748
  110OSM    C9F11390   5.759   0.554   9.493 -0.4615 -0.6273 -0.1555
  110OSM    H9F11391   5.799   0.654   9.519 -0.8584  0.1679 -2.4808
  110OSM   C10F11392   5.717   0.546   9.362  0.6395 -0.5127 -0.0796
  110OSM   H10F11393   5.708   0.639   9.304 -1.5125 -2.1592 -2.5241
  110OSM   C11F11394   5.662   0.430   9.279 -0.9009 -0.3375  0.5410
  110OSM   H11F11395   5.554   0.431   9.307 -0.6385  2.0932  1.6372
  110OSM   H11G11396   5.712   0.335   9.307 -0.6773 -0.9434 -1.8434
  110OSM   C12F11397   5.687   0.462   9.129 -0.2260  0.5367 -0.2901
  110OSM   H12F11398   5.793   0.444   9.099 -0.5825  0.4957 -1.5425
  110OSM   H12G11399   5.670   0.569   9.103  1.4112  0.7081 -0.7392
  110OSM   C13F11400   5.602   0.374   9.032 -0.2778 -0.4718 -0.0096
  110OSM   H13F11401   5.493   0.377   9.056 -0.5452 -0.2077 -1.2128
  110OSM   H13G11402   5.625   0.266   9.044 -1.1485 -0.9940 -2.7185
  110OSM   C14F11403   5.609   0.410   8.886 -0.1664  0.9096  0.7867
  110OSM   H14F11404   5.710   0.382   8.849  0.2756  1.0217  1.8893
  110OSM   H14G11405   5.603   0.521   8.875 -2.5257  0.5915 -1.4633
  110OSM   C15F11406   5.498   0.356   8.796 -0.5174 -0.0469 -0.7052
  110OSM   H15F11407   5.394   0.354   8.834 -0.5526 -0.9419 -0.8346
  110OSM   H15G11408   5.513   0.246   8.786 -3.1570 -0.2411 -2.9108
  110OSM   C16F11409   5.484   0.409   8.652 -0.5361 -0.3458 -0.2362
  110OSM   H16F11410   5.426   0.341   8.586  2.8942 -2.0980 -1.5290
  110OSM   H16G11411   5.576   0.442   8.600 -1.0767  2.1653  0.3573
  110OSM   C17F11412   5.406   0.545   8.643 -0.9543 -0.7020  0.9020
  110OSM   H17F11413   5.482   0.622   8.668  0.1579 -1.3878 -0.3170
  110OSM   H17G11414   5.323   0.556   8.716 -1.2049 -0.2001  0.5395
  110OSM   C18F11415   5.351   0.589   8.511  0.8055  0.1855  0.2090
  110OSM   H18F11416   5.288   0.507   8.469  0.3821 -0.2613  1.6975
  110OSM   H18G11417   5.436   0.614   8.444 -0.0064  0.7312 -0.6297
  110OSM   H18H11418   5.302   0.686   8.532 -0.0533 -0.6496  2.2206
  111OSM      N11419   0.218   5.366  10.921 -0.0827  0.2633 -0.5389
  111OSM    C1511420   0.232   5.217  10.923 -0.3859  0.4478  0.2215
  111OSM   H15A11421   0.157   5.159  10.870 -1.5573  1.2358  0.9808
  111OSM   H15B11422   0.217   5.176  11.021  0.0750 -1.8050 -0.6281
  111OSM   H15C11423   0.321   5.184  10.872 -0.3190  0.1556  0.5330
  111OSM    C1411424   0.092   5.401  10.991  0.1281  0.5580  0.3308
  111OSM   H14A11425   0.087   5.508  11.001  1.4294  0.5088  1.6525
  111OSM   H14B11426   0.084   5.366  11.093 -2.1043  1.4389  0.4687
  111OSM   H14C11427   0.005   5.368  10.937  0.4185 -0.6054  0.5438
  111OSM    C1311428   0.333   5.434  10.991 -0.4933  0.3908  0.1875
  111OSM   H13A11429   0.333   5.542  11.000 -2.1449  0.4233  0.0160
  111OSM   H13B11430   0.427   5.415  10.942 -0.2258 -1.8933  1.5274
  111OSM   H13C11431   0.342   5.394  11.091 -0.3283 -2.8437 -1.0578
  111OSM    C1211432   0.218   5.406  10.771  0.1527 -0.6637 -0.1239
  111OSM   H12A11433   0.136   5.353  10.724 -0.1905 -1.2801  1.1451
  111OSM   H12B11434   0.308   5.372  10.722 -0.1252  0.0678 -1.1320
  111OSM    C1111435   0.196   5.555  10.732 -0.4366 -0.1108 -0.4220
  111OSM   H11A11436   0.101   5.593  10.774 -0.1084  2.3223 -1.8419
  111OSM   H11B11437   0.177   5.558  10.623 -1.0702  0.0164 -0.3093
  111OSM      P11438   0.434   5.659  10.694 -0.2464 -0.3516  0.2919
  111OSM    O1311439   0.507   5.757  10.777  0.2119  0.5373 -0.8106
  111OSM    O1411440   0.507   5.529  10.671 -0.3448 -0.0392  0.0571
  111OSM    O1111441   0.383   5.737  10.566  0.3872  0.0690  0.1768
  111OSM    O1211442   0.301   5.636  10.777  0.1826 -0.3020 -0.0415
  111OSM    C1S11443   0.293   5.854  10.583 -0.4066  0.7516  0.7489
  111OSM    H1S11444   0.340   5.934  10.645  0.3182  2.5216 -2.0253
  111OSM    H1T11445   0.196   5.825  10.628  0.3999 -1.0235  1.3768
  111OSM     NF11446   0.218   6.049  10.452 -0.1319  0.5492  0.1824
  111OSM    HNF11447   0.123   6.073  10.473 -0.5140 -0.0968 -0.7615
  111OSM    C2S11448   0.254   5.909  10.443  0.4257  1.2537  0.2929
  111OSM    H2S11449   0.350   5.896  10.389 -0.3411 -0.3362 -0.7282
  111OSM    C3S11450   0.155   5.819  10.369  0.4201 -0.3873  0.1382
  111OSM    H3S11451   0.061   5.812  10.428  0.2957  0.7666  0.0747
  111OSM     O311452   0.206   5.683  10.368 -0.2064 -0.0778  0.0823
  111OSM    HO311453   0.277   5.680  10.432 -0.2327 -0.5307  0.0877
  111OSM    C4S11454   0.123   5.882  10.233 -0.2172  0.3036 -0.4064
  111OSM    H4S11455   0.032   5.943  10.244 -0.2648  0.4015 -1.2772
  111OSM    C5S11456   0.182   5.865  10.112  0.0436  0.3350 -0.3353
  111OSM    H5S11457   0.267   5.794  10.120 -0.1901  0.2494  1.5547
  111OSM    C6S11458   0.143   5.921   9.978 -0.6016  0.0342 -0.1219
  111OSM    H6S11459   0.064   5.859   9.932  0.5845 -0.2885 -1.7714
  111OSM    H6T11460   0.228   5.918   9.906 -2.3077 -2.2545 -2.0900
  111OSM    C7S11461   0.087   6.066   9.974 -0.0330  0.1706 -0.5563
  111OSM    H7S11462   0.159   6.138  10.020  0.1451 -1.1169  1.2602
  111OSM    H7T11463   0.000   6.058  10.043  0.9656  0.7479  0.8093
  111OSM    C8S11464   0.038   6.119   9.845  0.0806  0.1787 -0.0671
  111OSM    H8S11465  -0.028   6.209   9.856  2.2282  1.8755 -0.7207
  111OSM    H8T11466  -0.026   6.038   9.804 -0.9136  0.0719  1.6677
  111OSM    C9S11467   0.142   6.149   9.734 -0.3576 -0.0269  0.2519
  111OSM    H9S11468   0.203   6.063   9.698 -0.1845 -0.2745  1.1214
  111OSM    H9T11469   0.217   6.216   9.780 -0.4736  1.7213 -2.0224
  111OSM   C10S11470   0.085   6.208   9.607 -0.0113 -0.3032  0.3799
  111OSM   H10S11471   0.022   6.292   9.644  0.8571 -0.4398  2.2297
  111OSM   H10T11472   0.018   6.133   9.560 -0.6801 -0.6489  1.8523
  111OSM   C11S11473   0.199   6.242   9.515  0.2757 -0.1083 -0.7564
  111OSM   H11S11474   0.262   6.153   9.492  1.0625 -0.0037  0.9722
  111OSM   H11T11475   0.263   6.311   9.573  1.9152 -3.3444  1.4369
  111OSM   C12S11476   0.155   6.319   9.386  0.4382 -0.3210  0.5195
  111OSM   H12S11477   0.175   6.427   9.398 -2.8028  0.4114 -0.2020
  111OSM   H12T11478   0.051   6.292   9.358 -0.3505 -0.1488  3.1426
  111OSM   C13S11479   0.223   6.263   9.262  0.4561  0.0412 -0.1895
  111OSM   H13S11480   0.332   6.253   9.282  0.6152  0.3288 -0.8994
  111OSM   H13T11481   0.214   6.325   9.171  0.0563  0.7586  0.3398
  111OSM   C14S11482   0.152   6.136   9.217 -0.3260 -0.1407  0.1128
  111OSM   H14S11483   0.073   6.166   9.145 -1.3430 -1.0078  0.8559
  111OSM   H14T11484   0.102   6.090   9.305 -0.1136  3.3291  2.1249
  111OSM   C15S11485   0.242   6.044   9.134 -0.1225  0.1323 -0.3999
  111OSM   H15S11486   0.334   6.022   9.191 -1.9294 -0.7095  2.2552
  111OSM   H15T11487   0.287   6.099   9.048 -1.6449  0.6208 -0.8999
  111OSM   C16S11488   0.159   5.919   9.096  0.5405 -0.1795 -0.9315
  111OSM   H16S11489   0.075   5.937   9.026 -0.2682 -2.0938 -0.5024
  111OSM   H16T11490   0.105   5.888   9.188 -0.1221  1.4009 -0.7878
  111OSM   C17S11491   0.253   5.808   9.048  0.3209 -0.0049  0.8517
  111OSM   H17S11492   0.199   5.712   9.043  0.2764  0.0742 -0.2092
  111OSM   H17T11493   0.342   5.796   9.114  0.9750 -2.3174 -0.4049
  111OSM   C18S11494   0.304   5.847   8.913  0.0431 -0.2565 -0.0399
  111OSM   H18S11495   0.388   5.919   8.924  0.8662 -1.2232  0.1241
  111OSM   H18T11496   0.219   5.887   8.855 -0.0317 -1.6925 -0.9468
  111OSM   H18U11497   0.352   5.764   8.857 -2.3088 -0.9484 -1.0525
  111OSM    C1F11498   0.313   6.146  10.468  0.3581  0.4667  0.0159
  111OSM     OF11499   0.431   6.120  10.491  0.0527  0.3666  0.0953
  111OSM    C2F11500   0.260   6.288  10.465  0.4638  0.0672 -0.3119
  111OSM    H2F11501   0.254   6.320  10.571 -0.1753  1.4730 -0.7600
  111OSM    H2G11502   0.156   6.286  10.426  0.2178  0.9083  0.2998
  111OSM    C3F11503   0.343   6.391  10.386 -0.5178 -0.3461 -0.0664
  111OSM    H3F11504   0.452   6.389  10.406  0.0349 -0.4436 -2.8377
  111OSM    H3G11505   0.323   6.496  10.416  1.7624  0.5479 -1.5382
  111OSM    C4F11506   0.331   6.379  10.233 -0.1043 -0.5635  0.1841
  111OSM    H4F11507   0.229   6.406  10.199  0.8498  1.4025 -1.1829
  111OSM    H4G11508   0.357   6.279  10.192 -0.7445 -0.3225 -0.8134
  111OSM    C5F11509   0.419   6.486  10.165 -0.5238  0.0662  0.9576
  111OSM    H5F11510   0.523   6.471  10.199 -0.2237 -1.3464 -0.5346
  111OSM    H5G11511   0.386   6.585  10.203  2.1576  2.3906 -2.4673
  111OSM    C6F11512   0.418   6.495  10.008  0.4506 -0.5336  0.0269
  111OSM    H6F11513   0.317   6.528   9.973  0.7675 -0.1866 -0.5818
  111OSM    H6G11514   0.458   6.399   9.968  1.6104 -1.0553  2.3982
  111OSM    C7F11515   0.506   6.604   9.951  0.3316  0.2375 -0.2375
  111OSM    H7F11516   0.611   6.583   9.981  1.3022  1.6650 -2.4331
  111OSM    H7G11517   0.465   6.698   9.992 -1.7196  0.2567 -2.2037
  111OSM    C8F11518   0.511   6.627   9.799 -0.0132  0.5111 -0.3730
  111OSM    H8F11519   0.408   6.644   9.762 -1.0624 -1.0885  1.7341
  111OSM    H8G11520   0.536   6.533   9.745  2.0347 -0.4258  2.0724
  111OSM    C9F11521   0.607   6.728   9.746  0.0357 -0.7999  0.2725
  111OSM    H9F11522   0.664   6.781   9.824 -0.9078  2.3124 -1.0770
  111OSM   C10F11523   0.627   6.769   9.624 -0.2010 -0.2266 -0.4478
  111OSM   H10F11524   0.696   6.851   9.597 -1.1346  0.4656 -0.7445
  111OSM   C11F11525   0.543   6.709   9.509 -0.7192 -0.6343 -0.8263
  111OSM   H11F11526   0.442   6.753   9.522 -0.3117 -0.3009  1.3574
  111OSM   H11G11527   0.524   6.600   9.521  0.5848 -0.7330  0.4459
  111OSM   C12F11528   0.613   6.732   9.376 -0.2723  0.3737  0.1157
  111OSM   H12F11529   0.723   6.731   9.389 -0.5290 -1.2909  2.3145
  111OSM   H12G11530   0.582   6.838   9.357 -1.7569 -0.1165 -0.2542
  111OSM   C13F11531   0.567   6.650   9.257 -0.2951  0.5604 -0.3275
  111OSM   H13F11532   0.459   6.623   9.260 -0.4631  1.0185 -2.0797
  111OSM   H13G11533   0.626   6.555   9.255  0.5508  1.0530  0.8833
  111OSM   C14F11534   0.596   6.713   9.118  0.1139  0.3017 -0.5131
  111OSM   H14F11535   0.515   6.779   9.080  0.6949  0.8977 -0.7266
  111OSM   H14G11536   0.594   6.627   9.047 -0.7009 -0.0494 -0.0740
  111OSM   C15F11537   0.716   6.807   9.117 -0.2751 -0.1660 -0.1675
  111OSM   H15F11538   0.795   6.771   9.187 -0.6403  0.2982  0.4880
  111OSM   H15G11539   0.686   6.910   9.147  2.0005  0.4812  0.0222
  111OSM   C16F11540   0.774   6.806   8.978  0.3056 -0.4217 -0.0378
  111OSM   H16F11541   0.703   6.829   8.895 -0.3999  0.3669  0.7763
  111OSM   H16G11542   0.811   6.703   8.963  0.3850 -0.8765  3.0263
  111OSM   C17F11543   0.880   6.912   8.957  0.1183  0.5094  0.3350
  111OSM   H17F11544   0.960   6.897   9.032  0.1285  0.5361  0.3306
  111OSM   H17G11545   0.846   7.011   8.993 -0.2456  0.1367  1.0283
  111OSM   C18F11546   0.938   6.926   8.816  0.1280 -0.2891  0.4230
  111OSM   H18F11547   0.870   6.913   8.728 -0.1594  2.8625  0.0867
  111OSM   H18G11548   1.004   6.838   8.801 -0.3406 -0.6295  0.3568
  111OSM   H18H11549   0.986   7.025   8.799 -2.6607  0.7282 -2.2357
  112OSM      N11550   6.397   3.872  10.964  0.2270  0.5044 -0.4367
  112OSM    C1511551   6.498   3.982  10.980 -0.4086 -0.0360  0.1431
  112OSM   H15A11552   6.586   3.944  11.029 -0.3914 -0.2564 -0.0625
  112OSM   H15B11553   6.464   4.072  11.028 -0.2169  0.4549 -0.6330
  112OSM   H15C11554   6.537   4.023  10.889  2.1811 -1.3893  0.6040
  112OSM    C1411555   6.404   3.775  11.080 -0.3643 -0.0648  0.6323
  112OSM   H14A11556   6.501   3.731  11.097 -1.3247 -2.5481 -0.0340
  112OSM   H14B11557   6.331   3.699  11.058 -0.7013  1.2502 -3.3174
  112OSM   H14C11558   6.357   3.822  11.165 -0.2364  0.1582  0.5811
  112OSM    C1311559   6.262   3.927  10.953  0.1428  0.0938  0.3832
  112OSM   H13A11560   6.202   3.853  10.901  0.2577 -1.1597  1.9952
  112OSM   H13B11561   6.261   4.014  10.889  0.5352 -0.8298 -0.9147
  112OSM   H13C11562   6.214   3.941  11.048  0.6058  0.9945  0.4940
  112OSM    C1211563   6.437   3.793  10.826 -0.5050  0.7421  0.2820
  112OSM   H12A11564   6.526   3.740  10.857 -2.3316 -2.6566  0.0404
  112OSM   H12B11565   6.461   3.862  10.747 -1.0243  1.0436  0.3847
  112OSM    C1111566   6.338   3.686  10.770 -0.7959  0.0282 -0.9534
  112OSM   H11A11567   6.354   3.659  10.663  2.1644 -0.6531 -0.3907
  112OSM   H11B11568   6.235   3.726  10.778 -0.0507  1.6536  0.6932
  112OSM      P11569   6.467   3.463  10.836 -0.2073  0.2978  0.2382
  112OSM    O1311570   6.601   3.516  10.848  0.2772 -0.2047  0.0652
  112OSM    O1411571   6.437   3.354  10.927 -0.2915  0.4635  0.0903
  112OSM    O1111572   6.447   3.420  10.689  0.0329  0.2677 -0.1372
  112OSM    O1211573   6.354   3.575  10.855  0.1409 -0.3096 -0.0375
  112OSM    C1S11574   6.327   3.375  10.630 -0.1593 -0.0458 -0.9022
  112OSM    H1S11575   6.247   3.449  10.649 -0.6233  0.0593 -3.0984
  112OSM    H1T11576   6.303   3.272  10.663  0.1996  0.3411  0.5786
  112OSM     NF11577   6.215   3.329  10.419  0.2989 -0.7323  0.1232
  112OSM    HNF11578   6.218   3.236  10.382 -1.5565 -1.3381  1.4535
  112OSM    C2S11579   6.341   3.375  10.470 -0.2569 -0.4795 -0.4251
  112OSM    H2S11580   6.368   3.472  10.425 -2.0155 -0.6802 -1.9807
  112OSM    C3S11581   6.471   3.282  10.431  0.1172 -0.4107 -0.0752
  112OSM    H3S11582   6.469   3.185  10.485  0.2406 -0.5425 -0.3081
  112OSM     O311583   6.592   3.351  10.469  0.1248  0.2997 -0.2450
  112OSM    HO311584   6.558   3.394  10.548  4.4133  1.0011  1.3295
  112OSM    C4S11585   6.473   3.269  10.282 -0.4012  0.2131  0.3028
  112OSM    H4S11586   6.507   3.355  10.222 -4.1806  1.5103 -0.1614
  112OSM    C5S11587   6.434   3.157  10.214 -0.4032 -0.1170 -0.1299
  112OSM    H5S11588   6.403   3.077  10.282  0.6806 -2.5920 -2.4838
  112OSM    C6S11589   6.436   3.127  10.067  0.2945 -0.1741 -0.1491
  112OSM    H6S11590   6.341   3.077  10.037  0.2531 -0.0349 -0.2498
  112OSM    H6T11591   6.515   3.054  10.041  1.1575  1.2911 -1.7227
  112OSM    C7S11592   6.451   3.251   9.977 -0.1650  0.5482 -0.3160
  112OSM    H7S11593   6.556   3.284   9.994  0.0139  0.8983 -1.9354
  112OSM    H7T11594   6.385   3.332  10.013 -1.3693 -0.6654  0.2250
  112OSM    C8S11595   6.437   3.228   9.831 -0.4500 -0.2823 -0.3748
  112OSM    H8S11596   6.330   3.199   9.818 -1.4697  1.7772  2.7059
  112OSM    H8T11597   6.503   3.142   9.807  0.6654  0.0897  1.2658
  112OSM    C9S11598   6.474   3.346   9.746  0.6959 -0.3739 -0.2129
  112OSM    H9S11599   6.583   3.354   9.728  0.3407  2.5897 -1.4386
  112OSM    H9T11600   6.429   3.437   9.793 -0.1024 -0.4190 -0.8794
  112OSM   C10S11601   6.415   3.342   9.603 -0.4272 -0.3715 -0.2628
  112OSM   H10S11602   6.442   3.439   9.556  1.3697 -0.0930  1.2973
  112OSM   H10T11603   6.304   3.348   9.605 -0.3589  1.0951 -0.2566
  112OSM   C11S11604   6.464   3.224   9.515  1.2054  0.3405  0.1929
  112OSM   H11S11605   6.466   3.127   9.570 -0.8836 -1.6113 -3.0509
  112OSM   H11T11606   6.571   3.229   9.486  0.7335 -1.2158 -1.8552
  112OSM   C12S11607   6.385   3.188   9.383  0.0004 -0.1976  0.0701
  112OSM   H12S11608   6.278   3.179   9.410  0.2268  0.9610  1.4237
  112OSM   H12T11609   6.417   3.092   9.339  1.1940 -1.0870  2.8096
  112OSM   C13S11610   6.412   3.292   9.274 -0.8655 -0.0286  0.1095
  112OSM   H13S11611   6.523   3.296   9.268 -0.7955 -1.2572  0.5011
  112OSM   H13T11612   6.376   3.389   9.315 -0.9676  0.0393 -0.1378
  112OSM   C14S11613   6.351   3.255   9.141 -0.2766 -0.1945  0.6226
  112OSM   H14S11614   6.243   3.232   9.152 -0.5438  1.1075  0.8303
  112OSM   H14T11615   6.404   3.172   9.090  0.4149 -0.2974  1.5081
  112OSM   C15S11616   6.348   3.375   9.041  0.8484  0.0619 -0.4579
  112OSM   H15S11617   6.453   3.397   9.011  0.5907 -0.5997 -1.9107
  112OSM   H15T11618   6.306   3.461   9.097  1.1508 -0.6279  0.8443
  112OSM   C16S11619   6.256   3.344   8.929  0.2443  0.5188  0.0880
  112OSM   H16S11620   6.160   3.298   8.961  1.6292 -1.4168  1.6516
  112OSM   H16T11621   6.301   3.262   8.869  0.3630 -0.1115  1.0333
  112OSM   C17S11622   6.226   3.468   8.846  0.2149 -0.0337 -0.1460
  112OSM   H17S11623   6.315   3.498   8.786  0.7154  0.0930  0.6635
  112OSM   H17T11624   6.226   3.553   8.917 -0.4669  0.9667 -1.3139
  112OSM   C18S11625   6.113   3.461   8.748  0.1121 -0.3041 -0.1220
  112OSM   H18S11626   6.098   3.553   8.687 -2.3355 -0.9508 -0.5674
  112OSM   H18T11627   6.022   3.423   8.798 -1.6029  0.3223 -2.6492
  112OSM   H18U11628   6.140   3.373   8.686  0.3369 -0.2729 -0.0691
  112OSM    C1F11629   6.099   3.394  10.418  0.4158  0.2838 -0.5330
  112OSM     OF11630   6.100   3.511  10.438 -0.4576  0.2518 -0.2193
  112OSM    C2F11631   5.978   3.310  10.380 -0.6241 -0.3375 -0.5112
  112OSM    H2F11632   5.944   3.281  10.481 -0.6171  0.1279 -0.3719
  112OSM    H2G11633   5.998   3.215  10.327  0.0643 -1.4350  1.6314
  112OSM    C3F11634   5.869   3.406  10.316  0.5370 -0.4317  0.0564
  112OSM    H3F11635   5.844   3.484  10.391 -0.5615 -1.0768  0.3700
  112OSM    H3G11636   5.775   3.349  10.300  0.1756  0.3959 -0.7967
  112OSM    C4F11637   5.901   3.471  10.186 -0.5047  0.3680  0.1561
  112OSM    H4F11638   5.963   3.562  10.198 -0.0859  0.2643 -1.1151
  112OSM    H4G11639   5.809   3.502  10.131  0.0822  2.6073  0.3773
  112OSM    C5F11640   5.980   3.387  10.082 -0.2628 -0.0320 -0.4872
  112OSM    H5F11641   5.930   3.288  10.075  0.5010 -0.3181 -2.2206
  112OSM    H5G11642   6.081   3.360  10.120  0.3630  2.1851 -0.5101
  112OSM    C6F11643   5.991   3.461   9.944  0.3282  0.1853  0.1165
  112OSM    H6F11644   6.051   3.555   9.946  0.4091  0.2374 -2.4595
  112OSM    H6G11645   5.890   3.487   9.906  0.2796  2.3634  1.6210
  112OSM    C7F11646   6.058   3.358   9.842 -0.1070  0.6098 -0.0698
  112OSM    H7F11647   6.033   3.256   9.878  0.9654  0.5284  0.4623
  112OSM    H7G11648   6.168   3.370   9.851  0.0194  1.1486 -2.1415
  112OSM    C8F11649   6.016   3.377   9.692  0.1986 -0.0774  0.2125
  112OSM    H8F11650   5.917   3.332   9.670 -0.0916 -0.1111  1.5353
  112OSM    H8G11651   6.087   3.323   9.625  2.3774  0.3726  2.1024
  112OSM    C9F11652   6.014   3.519   9.636 -0.7036  0.0105  0.1102
  112OSM    H9F11653   5.994   3.590   9.717 -0.1205  1.0865 -0.6834
  112OSM   C10F11654   6.065   3.563   9.519 -0.9358  0.1432  0.4645
  112OSM   H10F11655   6.068   3.672   9.507 -3.6249  0.1609 -0.5997
  112OSM   C11F11656   6.116   3.485   9.402  0.3305  0.4807 -0.2411
  112OSM   H11F11657   6.221   3.453   9.417  0.5571  0.8354 -1.0634
  112OSM   H11G11658   6.130   3.551   9.314  2.8944  0.9641  0.4912
  112OSM   C12F11659   6.027   3.364   9.358 -0.0641 -0.1877 -0.2223
  112OSM   H12F11660   6.024   3.293   9.443 -0.1232  1.3479  1.0792
  112OSM   H12G11661   6.090   3.309   9.284  0.2405 -0.8754  0.5467
  112OSM   C13F11662   5.892   3.400   9.287 -0.3553 -0.4232  0.1149
  112OSM   H13F11663   5.824   3.452   9.358 -0.7605  0.1768 -0.6968
  112OSM   H13G11664   5.838   3.313   9.245 -1.8119  0.3756  0.2837
  112OSM   C14F11665   5.917   3.490   9.166  0.4501  0.1227 -0.3508
  112OSM   H14F11666   6.013   3.459   9.119 -0.3765 -0.8923 -1.4048
  112OSM   H14G11667   5.936   3.593   9.204  1.6586 -0.9177  2.0180
  112OSM   C15F11668   5.816   3.489   9.051 -0.0198  0.0897 -0.5618
  112OSM   H15F11669   5.812   3.390   9.001 -1.1612  0.2192 -0.7279
  112OSM   H15G11670   5.871   3.550   8.976 -0.6964 -1.6503 -2.5266
  112OSM   C16F11671   5.679   3.548   9.077 -0.0611 -0.0165  0.3876
  112OSM   H16F11672   5.685   3.653   9.113 -1.2053 -0.1328  0.9428
  112OSM   H16G11673   5.636   3.493   9.164  0.0277 -1.0786 -0.2393
  112OSM   C17F11674   5.578   3.540   8.957  0.4893  0.5724 -0.1763
  112OSM   H17F11675   5.583   3.442   8.906 -2.7020  0.1003  0.3226
  112OSM   H17G11676   5.605   3.607   8.873 -0.6065 -0.0546 -1.0306
  112OSM   C18F11677   5.436   3.560   9.017  0.6169 -0.2197 -0.1242
  112OSM   H18F11678   5.436   3.641   9.094  1.6178 -0.5806  0.2684
  112OSM   H18G11679   5.406   3.483   9.091 -1.2980 -1.3467 -2.0175
  112OSM   H18H11680   5.359   3.581   8.940 -0.1777 -1.4367  0.3232
  113OSM      N11681   6.020   2.932  11.213  0.3907 -0.3479  0.3463
  113OSM    C1511682   6.155   2.985  11.161 -0.4249 -0.0538  0.7623
  113OSM   H15A11683   6.152   3.054  11.079 -2.7146  0.2152  1.0358
  113OSM   H15B11684   6.207   2.899  11.121  0.1251  0.5660  0.1436
  113OSM   H15C11685   6.214   3.033  11.237 -0.3396 -1.1188  1.3890
  113OSM    C1411686   6.045   2.901  11.357  0.0053 -0.1093 -0.2639
  113OSM   H14A11687   6.122   2.826  11.369  0.3063 -0.1569 -2.4142
  113OSM   H14B11688   5.953   2.872  11.406 -0.4106 -1.4678 -1.8381
  113OSM   H14C11689   6.075   2.992  11.407 -0.7511  0.8308 -1.4938
  113OSM    C1311690   5.925   3.049  11.204  0.7831 -0.0612  0.2913
  113OSM   H13A11691   5.883   3.060  11.105  2.6239  3.3394 -0.2159
  113OSM   H13B11692   5.973   3.134  11.252 -0.3622 -0.3837  2.0416
  113OSM   H13C11693   5.844   3.036  11.274 -0.3259 -0.0184 -0.9495
  113OSM    C1211694   5.966   2.806  11.141  0.3866  0.1414 -0.2602
  113OSM   H12A11695   5.882   2.763  11.194  0.5050  2.3381  1.8428
  113OSM   H12B11696   6.040   2.729  11.149  0.2266 -0.0628 -0.7370
  113OSM    C1111697   5.919   2.813  11.000 -0.0018 -0.2260  0.0632
  113OSM   H11A11698   5.871   2.913  10.990  2.5830  1.4054  3.0265
  113OSM   H11B11699   5.828   2.760  10.964 -1.4952  3.5842 -2.1332
  113OSM      P11700   6.143   2.712  10.912  0.2095  0.5469 -0.0837
  113OSM    O1311701   6.236   2.754  11.022 -0.4536 -1.2986  0.7478
  113OSM    O1411702   6.084   2.574  10.923 -0.4651  0.0406  0.3900
  113OSM    O1111703   6.207   2.738  10.775 -0.0142  0.1156  0.3789
  113OSM    O1211704   6.027   2.818  10.909 -0.0068  0.5060  0.4892
  113OSM    C1S11705   6.336   2.684  10.750 -1.1018  0.0516  0.4186
  113OSM    H1S11706   6.352   2.590  10.807  0.9234  0.2784  0.2468
  113OSM    H1T11707   6.422   2.749  10.777  0.4681 -1.4163 -1.0047
  113OSM     NF11708   6.465   2.558  10.579 -0.4375  0.2254  0.0435
  113OSM    HNF11709   6.550   2.581  10.532 -0.3009 -0.5515 -0.0937
  113OSM    C2S11710   6.362   2.657  10.593 -0.3946  0.7564  0.4527
  113OSM    H2S11711   6.270   2.620  10.543 -0.2836  2.1194 -0.8031
  113OSM    C3S11712   6.405   2.796  10.530 -0.0201  0.0679  0.2375
  113OSM    H3S11713   6.501   2.827  10.577 -0.8862  0.1727  1.9385
  113OSM     O311714   6.318   2.904  10.553  0.0826 -0.1317  0.1034
  113OSM    HO311715   6.255   2.872  10.618 -0.5210  1.6110  0.4206
  113OSM    C4S11716   6.443   2.775  10.382 -0.1964 -0.1673 -0.3686
  113OSM    H4S11717   6.548   2.746  10.363 -0.3229  0.1356 -1.5935
  113OSM    C5S11718   6.362   2.773  10.278 -0.4323  0.3837 -0.0503
  113OSM    H5S11719   6.258   2.808  10.277 -0.5678 -0.0043 -1.4560
  113OSM    C6S11720   6.396   2.751  10.133 -0.9750 -0.2654  0.0619
  113OSM    H6S11721   6.386   2.846  10.076  1.1255 -0.3680 -0.5475
  113OSM    H6T11722   6.312   2.687  10.098 -1.3467 -0.1645  0.7613
  113OSM    C7S11723   6.536   2.678  10.105  0.0441  0.1316  0.0191
  113OSM    H7S11724   6.531   2.578  10.153 -1.0957  0.7298  1.1884
  113OSM    H7T11725   6.630   2.724  10.143  1.5452 -1.2842 -1.9251
  113OSM    C8S11726   6.558   2.651   9.955  0.1688  0.3014 -0.6183
  113OSM    H8S11727   6.459   2.618   9.917 -1.0400  0.9773  1.8240
  113OSM    H8T11728   6.638   2.575   9.945  1.0465  1.0834  0.3004
  113OSM    C9S11729   6.583   2.777   9.879 -0.1719 -0.2154 -0.1230
  113OSM    H9S11730   6.668   2.823   9.934  0.3509  0.5881 -1.5841
  113OSM    H9T11731   6.496   2.846   9.895  0.2835  0.7471 -1.7177
  113OSM   C10S11732   6.610   2.758   9.731  0.2809 -0.2068 -0.4871
  113OSM   H10S11733   6.701   2.698   9.710  0.9539  1.0068 -1.0791
  113OSM   H10T11734   6.647   2.857   9.698 -0.9677  1.3330  2.6127
  113OSM   C11S11735   6.486   2.730   9.650  0.7034  0.6218 -0.2254
  113OSM   H11S11736   6.401   2.798   9.669 -0.1460 -0.6697  0.7530
  113OSM   H11T11737   6.449   2.628   9.676 -0.7289  0.8388 -1.3858
  113OSM   C12S11738   6.517   2.724   9.497 -1.2555  0.0033  0.9154
  113OSM   H12S11739   6.593   2.644   9.488 -1.8510 -0.2361 -3.1112
  113OSM   H12T11740   6.559   2.821   9.462 -1.7872 -0.5675 -1.3815
  113OSM   C13S11741   6.394   2.694   9.405  0.2613 -0.4653  0.2449
  113OSM   H13S11742   6.311   2.766   9.419  0.8158  0.2364 -0.0632
  113OSM   H13T11743   6.361   2.591   9.434 -0.2651 -0.0832  1.0177
  113OSM   C14S11744   6.434   2.686   9.264 -0.2331  0.2035 -0.1053
  113OSM   H14S11745   6.355   2.628   9.210 -1.6908  0.0067  2.1799
  113OSM   H14T11746   6.528   2.629   9.247 -0.1239  0.3171  0.1243
  113OSM   C15S11747   6.434   2.824   9.186  0.7059 -0.3116 -0.4167
  113OSM   H15S11748   6.502   2.886   9.248 -1.5315  1.0960  0.7085
  113OSM   H15T11749   6.332   2.865   9.203  2.0029  1.9009  2.5638
  113OSM   C16S11750   6.480   2.815   9.037 -0.0398 -0.3003  0.3838
  113OSM   H16S11751   6.584   2.777   9.034 -0.6790 -1.9987 -0.8290
  113OSM   H16T11752   6.468   2.910   8.981 -1.1354 -0.1058  0.9431
  113OSM   C17S11753   6.397   2.716   8.951 -0.0503 -0.1655  0.4800
  113OSM   H17S11754   6.419   2.613   8.987 -3.7460 -1.5911 -1.1393
  113OSM   H17T11755   6.445   2.724   8.851  0.1453 -2.8955  0.3180
  113OSM   C18S11756   6.246   2.742   8.933 -0.2707  0.6163 -0.0853
  113OSM   H18S11757   6.211   2.743   9.039 -0.9828  0.3701 -0.3157
  113OSM   H18T11758   6.187   2.663   8.882  1.6987 -1.1638  0.3334
  113OSM   H18U11759   6.231   2.841   8.884  0.9952  1.4905  1.2435
  113OSM    C1F11760   6.451   2.431  10.612 -0.1081 -0.3740  0.2777
  113OSM     OF11761   6.385   2.393  10.702  0.5703  0.3476 -0.0828
  113OSM    C2F11762   6.514   2.329  10.523 -0.1400  0.6524  0.2342
  113OSM    H2F11763   6.454   2.237  10.539  1.5247 -0.8817 -2.1241
  113OSM    H2G11764   6.616   2.304  10.558 -0.0548 -1.1618 -1.2770
  113OSM    C3F11765   6.524   2.359  10.373 -0.5377 -0.7266  0.8050
  113OSM    H3F11766   6.561   2.461  10.352 -0.2849 -1.4526 -2.5657
  113OSM    H3G11767   6.417   2.348  10.344 -0.5221  0.4979  0.2416
  113OSM    C4F11768   6.616   2.265  10.298 -0.5939 -0.4497 -0.2251
  113OSM    H4F11769   6.587   2.159  10.312  0.7468 -0.6618  1.0493
  113OSM    H4G11770   6.718   2.262  10.341 -1.1720  1.6737  1.3789
  113OSM    C5F11771   6.632   2.305  10.155 -0.0775 -0.2162  0.2461
  113OSM    H5F11772   6.690   2.399  10.164 -0.4018  0.1802 -1.6218
  113OSM    H5G11773   6.527   2.326  10.124 -0.0234  1.2794  1.0094
  113OSM    C6F11774   6.699   2.193  10.071 -0.4729  0.7621 -0.3704
  113OSM    H6F11775   6.681   2.228   9.967 -0.9284 -0.8168 -0.8313
  113OSM    H6G11776   6.643   2.098  10.086 -0.4092  0.4280 -2.1139
  113OSM    C7F11777   6.850   2.180  10.087  0.4252  0.1918  0.0903
  113OSM    H7F11778   6.880   2.157  10.192 -0.3986  1.2420  0.5698
  113OSM    H7G11779   6.904   2.272  10.054  0.2076 -0.2944 -1.6415
  113OSM    C8F11780   6.929   2.069  10.005  0.1076 -0.8129 -0.4096
  113OSM    H8F11781   6.866   1.978  10.013  1.9197 -2.0755 -0.2619
  113OSM    H8G11782   7.026   2.052  10.055  0.4619  0.8390 -0.5100
  113OSM    C9F11783   6.932   2.108   9.859 -0.0318  0.7708 -0.1568
  113OSM    H9F11784   6.875   2.201   9.842  0.0983  0.9907  0.5992
  113OSM   C10F11785   7.004   2.044   9.759  0.0204 -0.9098 -0.0743
  113OSM   H10F11786   6.998   2.088   9.659 -1.2171  1.0351  0.8128
  113OSM   C11F11787   7.087   1.917   9.792 -0.1411 -0.2627 -0.8539
  113OSM   H11F11788   7.098   1.900   9.901 -0.2231 -0.9915 -0.9562
  113OSM   H11G11789   7.194   1.941   9.771 -0.2154  2.5861  1.6185
  113OSM   C12F11790   7.022   1.798   9.720  0.2273  0.5848  0.0317
  113OSM   H12F11791   6.913   1.803   9.741  0.2046 -2.5491  0.9425
  113OSM   H12G11792   7.046   1.700   9.767  2.1388  1.7848  1.6514
  113OSM   C13F11793   7.034   1.777   9.567 -0.0054  0.1726 -0.4643
  113OSM   H13F11794   6.975   1.685   9.546 -2.0960  1.4187 -0.1884
  113OSM   H13G11795   7.143   1.772   9.547  0.2360  2.4169  0.0977
  113OSM   C14F11796   6.971   1.885   9.481  0.6865  0.1335 -0.0916
  113OSM   H14F11797   7.025   1.982   9.487 -0.9494  1.2624 -2.7443
  113OSM   H14G11798   6.870   1.900   9.524  0.2667 -1.3840 -0.5204
  113OSM   C15F11799   6.967   1.856   9.332 -0.3645 -0.2776 -0.5005
  113OSM   H15F11800   6.931   1.951   9.287  0.2952  1.9536  3.4348
  113OSM   H15G11801   6.894   1.775   9.313 -2.2992  1.1874  0.4588
  113OSM   C16F11802   7.102   1.834   9.269 -0.4354 -0.1355  0.6966
  113OSM   H16F11803   7.163   1.752   9.313  1.1657 -1.2161 -3.2694
  113OSM   H16G11804   7.159   1.928   9.285  1.8693 -1.5006  0.7913
  113OSM   C17F11805   7.099   1.795   9.114 -0.4381  0.4236  0.6200
  113OSM   H17F11806   7.024   1.714   9.104 -1.8696  1.7379  0.4881
  113OSM   H17G11807   7.201   1.768   9.078  0.1273  0.9356  1.7981
  113OSM   C18F11808   7.063   1.921   9.039  0.1967 -0.0881  0.4200
  113OSM   H18F11809   7.074   1.886   8.934  1.4487 -0.6223  0.7251
  113OSM   H18G11810   7.147   1.992   9.055 -0.7117  1.0547  0.2212
  113OSM   H18H11811   6.962   1.964   9.057 -0.1431 -1.1530  1.0434
  114OSM      N11812   0.357   0.773  11.298 -0.7173 -0.4175  0.8627
  114OSM    C1511813   0.292   0.715  11.172  0.0114 -1.0991  0.2231
  114OSM   H15A11814   0.350   0.746  11.086  0.5146  0.1114  0.9932
  114OSM   H15B11815   0.191   0.753  11.163  0.2131 -0.3862  0.9289
  114OSM   H15C11816   0.285   0.607  11.168  0.0279 -1.1613  1.6324
  114OSM    C1411817   0.281   0.719  11.420  0.7889  0.4782  0.3789
  114OSM   H14A11818   0.297   0.614  11.442 -1.4789 -0.4069 -1.8890
  114OSM   H14B11819   0.174   0.724  11.401  0.5141  0.6586  1.9197
  114OSM   H14C11820   0.312   0.772  11.508  0.2457  0.9654  0.2840
  114OSM    C1311821   0.504   0.717  11.304 -0.9551 -0.5380 -0.2737
  114OSM   H13A11822   0.549   0.752  11.396  1.1027  0.4947 -1.6359
  114OSM   H13B11823   0.558   0.759  11.221  2.0555  0.8766  2.2975
  114OSM   H13C11824   0.510   0.609  11.304  0.1781 -0.4729 -1.3498
  114OSM    C1211825   0.351   0.929  11.300 -0.9216  0.4308 -0.0790
  114OSM   H12A11826   0.251   0.951  11.266 -0.0632  0.5361 -2.6718
  114OSM   H12B11827   0.412   0.976  11.225 -0.3070  1.8289  1.2892
  114OSM    C1111828   0.371   1.016  11.427 -0.1380 -0.2530 -0.2724
  114OSM   H11A11829   0.291   0.982  11.496 -3.2259  0.7302 -3.1739
  114OSM   H11B11830   0.349   1.122  11.401 -0.6326  0.0222  1.2263
  114OSM      P11831   0.623   1.092  11.438  0.3375 -0.1696 -0.1892
  114OSM    O1311832   0.620   1.224  11.493  0.1180  0.5194  0.1996
  114OSM    O1411833   0.747   1.016  11.454  0.0870  0.4311 -0.8249
  114OSM    O1111834   0.596   1.114  11.284 -0.3204 -0.7850  0.1345
  114OSM    O1211835   0.494   1.011  11.490  0.4869 -0.9880 -0.5870
  114OSM    C1S11836   0.610   1.245  11.226 -0.0482 -0.2600 -0.2304
  114OSM    H1S11837   0.702   1.290  11.268 -0.0778  1.4545 -1.9791
  114OSM    H1T11838   0.522   1.306  11.254  1.7513  0.7993  3.4322
  114OSM     NF11839   0.629   1.382  11.028  0.3916  0.5092  0.2081
  114OSM    HNF11840   0.549   1.425  10.987  1.0872  2.2362  0.6224
  114OSM    C2S11841   0.612   1.248  11.075 -0.7457 -0.1010 -0.2511
  114OSM    H2S11842   0.708   1.192  11.062 -0.4749 -0.0146  1.2159
  114OSM    C3S11843   0.496   1.160  11.010  0.0754  0.4257 -0.3869
  114OSM    H3S11844   0.399   1.208  11.033 -1.4859 -0.3910 -4.8765
  114OSM     O311845   0.487   1.023  11.051  0.1855  0.5791  0.2127
  114OSM    HO311846   0.544   1.017  11.128 -1.1076 -0.7946  1.0821
  114OSM    C4S11847   0.518   1.147  10.858 -0.5548 -0.2369 -0.3534
  114OSM    H4S11848   0.617   1.105  10.837 -1.3737 -2.0481 -0.6350
  114OSM    C5S11849   0.439   1.212  10.770  0.1270 -0.2008 -1.0034
  114OSM    H5S11850   0.362   1.281  10.808  0.1821 -1.0958  0.8019
  114OSM    C6S11851   0.445   1.216  10.624  0.4443 -0.8738 -0.1944
  114OSM    H6S11852   0.438   1.317  10.581  0.4766 -0.7740  0.0317
  114OSM    H6T11853   0.355   1.177  10.572  0.2437  0.5421 -0.9092
  114OSM    C7S11854   0.567   1.145  10.559  0.9215 -0.3282  0.1966
  114OSM    H7S11855   0.549   1.037  10.577 -1.6401  0.3842  2.1570
  114OSM    H7T11856   0.659   1.186  10.607  0.7783 -1.2773  1.2883
  114OSM    C8S11857   0.565   1.170  10.403 -0.5832 -0.0919  0.1146
  114OSM    H8S11858   0.573   1.280  10.409  0.3651 -0.1307 -0.2755
  114OSM    H8T11859   0.475   1.143  10.345  0.0403 -0.4531 -0.6966
  114OSM    C9S11860   0.689   1.112  10.337  0.0491 -0.2423  0.3674
  114OSM    H9S11861   0.668   1.006  10.310  2.8078 -0.3557 -1.5930
  114OSM    H9T11862   0.775   1.113  10.407 -0.4466 -1.7334  1.0143
  114OSM   C10S11863   0.729   1.178  10.206  0.1210 -0.0847 -0.3204
  114OSM   H10S11864   0.735   1.287  10.226  0.7906 -0.5585  2.2698
  114OSM   H10T11865   0.650   1.166  10.129 -0.6140  2.4545 -0.0017
  114OSM   C11S11866   0.863   1.130  10.136 -0.2309 -0.5656 -0.4011
  114OSM   H11S11867   0.876   1.025  10.102  0.0115  0.0769 -2.3724
  114OSM   H11T11868   0.954   1.155  10.193 -1.3419 -1.0870  1.6428
  114OSM   C12S11869   0.883   1.186   9.992 -0.5023 -0.1800 -0.4087
  114OSM   H12S11870   0.874   1.297   9.986  0.4005 -0.1467 -1.1803
  114OSM   H12T11871   0.809   1.149   9.918  0.9705 -0.2309 -1.8683
  114OSM   C13S11872   1.016   1.129   9.932 -0.6546  0.0363  0.4707
  114OSM   H13S11873   1.003   1.123   9.822  0.7904  0.3648  0.2784
  114OSM   H13T11874   1.030   1.028   9.974  1.4471  0.3863  0.6553
  114OSM   C14S11875   1.130   1.217   9.953  0.1606 -0.2979  0.2313
  114OSM   H14S11876   1.107   1.288  10.035  0.0177  0.7628 -0.7112
  114OSM   H14T11877   1.157   1.278   9.864 -1.5680 -1.1464 -0.9075
  114OSM   C15S11878   1.257   1.127   9.979  0.1344  0.5942  0.2220
  114OSM   H15S11879   1.338   1.201   9.987  0.8210 -0.1290  0.0293
  114OSM   H15T11880   1.276   1.072   9.884 -0.4525  1.2627 -0.2829
  114OSM   C16S11881   1.263   1.028  10.096 -0.4100 -0.1079  0.2587
  114OSM   H16S11882   1.230   0.934  10.047  0.2714 -0.3426  0.2494
  114OSM   H16T11883   1.197   1.063  10.178  0.8113  1.9187  0.4045
  114OSM   C17S11884   1.399   1.009  10.155  0.0910 -0.6513  0.3151
  114OSM   H17S11885   1.442   1.097  10.206 -0.9498 -1.3977  2.5468
  114OSM   H17T11886   1.470   0.988  10.072  0.6630 -2.4857  1.2380
  114OSM   C18S11887   1.403   0.889  10.246 -0.3214 -0.0257  0.1655
  114OSM   H18S11888   1.331   0.809  10.220 -1.5560  0.1127  3.0068
  114OSM   H18T11889   1.374   0.930  10.344 -1.4217 -1.3861  0.4225
  114OSM   H18U11890   1.499   0.837  10.264  0.8483  0.9760 -2.7676
  114OSM    C1F11891   0.747   1.445  11.042  0.2753 -0.0365  0.4208
  114OSM     OF11892   0.844   1.398  11.104 -0.5258 -0.9794 -0.4399
  114OSM    C2F11893   0.744   1.583  10.994  0.4517  0.0404 -0.5346
  114OSM    H2F11894   0.745   1.649  11.083  1.1656  0.1009 -0.5799
  114OSM    H2G11895   0.650   1.596  10.936 -0.5072 -0.5757  0.8535
  114OSM    C3F11896   0.868   1.617  10.904 -0.7801  0.8762 -0.2499
  114OSM    H3F11897   0.952   1.595  10.973 -1.4846  1.9213  0.9665
  114OSM    H3G11898   0.855   1.723  10.872  1.3607  0.8719 -1.1892
  114OSM    C4F11899   0.887   1.523  10.777 -0.0259  0.5207 -0.0927
  114OSM    H4F11900   0.927   1.426  10.814  2.9722  1.1681 -1.5183
  114OSM    H4G11901   0.969   1.564  10.715 -0.3121  0.8136 -0.2809
  114OSM    C5F11902   0.761   1.520  10.685 -0.2601  0.1134 -0.8316
  114OSM    H5F11903   0.667   1.490  10.738  1.0755 -1.4884  0.6923
  114OSM    H5G11904   0.789   1.452  10.603 -0.9046  1.2812 -2.0368
  114OSM    C6F11905   0.718   1.650  10.617  0.2334  0.5086 -0.3110
  114OSM    H6F11906   0.789   1.655  10.531  1.0386 -0.8565  0.2614
  114OSM    H6G11907   0.717   1.738  10.685 -0.7119  0.9378 -0.8772
  114OSM    C7F11908   0.582   1.630  10.543  0.4230  0.3983 -0.4851
  114OSM    H7F11909   0.496   1.624  10.613  0.0935 -0.0166 -0.9176
  114OSM    H7G11910   0.600   1.536  10.486 -0.0323 -0.4217  0.7126
  114OSM    C8F11911   0.545   1.752  10.453  0.0328  0.6835 -0.1635
  114OSM    H8F11912   0.627   1.814  10.412 -1.9632  2.3824 -1.7256
  114OSM    H8G11913   0.503   1.830  10.520 -1.1557  0.7628 -0.9644
  114OSM    C9F11914   0.433   1.704  10.363 -0.1707 -0.1140  0.2101
  114OSM    H9F11915   0.335   1.682  10.408  0.3769 -0.9778  0.9918
  114OSM   C10F11916   0.438   1.703  10.231  0.0248 -0.3195  0.1459
  114OSM   H10F11917   0.342   1.682  10.180 -0.6637 -0.1586  1.3524
  114OSM   C11F11918   0.550   1.733  10.140 -1.0050 -0.5282  0.0889
  114OSM   H11F11919   0.648   1.696  10.175 -0.5808  0.9953  0.5151
  114OSM   H11G11920   0.550   1.842  10.121  2.9877 -0.1296  2.0119
  114OSM   C12F11921   0.526   1.682  10.001  0.2051  0.4769  0.7516
  114OSM   H12F11922   0.424   1.710   9.968 -0.2793 -0.7724  1.1424
  114OSM   H12G11923   0.539   1.573   9.981  1.8677  1.2765 -2.9059
  114OSM   C13F11924   0.619   1.753   9.897  0.3648  0.5530  0.1279
  114OSM   H13F11925   0.724   1.732   9.926 -0.3443  1.1700  3.3357
  114OSM   H13G11926   0.617   1.863   9.905 -2.2163  0.7469 -2.1934
  114OSM   C14F11927   0.584   1.701   9.759  0.3153 -0.2702 -0.0404
  114OSM   H14F11928   0.478   1.723   9.734 -0.3245  1.6690  3.9922
  114OSM   H14G11929   0.590   1.590   9.760  0.5326 -0.2671 -0.7159
  114OSM   C15F11930   0.691   1.754   9.654  0.7627 -1.0886 -0.1972
  114OSM   H15F11931   0.792   1.713   9.677  0.2881 -0.5659  3.0092
  114OSM   H15G11932   0.701   1.863   9.675  1.8507 -1.3155  0.5210
  114OSM   C16F11933   0.640   1.708   9.511 -0.1631 -0.5905  0.3719
  114OSM   H16F11934   0.541   1.748   9.484  0.3632 -0.0212 -0.7518
  114OSM   H16G11935   0.633   1.597   9.517 -0.0216 -0.6264 -0.1126
  114OSM   C17F11936   0.742   1.745   9.402 -0.0834  0.0720  0.4001
  114OSM   H17F11937   0.844   1.724   9.440  0.8842 -1.0401 -2.6907
  114OSM   H17G11938   0.725   1.853   9.382  3.3801  0.4166 -1.0376
  114OSM   C18F11939   0.726   1.669   9.267 -0.0563  0.0854  0.5207
  114OSM   H18F11940   0.638   1.703   9.209 -2.0096 -1.1303  2.7302
  114OSM   H18G11941   0.719   1.559   9.281 -0.6837 -0.2808 -2.3618
  114OSM   H18H11942   0.809   1.692   9.196  1.0112  0.0718  1.7561
  115OSM      N11943   3.130   4.352   6.171 -0.0680 -0.0187  0.2170
  115OSM    C1511944   3.268   4.401   6.190 -0.0871 -0.1002 -0.0242
  115OSM   H15A11945   3.310   4.411   6.091  0.4933 -0.8401  0.1446
  115OSM   H15B11946   3.325   4.342   6.260 -2.8406 -0.0340  2.4100
  115OSM   H15C11947   3.266   4.497   6.241 -0.0379  0.3385 -0.8468
  115OSM    C1411948   3.061   4.445   6.069  0.0979  0.3454 -0.7832
  115OSM   H14A11949   3.042   4.542   6.114 -2.6438 -0.6916  0.3909
  115OSM   H14B11950   2.965   4.400   6.052  0.7512 -2.4252  2.2560
  115OSM   H14C11951   3.104   4.450   5.970  0.9502  2.0769 -0.3522
  115OSM    C1311952   3.137   4.212   6.103 -0.3917 -0.4896 -0.6753
  115OSM   H13A11953   3.208   4.154   6.160 -0.1957  0.7799  0.3927
  115OSM   H13B11954   3.174   4.219   6.002 -1.9538  3.1253 -1.0735
  115OSM   H13C11955   3.041   4.162   6.104 -0.5207 -0.2925  2.4495
  115OSM    C1211956   3.058   4.335   6.304  0.6922 -0.3688 -0.4346
  115OSM   H12A11957   3.106   4.260   6.365  1.1226 -0.0233 -0.3479
  115OSM   H12B11958   2.955   4.303   6.292  0.8747 -0.2607 -2.4113
  115OSM    C1111959   3.056   4.463   6.396  0.2176  0.1067  0.1180
  115OSM   H11A11960   3.148   4.483   6.456  0.0466 -2.2836  1.2830
  115OSM   H11B11961   2.978   4.438   6.472 -0.2981  0.0752 -0.4175
  115OSM      P11962   3.029   4.724   6.347  0.1072  0.1417  0.3072
  115OSM    O1311963   3.158   4.748   6.416  0.3899  0.1233  0.4759
  115OSM    O1411964   3.007   4.805   6.221 -0.3911 -0.4663  0.7593
  115OSM    O1111965   2.916   4.758   6.461 -0.0503  0.3265  0.3564
  115OSM    O1211966   3.009   4.573   6.317 -0.1292 -0.3072 -0.2610
  115OSM    C1S11967   2.891   4.679   6.578  0.1272  0.4082  0.3416
  115OSM    H1S11968   2.983   4.634   6.621 -1.2220 -1.2295  1.6186
  115OSM    H1T11969   2.834   4.590   6.541 -2.2113  0.9348  2.5516
  115OSM     NF11970   2.808   4.664   6.805 -0.5725  0.0330  0.5874
  115OSM    HNF11971   2.735   4.597   6.812 -1.8084  1.1634 -1.0401
  115OSM    C2S11972   2.810   4.752   6.687 -0.0166  0.2799  0.5402
  115OSM    H2S11973   2.882   4.833   6.711  4.0221 -2.3227 -2.1155
  115OSM    C3S11974   2.675   4.800   6.632 -0.3942  0.2490 -0.1368
  115OSM    H3S11975   2.619   4.715   6.585 -1.0134 -0.4170  1.7546
  115OSM     O311976   2.684   4.904   6.532  0.3207  0.7449  0.0660
  115OSM    HO311977   2.758   4.871   6.481 -0.8929  0.5881 -1.6587
  115OSM    C4S11978   2.592   4.862   6.743  0.5761 -0.3693 -0.6782
  115OSM    H4S11979   2.630   4.956   6.787  1.1181 -2.1991  2.9361
  115OSM    C5S11980   2.479   4.804   6.791 -0.2446  0.3938  0.1223
  115OSM    H5S11981   2.452   4.707   6.746 -0.1400  0.0921  0.7039
  115OSM    C6S11982   2.395   4.855   6.904  0.0774  0.0913 -0.5482
  115OSM    H6S11983   2.421   4.961   6.920  1.1648  0.0015 -1.6467
  115OSM    H6T11984   2.410   4.789   6.992 -1.7132  0.7813  0.2838
  115OSM    C7S11985   2.251   4.849   6.870 -0.2619  0.1572  0.5295
  115OSM    H7S11986   2.213   4.745   6.876 -1.9121  0.7970  1.3241
  115OSM    H7T11987   2.222   4.890   6.770  0.4966 -0.5510  0.0061
  115OSM    C8S11988   2.183   4.925   6.985  0.7483 -0.1679  0.1819
  115OSM    H8S11989   2.222   5.029   6.987 -0.3766  0.2562  0.3453
  115OSM    H8T11990   2.213   4.884   7.084 -0.5419 -1.2745  0.1269
  115OSM    C9S11991   2.034   4.932   6.966  0.1672  0.1441 -0.6933
  115OSM    H9S11992   1.990   4.831   6.971  2.5509 -0.8779  0.4904
  115OSM    H9T11993   2.018   4.983   6.868  2.0736  0.8058 -0.6888
  115OSM   C10S11994   1.958   5.027   7.065  0.1781  0.3406  0.0777
  115OSM   H10S11995   1.852   5.011   7.034  0.4740 -2.3944  0.3012
  115OSM   H10T11996   1.968   5.133   7.033 -0.4173  0.8572  1.5914
  115OSM   C11S11997   1.980   5.002   7.215 -0.0057 -0.0976 -0.8812
  115OSM   H11S11998   2.071   5.057   7.247 -0.5869  0.2721  0.1828
  115OSM   H11T11999   1.987   4.892   7.226  1.2832  0.0759  0.1853
  115OSM   C12S12000   1.858   5.056   7.292 -0.0342 -0.1136  0.0039
  115OSM   H12S12001   1.767   4.999   7.263  1.6768 -1.3885 -3.0337
  115OSM   H12T12002   1.838   5.162   7.263  0.3321 -0.0800 -0.1231
  115OSM   C13S12003   1.867   5.063   7.449  0.5788  0.1611  0.2447
  115OSM   H13S12004   1.793   5.137   7.486 -0.1871 -0.5874  0.2162
  115OSM   H13T12005   1.966   5.099   7.482 -1.0132  2.2762  2.9480
  115OSM   C14S12006   1.862   4.931   7.528  0.7752  0.1968 -0.7463
  115OSM   H14S12007   1.965   4.890   7.518  0.7351  0.1025 -0.7721
  115OSM   H14T12008   1.781   4.872   7.480 -1.1667  3.1953 -1.3327
  115OSM   C15S12009   1.840   4.954   7.679  0.5345  0.0115  0.4319
  115OSM   H15S12010   1.737   4.995   7.683  1.2820  2.1748 -1.5646
  115OSM   H15T12011   1.916   5.029   7.710  0.7547 -0.1205  0.2121
  115OSM   C16S12012   1.847   4.830   7.773 -0.3367 -0.1023  0.1855
  115OSM   H16S12013   1.773   4.750   7.751  1.4826 -1.7080 -0.1289
  115OSM   H16T12014   1.805   4.872   7.867  1.2923  2.2976 -0.1202
  115OSM   C17S12015   1.993   4.774   7.797  0.0183  0.3725  0.6906
  115OSM   H17S12016   2.072   4.851   7.785 -0.6120  0.5867 -2.5694
  115OSM   H17T12017   2.010   4.698   7.718 -0.1709 -0.8801  1.8474
  115OSM   C18S12018   2.003   4.692   7.927 -0.4134  0.2794 -1.4925
  115OSM   H18S12019   2.091   4.624   7.925  0.2522  0.9513  1.3897
  115OSM   H18T12020   1.916   4.623   7.934 -0.8791  1.0927  1.7189
  115OSM   H18U12021   2.008   4.758   8.017  0.3890  1.6530 -2.5219
  115OSM    C1F12022   2.922   4.642   6.870 -0.2027  0.6300 -0.5132
  115OSM     OF12023   3.026   4.707   6.852  0.7354  0.1248 -0.4746
  115OSM    C2F12024   2.914   4.526   6.966 -1.0003 -0.3887 -0.1635
  115OSM    H2F12025   2.941   4.437   6.905  1.6121  0.2275  0.0579
  115OSM    H2G12026   2.814   4.524   7.014 -0.0170  4.4811  2.3887
  115OSM    C3F12027   3.025   4.535   7.081  0.3000 -0.3503  0.2861
  115OSM    H3F12028   3.131   4.530   7.050 -0.8592 -0.5365 -3.8784
  115OSM    H3G12029   3.003   4.448   7.146 -1.2891 -0.4124 -0.2950
  115OSM    C4F12030   2.985   4.644   7.186 -0.2509  0.8892  0.0581
  115OSM    H4F12031   2.878   4.639   7.216  0.2754 -0.2323  1.8141
  115OSM    H4G12032   3.007   4.746   7.147 -0.5276  1.7656  2.1578
  115OSM    C5F12033   3.066   4.636   7.317 -0.0864 -0.5489 -0.4086
  115OSM    H5F12034   3.173   4.639   7.288 -0.2840 -0.1717 -1.1052
  115OSM    H5G12035   3.050   4.536   7.363  0.5937  0.2146  1.5454
  115OSM    C6F12036   3.032   4.753   7.415 -0.2850  0.0995 -0.3047
  115OSM    H6F12037   2.930   4.795   7.424  0.1665  1.4345 -1.3031
  115OSM    H6G12038   3.091   4.838   7.375 -1.0004  0.4440 -0.6237
  115OSM    C7F12039   3.081   4.715   7.552  0.4040  0.2765  0.0417
  115OSM    H7F12040   3.181   4.667   7.546  0.5233  0.7220 -1.6838
  115OSM    H7G12041   3.002   4.651   7.597  0.7004  0.0806  0.2930
  115OSM    C8F12042   3.079   4.841   7.636 -0.0648  0.2580 -0.8025
  115OSM    H8F12043   2.981   4.894   7.636  0.5394  1.3840 -1.8827
  115OSM    H8G12044   3.155   4.906   7.588 -0.0128  1.1685  0.4720
  115OSM    C9F12045   3.135   4.802   7.768 -0.4629  0.3807  0.0224
  115OSM    H9F12046   3.245   4.797   7.767 -0.3660  2.1060  0.4100
  115OSM   C10F12047   3.069   4.795   7.890  0.0138  0.5326  0.4114
  115OSM   H10F12048   3.119   4.763   7.983  0.8878  1.7873  0.3974
  115OSM   C11F12049   2.927   4.844   7.907  0.0808 -0.5768  0.6124
  115OSM   H11F12050   2.864   4.755   7.927 -0.1743 -0.3022  1.0430
  115OSM   H11G12051   2.884   4.887   7.814 -0.5503 -0.8128  0.7897
  115OSM   C12F12052   2.900   4.948   8.023  0.2595  0.0512  0.5294
  115OSM   H12F12053   2.791   4.966   8.009  0.6865  1.5639 -1.0617
  115OSM   H12G12054   2.963   5.039   8.017  0.9074 -0.3655  0.9728
  115OSM   C13F12055   2.931   4.882   8.156  0.2809  0.0287  0.2298
  115OSM   H13F12056   3.037   4.910   8.176  1.0094 -1.7645 -0.9570
  115OSM   H13G12057   2.928   4.773   8.136  1.5955  0.4703 -2.6069
  115OSM   C14F12058   2.824   4.918   8.261  0.7127  0.9220  0.0587
  115OSM   H14F12059   2.720   4.880   8.257  1.2522 -1.0957  3.3650
  115OSM   H14G12060   2.810   5.028   8.268 -2.7641  0.5706 -0.4953
  115OSM   C15F12061   2.876   4.877   8.406  0.3622 -0.1646 -0.0093
  115OSM   H15F12062   2.865   4.959   8.480  0.5206 -0.3417  0.2143
  115OSM   H15G12063   2.985   4.862   8.390  0.3470 -0.4299  0.1452
  115OSM   C16F12064   2.810   4.747   8.458  0.0052 -0.1007  0.7665
  115OSM   H16F12065   2.701   4.763   8.473 -0.1785  0.5139 -1.1516
  115OSM   H16G12066   2.854   4.712   8.554  1.5543 -0.5907 -0.1046
  115OSM   C17F12067   2.823   4.640   8.351 -0.7294 -0.6168  0.0608
  115OSM   H17F12068   2.931   4.633   8.325 -0.7118  0.8549 -0.2816
  115OSM   H17G12069   2.766   4.676   8.263  0.5853 -0.7290 -0.8615
  115OSM   C18F12070   2.775   4.497   8.377  0.4439 -0.1369  1.0109
  115OSM   H18F12071   2.836   4.434   8.445  0.2645  0.6331  1.8982
  115OSM   H18G12072   2.775   4.440   8.281 -0.5229  0.3997  0.6828
  115OSM   H18H12073   2.666   4.504   8.399  0.2363 -2.4666  0.8347
  116OSM      N12074   2.356   2.176   6.202 -0.1132  0.2559 -1.0486
  116OSM    C1512075   2.295   2.138   6.073 -0.0742  0.2955 -0.5345
  116OSM   H15A12076   2.189   2.159   6.066 -0.3236 -0.3451  1.3147
  116OSM   H15B12077   2.297   2.034   6.044  1.3701  0.9260 -2.8770
  116OSM   H15C12078   2.345   2.180   5.986  1.6209 -1.2786 -0.3543
  116OSM    C1412079   2.495   2.117   6.199  0.0553  0.3102  0.3056
  116OSM   H14A12080   2.492   2.009   6.190  0.0577  0.2151  1.3916
  116OSM   H14B12081   2.549   2.148   6.287  1.2284 -1.3412  0.1839
  116OSM   H14C12082   2.550   2.154   6.114 -1.6392  0.0065 -0.9536
  116OSM    C1312083   2.365   2.328   6.212  0.3864  0.3782 -0.5376
  116OSM   H13A12084   2.413   2.365   6.302  1.9326 -1.8592 -0.3947
  116OSM   H13B12085   2.264   2.366   6.211  0.2177 -0.0853 -1.4910
  116OSM   H13C12086   2.419   2.361   6.124  0.4636  1.3445 -0.1395
  116OSM    C1212087   2.277   2.118   6.315 -0.2416 -0.3256 -0.2563
  116OSM   H12A12088   2.178   2.158   6.330 -0.8639 -2.3078  1.1596
  116OSM   H12B12089   2.325   2.147   6.407 -0.2650  0.5530 -0.5214
  116OSM    C1112090   2.242   1.965   6.309  0.0359 -0.6163  0.0154
  116OSM   H11A12091   2.173   1.949   6.223  0.3036  0.4623 -0.4025
  116OSM   H11B12092   2.187   1.958   6.406  0.5601 -0.7342  0.3067
  116OSM      P12093   2.350   1.736   6.232 -0.4391  0.0048  0.5810
  116OSM    O1312094   2.297   1.744   6.095 -0.1188  0.1837 -0.1428
  116OSM    O1412095   2.487   1.680   6.247 -0.0080  0.0156 -0.2028
  116OSM    O1112096   2.250   1.655   6.320 -0.2070  0.0029 -0.0957
  116OSM    O1212097   2.352   1.881   6.298  0.3515 -0.5570 -0.2623
  116OSM    C1S12098   2.292   1.608   6.443 -0.1459  0.1024 -0.2094
  116OSM    H1S12099   2.401   1.600   6.464 -0.7261 -1.0215  2.5856
  116OSM    H1T12100   2.247   1.508   6.460 -0.2779  0.2488  0.3202
  116OSM     NF12101   2.275   1.654   6.690  0.4179 -0.4204 -0.4537
  116OSM    HNF12102   2.216   1.591   6.739 -1.4565  1.0802 -0.7287
  116OSM    C2S12103   2.229   1.691   6.558  0.8996  0.0709 -0.0241
  116OSM    H2S12104   2.266   1.795   6.549  0.6811  0.2162  0.7129
  116OSM    C3S12105   2.072   1.688   6.544  0.1080 -0.2241 -0.1377
  116OSM    H3S12106   2.048   1.580   6.552 -0.7964 -0.2453 -2.7976
  116OSM     O312107   2.022   1.755   6.432  0.3106 -0.1345 -0.3249
  116OSM    HO312108   2.098   1.744   6.375  1.3079 -0.8852  1.1422
  116OSM    C4S12109   2.006   1.772   6.656 -0.1955 -0.5621  0.5795
  116OSM    H4S12110   2.044   1.874   6.668 -1.3651 -0.1927  1.2916
  116OSM    C5S12111   1.892   1.747   6.722  0.0956 -0.2754 -0.2448
  116OSM    H5S12112   1.841   1.653   6.697  1.5326 -0.4174 -2.8797
  116OSM    C6S12113   1.824   1.833   6.829 -0.4575  0.4121  0.0543
  116OSM    H6S12114   1.802   1.773   6.920 -2.2544 -0.0468 -0.6770
  116OSM    H6T12115   1.720   1.853   6.797 -0.3257  0.0746 -0.5773
  116OSM    C7S12116   1.896   1.962   6.870  0.1611  0.1921 -0.1474
  116OSM    H7S12117   1.911   2.028   6.781 -1.6850  0.2256 -0.4558
  116OSM    H7T12118   1.998   1.935   6.901  1.1538  0.0052 -3.3268
  116OSM    C8S12119   1.822   2.046   6.974  0.1196  0.0062 -1.0200
  116OSM    H8S12120   1.714   2.058   6.948 -0.1021  0.9124  0.2572
  116OSM    H8T12121   1.878   2.140   6.993 -0.0185 -0.1827  0.4007
  116OSM    C9S12122   1.800   1.974   7.110 -0.6070 -0.2132  0.1504
  116OSM    H9S12123   1.890   1.937   7.164 -2.0969 -1.8708  1.5582
  116OSM    H9T12124   1.740   1.882   7.092  1.8292 -1.8862  0.1682
  116OSM   C10S12125   1.730   2.059   7.211  0.4307 -0.1359  0.1015
  116OSM   H10S12126   1.624   2.074   7.182  0.7611  1.5885 -0.2574
  116OSM   H10T12127   1.787   2.154   7.216  0.1850 -0.0017  0.3610
  116OSM   C11S12128   1.730   1.989   7.343  0.5449 -0.6552  0.2650
  116OSM   H11S12129   1.807   1.910   7.359 -1.9213 -3.3805 -0.7414
  116OSM   H11T12130   1.643   1.923   7.320  1.2024 -2.2619  2.2062
  116OSM   C12S12131   1.685   2.065   7.469  0.1047 -0.4649  0.2381
  116OSM   H12S12132   1.585   2.110   7.456  1.2511  2.2601  0.4297
  116OSM   H12T12133   1.752   2.153   7.481 -1.5118  0.8143 -0.1072
  116OSM   C13S12134   1.697   1.994   7.597 -0.0421  0.8627 -0.0624
  116OSM   H13S12135   1.804   1.968   7.608  0.1877  0.9702 -1.9227
  116OSM   H13T12136   1.632   1.905   7.613  0.6403  0.0822 -1.5407
  116OSM   C14S12137   1.653   2.096   7.707 -0.4018 -0.2643 -0.2773
  116OSM   H14S12138   1.553   2.138   7.680 -0.7970 -0.0570  1.4698
  116OSM   H14T12139   1.726   2.180   7.696  1.7153 -2.0366 -0.1468
  116OSM   C15S12140   1.651   2.054   7.851  0.2106 -0.1007 -0.2763
  116OSM   H15S12141   1.749   2.001   7.858 -0.2653 -0.9219  0.2440
  116OSM   H15T12142   1.573   1.976   7.861  1.2393 -1.1170 -0.1010
  116OSM   C16S12143   1.634   2.174   7.948 -0.4183  0.6565 -0.5067
  116OSM   H16S12144   1.533   2.216   7.932 -0.7484 -0.1475 -0.5421
  116OSM   H16T12145   1.715   2.239   7.907  0.1271  0.1727 -0.2034
  116OSM   C17S12146   1.669   2.146   8.094 -0.4856 -0.5147 -0.4014
  116OSM   H17S12147   1.777   2.119   8.098 -0.5924 -0.8233  0.8572
  116OSM   H17T12148   1.617   2.055   8.129  0.3295 -1.0045 -0.4434
  116OSM   C18S12149   1.640   2.264   8.188 -0.0420 -0.3384 -0.3224
  116OSM   H18S12150   1.646   2.244   8.297  0.1090  0.4152 -0.1871
  116OSM   H18T12151   1.546   2.316   8.159  0.1040  1.7360  2.7318
  116OSM   H18U12152   1.723   2.336   8.169  0.6423 -0.8792  0.5879
  116OSM    C1F12153   2.399   1.678   6.729 -0.0006 -0.1631  0.0142
  116OSM     OF12154   2.478   1.748   6.665 -0.4339  0.0592  0.2740
  116OSM    C2F12155   2.430   1.619   6.863 -0.3214 -0.2073  0.4495
  116OSM    H2F12156   2.535   1.584   6.868 -0.0357  0.3750 -1.1504
  116OSM    H2G12157   2.361   1.535   6.886  1.5487 -1.5684  1.1665
  116OSM    C3F12158   2.429   1.730   6.975 -0.2338 -0.2313 -1.1179
  116OSM    H3F12159   2.326   1.770   6.985  0.0725  0.6162 -1.2578
  116OSM    H3G12160   2.512   1.802   6.955  0.1705  0.0076  1.2423
  116OSM    C4F12161   2.480   1.670   7.109  0.0873 -0.1520  0.3071
  116OSM    H4F12162   2.588   1.646   7.096 -0.2909 -2.4460  1.1780
  116OSM    H4G12163   2.428   1.577   7.139  1.8814 -0.9951  0.8975
  116OSM    C5F12164   2.477   1.770   7.224 -0.3338  0.8085  0.3111
  116OSM    H5F12165   2.368   1.788   7.233 -1.0323 -1.5557 -2.5657
  116OSM    H5G12166   2.528   1.860   7.185  2.7941 -1.3736 -0.8465
  116OSM    C6F12167   2.550   1.728   7.355 -0.6687  0.5437 -0.0117
  116OSM    H6F12168   2.649   1.691   7.323  0.1877  0.5950  2.4958
  116OSM    H6G12169   2.490   1.654   7.413 -0.9308  0.2079 -0.7024
  116OSM    C7F12170   2.574   1.852   7.444  0.0235  0.0011 -0.2224
  116OSM    H7F12171   2.477   1.884   7.488  1.2705  1.0352  1.7951
  116OSM    H7G12172   2.613   1.933   7.380  1.3282 -0.0419  0.4945
  116OSM    C8F12173   2.680   1.810   7.548  0.5405 -0.3477 -0.5687
  116OSM    H8F12174   2.737   1.898   7.586  1.2036 -1.0292  0.0033
  116OSM    H8G12175   2.753   1.740   7.503  1.8063  1.1849 -0.9764
  116OSM    C9F12176   2.611   1.731   7.662 -0.3144  0.4112  0.7774
  116OSM    H9F12177   2.536   1.659   7.626  1.3995 -1.3523  0.6967
  116OSM   C10F12178   2.623   1.755   7.800 -0.4277  0.4898  0.2726
  116OSM   H10F12179   2.569   1.692   7.872  0.7902  0.7293  1.4229
  116OSM   C11F12180   2.705   1.856   7.866  0.4512  0.2747 -0.2657
  116OSM   H11F12181   2.732   1.927   7.784  1.6554 -0.0375 -0.1495
  116OSM   H11G12182   2.794   1.807   7.910  0.0999  1.4708  1.8357
  116OSM   C12F12183   2.638   1.936   7.978  0.5568  0.0490  0.3792
  116OSM   H12F12184   2.580   1.868   8.044  1.0110 -3.2938 -2.4803
  116OSM   H12G12185   2.559   2.008   7.948 -0.2268 -0.3305  1.4923
  116OSM   C13F12186   2.741   2.006   8.059  0.5312 -0.2546 -0.0874
  116OSM   H13F12187   2.761   2.107   8.018 -1.3789  0.3161  0.3192
  116OSM   H13G12188   2.830   1.940   8.052  0.2326 -0.7554  0.7350
  116OSM   C14F12189   2.693   2.016   8.203  0.4096 -0.9913 -0.3152
  116OSM   H14F12190   2.588   2.054   8.199  1.7941  2.9910 -0.7872
  116OSM   H14G12191   2.749   2.102   8.246 -1.9687 -0.5599  2.1009
  116OSM   C15F12192   2.689   1.892   8.288 -1.0549  0.2152  0.5757
  116OSM   H15F12193   2.795   1.874   8.315 -0.6826  1.0807 -0.2774
  116OSM   H15G12194   2.653   1.805   8.229 -1.2692  0.6663  0.0355
  116OSM   C16F12195   2.598   1.891   8.413  0.0770 -0.1278  0.0219
  116OSM   H16F12196   2.598   1.797   8.471 -1.5603 -0.5080 -0.5498
  116OSM   H16G12197   2.489   1.901   8.392 -0.4202 -1.1705  2.0015
  116OSM   C17F12198   2.621   2.018   8.505  0.1935 -0.4115 -0.4858
  116OSM   H17F12199   2.598   2.113   8.453  1.9644  0.5562  0.4389
  116OSM   H17G12200   2.723   2.039   8.543  0.0175  0.8523 -0.6819
  116OSM   C18F12201   2.531   2.022   8.626  0.8704  1.0521 -0.0689
  116OSM   H18F12202   2.552   1.922   8.669 -0.3476 -0.0784 -2.0492
  116OSM   H18G12203   2.424   2.037   8.602  0.0094 -0.7705  2.4847
  116OSM   H18H12204   2.570   2.095   8.701  0.1401  1.8894 -0.4965
  117OSM      N12205   0.110   4.142   6.114 -0.5973  0.0406  0.5412
  117OSM    C1512206  -0.036   4.148   6.070 -1.1238  0.7314 -0.3850
  117OSM   H15A12207  -0.090   4.200   6.148 -2.6192  1.6224 -1.9978
  117OSM   H15B12208  -0.082   4.051   6.064 -1.9912  1.1903 -1.2403
  117OSM   H15C12209  -0.047   4.200   5.976 -0.1069 -0.3490 -1.1172
  117OSM    C1412210   0.164   4.027   6.037  0.0567 -0.0939 -0.0333
  117OSM   H14A12211   0.115   3.938   6.072  0.2767 -0.0099  0.4844
  117OSM   H14B12212   0.271   4.013   6.047  0.1002 -0.9465 -1.5060
  117OSM   H14C12213   0.146   4.033   5.930  1.2186  3.4626 -0.1027
  117OSM    C1312214   0.174   4.265   6.064 -0.3437 -0.5179 -0.1479
  117OSM   H13A12215   0.281   4.267   6.075 -0.3945  1.8237  0.0512
  117OSM   H13B12216   0.141   4.350   6.122  1.3904  0.6455 -0.8520
  117OSM   H13C12217   0.152   4.271   5.959  1.4495  0.1344 -0.4896
  117OSM    C1212218   0.126   4.124   6.259  0.4376  0.1217 -0.2550
  117OSM   H12A12219   0.054   4.053   6.296  1.3983 -0.9895 -0.4970
  117OSM   H12B12220   0.114   4.216   6.314 -0.5050 -0.1976  0.0779
  117OSM    C1112221   0.260   4.072   6.316 -0.2477 -1.1173  0.2738
  117OSM   H11A12222   0.273   3.969   6.276  4.3685 -1.0851  1.4501
  117OSM   H11B12223   0.261   4.054   6.426 -0.1276  1.1966  0.6708
  117OSM      P12224   0.396   4.287   6.370  0.3795  0.5396  0.2374
  117OSM    O1312225   0.538   4.315   6.359  0.2938  0.1229 -0.3257
  117OSM    O1412226   0.304   4.389   6.319  0.2815 -0.0934 -0.5456
  117OSM    O1112227   0.367   4.253   6.518  0.1262 -0.1160  0.1370
  117OSM    O1212228   0.362   4.160   6.285 -0.3762  0.2240  0.2808
  117OSM    C1S12229   0.446   4.176   6.602 -0.0248  0.5142 -0.2811
  117OSM    H1S12230   0.554   4.184   6.578 -0.0067 -1.3680 -0.8919
  117OSM    H1T12231   0.409   4.073   6.584 -0.8291  0.9619 -1.2797
  117OSM     NF12232   0.511   4.153   6.839  0.4936  0.3125  0.3900
  117OSM    HNF12233   0.485   4.071   6.888  0.1491  0.4400  0.4179
  117OSM    C2S12234   0.413   4.217   6.751 -0.2542 -0.0964 -0.6946
  117OSM    H2S12235   0.434   4.325   6.764  1.5615 -0.5306  0.1674
  117OSM    C3S12236   0.267   4.184   6.782 -0.1795  0.0027  0.0348
  117OSM    H3S12237   0.251   4.074   6.787  1.0221 -0.1491  0.8208
  117OSM     O312238   0.166   4.228   6.685 -1.0420 -0.1314 -0.5156
  117OSM    HO312239   0.223   4.268   6.619 -0.2934 -0.7425 -0.2474
  117OSM    C4S12240   0.232   4.242   6.914 -0.2270  0.7724 -0.4285
  117OSM    H4S12241   0.252   4.170   6.995 -0.8263  0.9336 -0.1316
  117OSM    C5S12242   0.177   4.363   6.950  0.1174  0.5773 -0.1374
  117OSM    H5S12243   0.140   4.436   6.876 -0.5774 -1.8950 -2.2843
  117OSM    C6S12244   0.152   4.401   7.093  0.3037  1.0617  0.4798
  117OSM    H6S12245   0.045   4.394   7.118  0.2106 -2.4362 -0.5938
  117OSM    H6T12246   0.174   4.509   7.099  1.5703  0.8492 -0.1609
  117OSM    C7S12247   0.228   4.333   7.201 -0.4431  0.2767 -0.4384
  117OSM    H7S12248   0.336   4.321   7.180 -0.5200  0.4789 -0.9388
  117OSM    H7T12249   0.201   4.227   7.222  4.2158 -0.6143  1.6885
  117OSM    C8S12250   0.203   4.394   7.340  0.2217  0.2436  0.2705
  117OSM    H8S12251   0.095   4.394   7.367  0.0815  1.7429 -0.2284
  117OSM    H8T12252   0.240   4.499   7.335 -1.6144  0.9118  0.4338
  117OSM    C9S12253   0.283   4.321   7.451 -0.4220  0.0011 -0.0997
  117OSM    H9S12254   0.391   4.307   7.427 -0.2115  0.4257  0.5875
  117OSM    H9T12255   0.233   4.222   7.456 -1.1584  0.3278 -0.9493
  117OSM   C10S12256   0.292   4.406   7.581  0.5338  0.3432 -0.1249
  117OSM   H10S12257   0.289   4.513   7.552  1.1788  0.9147  1.7791
  117OSM   H10T12258   0.390   4.396   7.632  0.0948  0.0949  0.6904
  117OSM   C11S12259   0.184   4.375   7.688  0.1781 -0.3521 -0.1010
  117OSM   H11S12260   0.196   4.266   7.710 -1.0481 -0.3097  0.8175
  117OSM   H11T12261   0.089   4.405   7.639 -0.3364  1.5196  1.9622
  117OSM   C12S12262   0.195   4.471   7.807 -0.5442 -0.6138 -0.9468
  117OSM   H12S12263   0.188   4.577   7.772  2.2963 -0.0050  0.2163
  117OSM   H12T12264   0.296   4.462   7.851 -1.7862 -1.6381  1.8358
  117OSM   C13S12265   0.085   4.450   7.911  0.6621 -0.8524  0.0528
  117OSM   H13S12266   0.109   4.494   8.010 -1.9874  2.5029 -0.7198
  117OSM   H13T12267   0.083   4.342   7.940  3.1887 -0.8697  0.2180
  117OSM   C14S12268  -0.060   4.494   7.876 -0.4135  0.0821 -0.2404
  117OSM   H14S12269  -0.074   4.437   7.782  2.0837 -0.8494 -0.0841
  117OSM   H14T12270  -0.060   4.603   7.897  1.4216 -0.5401  3.5234
  117OSM   C15S12271  -0.164   4.453   7.980  0.4752 -0.4134  0.0603
  117OSM   H15S12272  -0.178   4.345   7.958  2.9353 -0.7170 -0.1561
  117OSM   H15T12273  -0.253   4.513   7.952  0.7739  0.2964  0.6098
  117OSM   C16S12274  -0.126   4.474   8.129 -0.2607  0.2552 -0.0434
  117OSM   H16S12275  -0.122   4.580   8.160 -1.4249  1.1337 -2.6877
  117OSM   H16T12276  -0.027   4.425   8.144  0.9532  2.4604 -0.6716
  117OSM   C17S12277  -0.212   4.410   8.241 -0.2783  0.6216  0.1907
  117OSM   H17S12278  -0.144   4.392   8.327 -2.0095  1.9560  1.8675
  117OSM   H17T12279  -0.228   4.304   8.215 -0.1409  0.7221 -0.3008
  117OSM   C18S12280  -0.327   4.499   8.282  0.0542 -0.1500  0.4945
  117OSM   H18S12281  -0.402   4.510   8.201  0.5295 -0.5642  0.0054
  117OSM   H18T12282  -0.305   4.604   8.312  0.0270 -0.6428  2.3190
  117OSM   H18U12283  -0.389   4.452   8.361 -2.0132  2.0703  0.2467
  117OSM    C1F12284   0.642   4.178   6.823  0.0825 -0.3526 -0.1333
  117OSM     OF12285   0.673   4.273   6.753 -0.4081  0.6433 -0.4377
  117OSM    C2F12286   0.744   4.092   6.893  0.6985 -0.1552 -0.0086
  117OSM    H2F12287   0.843   4.119   6.851  0.4428 -0.8610 -1.0745
  117OSM    H2G12288   0.719   3.986   6.873 -1.5887 -0.1517  2.4802
  117OSM    C3F12289   0.765   4.132   7.041 -0.4926  0.1177 -0.1800
  117OSM    H3F12290   0.789   4.240   7.040 -2.0664  0.4767 -0.3772
  117OSM    H3G12291   0.855   4.083   7.083 -1.4586 -3.3875 -1.9670
  117OSM    C4F12292   0.653   4.086   7.137 -0.0251  0.3809  0.3455
  117OSM    H4F12293   0.628   3.979   7.125 -0.0938  0.5586 -1.3003
  117OSM    H4G12294   0.556   4.139   7.121  0.3557  1.0489  0.2240
  117OSM    C5F12295   0.674   4.106   7.289  0.5375 -0.0732 -0.1687
  117OSM    H5F12296   0.672   4.213   7.317 -0.0319  0.0405 -0.6344
  117OSM    H5G12297   0.777   4.074   7.318 -0.2648 -1.7748  0.9280
  117OSM    C6F12298   0.566   4.032   7.372 -0.5114 -0.7987  0.4360
  117OSM    H6F12299   0.562   3.930   7.328 -0.8453 -0.2943 -0.7150
  117OSM    H6G12300   0.466   4.082   7.370 -0.9487 -1.7118 -1.6608
  117OSM    C7F12301   0.623   4.013   7.510  0.4389 -0.0467 -0.1232
  117OSM    H7F12302   0.630   4.115   7.554 -0.0809 -0.4644  0.9534
  117OSM    H7G12303   0.728   3.977   7.507  0.4658  0.0056  0.1478
  117OSM    C8F12304   0.540   3.910   7.590  0.1453 -0.2348  0.0704
  117OSM    H8F12305   0.604   3.886   7.678 -0.2200  0.8943  0.6583
  117OSM    H8G12306   0.527   3.819   7.528  0.3126  0.4572 -0.9955
  117OSM    C9F12307   0.404   3.962   7.631 -0.1821  0.5514  0.1392
  117OSM    H9F12308   0.358   4.024   7.553 -0.7856  1.5745  1.2894
  117OSM   C10F12309   0.348   3.961   7.750 -0.4354  0.3900  0.1289
  117OSM   H10F12310   0.243   3.992   7.759 -0.0997  2.4647 -2.5776
  117OSM   C11F12311   0.404   3.907   7.873  0.1538  0.4153  0.2059
  117OSM   H11F12312   0.514   3.922   7.877  0.1071  0.6099  0.8321
  117OSM   H11G12313   0.392   3.796   7.878  1.6008  0.3121  2.4397
  117OSM   C12F12314   0.330   3.965   7.993 -0.9270 -0.3835 -0.0725
  117OSM   H12F12315   0.383   3.928   8.083  2.4827  0.9136 -1.5028
  117OSM   H12G12316   0.228   3.920   8.004 -0.5935 -0.7715  1.6656
  117OSM   C13F12317   0.350   4.117   8.014 -0.7230  0.9567  0.0923
  117OSM   H13F12318   0.287   4.163   7.935  0.9902  0.7092 -1.4430
  117OSM   H13G12319   0.451   4.153   7.987 -0.3316  1.5853  2.3360
  117OSM   C14F12320   0.298   4.169   8.150 -0.1182  0.3269 -0.4667
  117OSM   H14F12321   0.328   4.105   8.235  2.1451 -2.0619 -2.9508
  117OSM   H14G12322   0.187   4.174   8.163 -0.5526 -0.8831 -3.4039
  117OSM   C15F12323   0.345   4.314   8.178 -0.1977  0.5806  0.2479
  117OSM   H15F12324   0.283   4.364   8.101  1.6291 -0.2285 -1.7996
  117OSM   H15G12325   0.455   4.314   8.162  0.0152  2.3417  1.6047
  117OSM   C16F12326   0.310   4.367   8.320 -0.0943 -0.1759 -0.4365
  117OSM   H16F12327   0.392   4.325   8.382 -2.4447 -2.7423  1.0617
  117OSM   H16G12328   0.211   4.325   8.349  0.2162  0.0886  1.0631
  117OSM   C17F12329   0.296   4.517   8.331 -0.3892 -1.0852 -0.2879
  117OSM   H17F12330   0.392   4.562   8.300 -1.2954 -0.4548 -2.2780
  117OSM   H17G12331   0.222   4.565   8.264  0.6414  2.3478  0.9484
  117OSM   C18F12332   0.267   4.555   8.478  0.3700 -0.0855 -0.4393
  117OSM   H18F12333   0.302   4.463   8.529  1.1778  2.3885  3.7320
  117OSM   H18G12334   0.162   4.577   8.509 -0.8295 -3.2586 -1.9932
  117OSM   H18H12335   0.329   4.644   8.500 -0.5139  0.5468 -0.4929
  118OSM      N12336   2.985   5.613   6.256 -0.0664 -0.5716  0.0609
  118OSM    C1512337   2.861   5.693   6.214  0.0324  0.3602 -0.2350
  118OSM   H15A12338   2.800   5.692   6.303  0.0255 -0.0644 -0.2418
  118OSM   H15B12339   2.795   5.649   6.141 -0.1365  1.4197 -0.7349
  118OSM   H15C12340   2.879   5.796   6.188 -1.1813  0.4859 -0.5957
  118OSM    C1412341   2.920   5.491   6.309 -0.4943  0.3336  0.0139
  118OSM   H14A12342   2.980   5.438   6.382 -1.0498 -1.7327 -0.9716
  118OSM   H14B12343   2.914   5.420   6.227  0.0760  0.3836 -0.0733
  118OSM   H14C12344   2.820   5.505   6.346 -0.8995  1.7400 -1.5413
  118OSM    C1312345   3.072   5.585   6.140 -0.4937 -0.1839  0.1279
  118OSM   H13A12346   3.154   5.518   6.161  0.3830  0.4686 -1.1219
  118OSM   H13B12347   3.120   5.679   6.116  1.2324 -0.9496  0.5069
  118OSM   H13C12348   3.015   5.549   6.056 -0.5038  0.7482 -0.2782
  118OSM    C1212349   3.067   5.686   6.363 -0.3735  0.1652 -0.6117
  118OSM   H12A12350   3.153   5.623   6.378 -0.3074  0.3657 -0.1585
  118OSM   H12B12351   3.013   5.687   6.456  2.3153  0.2878  1.0002
  118OSM    C1112352   3.121   5.830   6.329  0.1312 -1.5622  0.3634
  118OSM   H11A12353   3.139   5.897   6.416  3.3464  2.2514 -3.0746
  118OSM   H11B12354   3.039   5.869   6.266  0.0838 -0.6974  0.9550
  118OSM      P12355   3.379   5.859   6.332 -0.3345 -0.2487  0.0523
  118OSM    O1312356   3.494   5.786   6.276 -0.6657 -0.1949 -0.1506
  118OSM    O1412357   3.391   6.005   6.326  0.1841  0.3846 -0.6169
  118OSM    O1112358   3.346   5.819   6.479  0.1134  0.5616  0.1987
  118OSM    O1212359   3.241   5.815   6.256 -0.1242  0.0655  0.1240
  118OSM    C1S12360   3.458   5.761   6.556  0.0959 -0.5452  0.1165
  118OSM    H1S12361   3.552   5.819   6.540 -0.6751  0.4782 -0.8225
  118OSM    H1T12362   3.481   5.659   6.521  0.5537 -0.9397  1.5132
  118OSM     NF12363   3.556   5.723   6.779 -0.4584 -0.2702 -0.5902
  118OSM    HNF12364   3.553   5.628   6.807 -0.6787 -0.5575 -1.5820
  118OSM    C2S12365   3.437   5.763   6.711 -0.0035 -0.2499 -0.8034
  118OSM    H2S12366   3.413   5.866   6.745  0.3253  0.6927 -3.3548
  118OSM    C3S12367   3.316   5.668   6.750 -0.6133 -0.5680  0.7777
  118OSM    H3S12368   3.324   5.566   6.706  0.0286  0.1412 -0.7938
  118OSM     O312369   3.194   5.724   6.702  0.2445 -0.3981  0.4542
  118OSM    HO312370   3.213   5.794   6.639  0.7005  1.1295  2.2497
  118OSM    C4S12371   3.304   5.667   6.898  0.1763 -0.2653 -0.2611
  118OSM    H4S12372   3.283   5.765   6.943 -0.9841 -0.9234  0.6677
  118OSM    C5S12373   3.319   5.560   6.979 -0.2794  0.2422  0.4518
  118OSM    H5S12374   3.369   5.474   6.933 -2.3477 -1.2655  0.9498
  118OSM    C6S12375   3.307   5.569   7.125  0.5092  0.0234 -0.3599
  118OSM    H6S12376   3.409   5.545   7.163  0.1744  0.6852  0.9936
  118OSM    H6T12377   3.249   5.484   7.167  1.1629  0.0919  0.6971
  118OSM    C7S12378   3.256   5.696   7.193 -0.2455  0.3880  0.4762
  118OSM    H7S12379   3.160   5.741   7.160 -0.9874 -0.9927  0.7472
  118OSM    H7T12380   3.335   5.772   7.174  0.1030 -0.0301  0.2622
  118OSM    C8S12381   3.222   5.671   7.344  0.0979 -0.1273 -0.7700
  118OSM    H8S12382   3.305   5.615   7.393  0.5067  0.3087 -0.9626
  118OSM    H8T12383   3.139   5.597   7.344 -0.7036  0.7621 -0.1555
  118OSM    C9S12384   3.196   5.799   7.417  0.3494  0.0191  0.8094
  118OSM    H9S12385   3.112   5.862   7.381  0.1195 -0.7915 -0.0954
  118OSM    H9T12386   3.284   5.865   7.404 -0.7685  1.6574  1.4799
  118OSM   C10S12387   3.175   5.758   7.564  0.5095  0.2387 -0.0271
  118OSM   H10S12388   3.189   5.840   7.637  2.8441 -0.5139  0.3908
  118OSM   H10T12389   3.243   5.673   7.586 -0.4945 -0.3825  0.7798
  118OSM   C11S12390   3.038   5.692   7.607  0.5355 -0.8295 -0.1049
  118OSM   H11S12391   3.042   5.587   7.569 -0.4958 -1.0736  0.4342
  118OSM   H11T12392   2.952   5.744   7.559 -1.3904 -0.7633  3.2274
  118OSM   C12S12393   3.012   5.696   7.757 -0.3483 -0.2277  0.4469
  118OSM   H12S12394   2.915   5.644   7.770 -0.6423 -0.7530 -3.1574
  118OSM   H12T12395   3.023   5.800   7.795  0.6662  1.5671 -4.3548
  118OSM   C13S12396   3.114   5.616   7.837  0.1309 -0.2000 -0.7500
  118OSM   H13S12397   3.208   5.674   7.834  0.2581  0.0956  4.6639
  118OSM   H13T12398   3.128   5.514   7.795  1.8333 -0.0189 -0.6288
  118OSM   C14S12399   3.063   5.618   7.984 -0.4816 -0.3396 -0.9296
  118OSM   H14S12400   2.959   5.579   7.996 -1.0676  1.0808 -1.3462
  118OSM   H14T12401   3.054   5.723   8.020  0.4966 -1.4099  2.6554
  118OSM   C15S12402   3.159   5.535   8.075  0.7990  0.3049  0.2149
  118OSM   H15S12403   3.248   5.599   8.096  1.0558 -0.3639  1.2052
  118OSM   H15T12404   3.194   5.436   8.039  0.9365  0.7853 -1.0023
  118OSM   C16S12405   3.100   5.498   8.211  0.5258 -0.1192 -0.5461
  118OSM   H16S12406   3.035   5.580   8.250  1.4913  0.3871  0.0026
  118OSM   H16T12407   3.182   5.498   8.286 -0.7834  1.8478  0.9299
  118OSM   C17S12408   3.020   5.371   8.206 -0.4974 -0.1014  0.0916
  118OSM   H17S12409   3.081   5.286   8.168  1.3173  0.6592  1.2557
  118OSM   H17T12410   2.930   5.384   8.142 -0.0791  0.7930 -0.3218
  118OSM   C18S12411   2.973   5.328   8.343  0.7485 -0.2599 -0.0706
  118OSM   H18S12412   2.925   5.411   8.399 -2.8293 -1.0721 -1.7953
  118OSM   H18T12413   3.054   5.282   8.404  1.2504  0.7933  0.0708
  118OSM   H18U12414   2.891   5.254   8.329  0.3225  0.4847 -1.6245
  118OSM    C1F12415   3.658   5.808   6.800  0.1297 -0.6755  0.5577
  118OSM     OF12416   3.648   5.926   6.766  0.1170 -0.1147  0.3848
  118OSM    C2F12417   3.786   5.755   6.864  0.0143  0.0139  0.2954
  118OSM    H2F12418   3.867   5.831   6.868  1.7081 -1.7934  1.6549
  118OSM    H2G12419   3.833   5.683   6.794  0.9154 -1.3176  2.2352
  118OSM    C3F12420   3.766   5.687   7.002 -0.2708 -0.1135  0.2764
  118OSM    H3F12421   3.866   5.682   7.050  0.7087  0.9924 -1.5398
  118OSM    H3G12422   3.731   5.584   6.983  0.7784 -0.4047 -0.0946
  118OSM    C4F12423   3.679   5.763   7.107 -0.4383  0.1674  0.2004
  118OSM    H4F12424   3.574   5.745   7.076 -0.4636  0.5174  0.0878
  118OSM    H4G12425   3.693   5.873   7.101  1.8074  0.1514  3.6792
  118OSM    C5F12426   3.695   5.709   7.248 -0.7566  0.0799 -0.0159
  118OSM    H5F12427   3.805   5.703   7.265 -1.0773  0.7258  2.4824
  118OSM    H5G12428   3.669   5.601   7.251  0.2136 -0.3539 -3.6828
  118OSM    C6F12429   3.622   5.780   7.359 -0.2140  0.9320  0.3093
  118OSM    H6F12430   3.512   5.777   7.347  0.0365  1.0079 -2.4539
  118OSM    H6G12431   3.638   5.890   7.352 -2.1606  1.1245 -1.3669
  118OSM    C7F12432   3.659   5.734   7.505  0.7137 -0.0720 -0.4113
  118OSM    H7F12433   3.768   5.751   7.522  0.4554  2.0915 -0.8014
  118OSM    H7G12434   3.627   5.628   7.496 -2.0290  0.7530 -0.8723
  118OSM    C8F12435   3.571   5.809   7.610 -0.2260  0.0862 -0.0925
  118OSM    H8F12436   3.468   5.770   7.594 -1.6031  2.7455  2.0461
  118OSM    H8G12437   3.549   5.914   7.580 -1.2184 -0.3671 -1.0254
  118OSM    C9F12438   3.631   5.796   7.742 -0.7038  0.4507 -0.1271
  118OSM    H9F12439   3.711   5.868   7.761 -0.8040  0.6838 -0.5785
  118OSM   C10F12440   3.585   5.719   7.837  0.1084  0.0186  0.0612
  118OSM   H10F12441   3.639   5.710   7.933 -0.8154 -1.1027  0.4845
  118OSM   C11F12442   3.472   5.615   7.834 -0.8179 -0.4335 -0.5023
  118OSM   H11F12443   3.428   5.606   7.732  0.8115 -1.5185 -1.1349
  118OSM   H11G12444   3.396   5.661   7.901 -0.9519 -0.3766 -0.6935
  118OSM   C12F12445   3.485   5.469   7.876  0.1139 -0.4337 -0.6504
  118OSM   H12F12446   3.548   5.425   7.796 -0.7317 -0.7808 -1.1389
  118OSM   H12G12447   3.391   5.413   7.855 -1.8059  2.6009 -0.4700
  118OSM   C13F12448   3.569   5.451   8.006 -0.2092 -0.3763  0.7701
  118OSM   H13F12449   3.671   5.492   7.989  0.0400 -0.5976  1.7453
  118OSM   H13G12450   3.572   5.341   8.017  0.2335 -0.4555 -0.0331
  118OSM   C14F12451   3.515   5.500   8.140  0.4477  0.9714  0.3077
  118OSM   H14F12452   3.426   5.437   8.163  0.4357  1.1161  0.6622
  118OSM   H14G12453   3.489   5.607   8.135 -2.0380  0.4226  1.0129
  118OSM   C15F12454   3.611   5.480   8.256 -0.5902 -0.7831  0.3213
  118OSM   H15F12455   3.698   5.548   8.263 -0.5247 -0.9069  0.7239
  118OSM   H15G12456   3.652   5.376   8.251  0.9775 -0.2073  0.9569
  118OSM   C16F12457   3.541   5.497   8.399 -0.2486  0.4980 -0.1968
  118OSM   H16F12458   3.605   5.447   8.475  0.3023 -1.0075 -1.6089
  118OSM   H16G12459   3.442   5.445   8.398  0.8462 -1.6522 -0.3247
  118OSM   C17F12460   3.523   5.640   8.438 -0.4287 -0.1192 -0.7250
  118OSM   H17F12461   3.458   5.698   8.369 -1.5797 -0.6759 -0.1292
  118OSM   H17G12462   3.618   5.698   8.437 -0.1122 -0.6292 -0.5957
  118OSM   C18F12463   3.459   5.652   8.573  0.8264  0.3195  0.1250
  118OSM   H18F12464   3.455   5.757   8.608  0.4270  1.7854 -4.0112
  118OSM   H18G12465   3.509   5.594   8.653  5.1913  4.1501  0.3891
  118OSM   H18H12466   3.353   5.623   8.559  0.9505  0.2414 -0.6809
  119OSM      N12467   4.131   5.677   5.789  0.4290  0.1079  0.3139
  119OSM    C1512468   4.149   5.715   5.642 -0.6909  0.0743  0.7600
  119OSM   H15A12469   4.135   5.821   5.628  2.8587  0.5680  0.3659
  119OSM   H15B12470   4.081   5.653   5.586 -1.2237 -1.2349  2.7941
  119OSM   H15C12471   4.247   5.688   5.603 -1.2274 -1.1122  0.2028
  119OSM    C1412472   4.002   5.732   5.834  0.0812 -0.3758  0.0099
  119OSM   H14A12473   3.977   5.671   5.920 -0.1171  0.4985  0.5727
  119OSM   H14B12474   3.930   5.713   5.757  0.9810 -3.1668 -0.2384
  119OSM   H14C12475   3.997   5.838   5.849 -0.0150 -0.2864 -0.6708
  119OSM    C1312476   4.129   5.523   5.801  0.9793 -0.4747 -0.0185
  119OSM   H13A12477   4.058   5.471   5.737  0.5313  1.0604 -0.7830
  119OSM   H13B12478   4.088   5.494   5.897  1.1759 -0.5471  0.0443
  119OSM   H13C12479   4.218   5.462   5.797  0.8589 -0.6290 -0.3571
  119OSM    C1212480   4.240   5.730   5.885 -0.2517 -0.2180 -0.2566
  119OSM   H12A12481   4.237   5.838   5.883 -0.2758 -0.1075  3.0942
  119OSM   H12B12482   4.336   5.692   5.855  0.7273  0.9769  1.3175
  119OSM    C1112483   4.235   5.680   6.035  0.1100  0.5290 -0.0541
  119OSM   H11A12484   4.135   5.690   6.083 -0.9185 -2.5810 -1.4160
  119OSM   H11B12485   4.301   5.740   6.101  0.3287 -0.3939  0.5787
  119OSM      P12486   4.414   5.502   5.986  0.1856  0.2680 -0.0632
  119OSM    O1312487   4.443   5.360   6.040  0.1874  0.0042 -0.6482
  119OSM    O1412488   4.412   5.508   5.839  0.2911 -0.9373 -0.1971
  119OSM    O1112489   4.521   5.610   6.037  0.2652 -0.3378  0.1269
  119OSM    O1212490   4.273   5.542   6.050 -0.1071 -0.6261  0.0889
  119OSM    C1S12491   4.571   5.591   6.174  0.4031  0.1554  0.0729
  119OSM    H1S12492   4.596   5.486   6.202  2.8294  0.7809  0.4068
  119OSM    H1T12493   4.493   5.624   6.246  0.7955  1.6547 -0.1851
  119OSM     NF12494   4.724   5.667   6.356  0.5299  0.5093 -0.4125
  119OSM    HNF12495   4.671   5.734   6.407  0.4247 -2.3020  3.3718
  119OSM    C2S12496   4.711   5.659   6.211 -0.0488 -0.1494  0.0128
  119OSM    H2S12497   4.798   5.603   6.170 -0.7210 -0.4659 -0.9909
  119OSM    C3S12498   4.725   5.801   6.144  0.4425 -0.0928 -0.1448
  119OSM    H3S12499   4.637   5.865   6.164 -0.2062 -0.9013 -0.3574
  119OSM     O312500   4.727   5.789   6.003 -0.1425  0.1531  0.1210
  119OSM    HO312501   4.682   5.707   5.979 -2.6419  1.0408  1.5719
  119OSM    C4S12502   4.856   5.870   6.200  0.3832  0.8070 -0.1377
  119OSM    H4S12503   4.949   5.843   6.147  0.7062  1.4386  0.1036
  119OSM    C5S12504   4.859   5.959   6.298 -0.0314 -0.3199  0.7170
  119OSM    H5S12505   4.760   5.986   6.339  0.3055  2.3450 -0.1317
  119OSM    C6S12506   4.988   6.022   6.344  0.3549 -0.5814 -1.4313
  119OSM    H6S12507   4.981   6.133   6.333  1.9749 -0.0303  2.5843
  119OSM    H6T12508   5.079   5.997   6.286  1.8891  1.4426  0.0748
  119OSM    C7S12509   5.023   6.001   6.494  0.4539  0.5629 -0.2849
  119OSM    H7S12510   4.949   6.053   6.558  0.4278 -2.1823  2.0608
  119OSM    H7T12511   5.124   6.041   6.516  0.0308  0.6232  1.6454
  119OSM    C8S12512   5.019   5.858   6.539  0.1003 -0.2887  0.1701
  119OSM    H8S12513   5.111   5.815   6.492 -1.3036 -1.0373 -1.9485
  119OSM    H8T12514   4.925   5.807   6.509  0.0588 -1.3295  1.9822
  119OSM    C9S12515   5.055   5.831   6.686 -0.0261 -0.0271  0.1476
  119OSM    H9S12516   5.150   5.883   6.711  0.4091  1.0779 -3.5212
  119OSM    H9T12517   5.079   5.723   6.699  1.6790  0.2023 -0.9186
  119OSM   C10S12518   4.952   5.873   6.801 -0.3498  0.0948  0.7484
  119OSM   H10S12519   4.850   5.832   6.780 -0.4710  1.3860 -1.2964
  119OSM   H10T12520   4.957   5.983   6.793  1.5859  0.0255  0.9837
  119OSM   C11S12521   5.003   5.842   6.940 -0.2638  0.8205 -1.2238
  119OSM   H11S12522   5.107   5.879   6.943  1.0761 -2.7307 -1.1021
  119OSM   H11T12523   5.015   5.734   6.964  0.2582  0.9818 -0.7495
  119OSM   C12S12524   4.906   5.914   7.044 -0.0572 -0.2934  0.2859
  119OSM   H12S12525   4.811   5.867   7.012  1.2773 -2.7620 -0.2326
  119OSM   H12T12526   4.895   6.024   7.032  1.8012  0.0710  1.6553
  119OSM   C13S12527   4.948   5.900   7.191 -0.0733  0.0731 -0.7543
  119OSM   H13S12528   5.058   5.896   7.197 -0.1286  0.3281  0.6968
  119OSM   H13T12529   4.907   5.805   7.231 -2.0132  1.4520  0.6675
  119OSM   C14S12530   4.906   6.026   7.265 -0.2932  0.7758 -0.5217
  119OSM   H14S12531   4.798   6.048   7.252 -0.9810 -2.6619 -1.1600
  119OSM   H14T12532   4.961   6.110   7.218 -0.2704  2.1907  1.9609
  119OSM   C15S12533   4.935   6.000   7.413 -0.4170 -1.0350  0.3191
  119OSM   H15S12534   5.046   6.000   7.422 -0.5605  0.1091  2.4752
  119OSM   H15T12535   4.882   5.906   7.438 -2.3436  0.4825  2.1222
  119OSM   C16S12536   4.882   6.110   7.503 -0.3766  0.9740 -0.6984
  119OSM   H16S12537   4.895   6.203   7.445  2.2047  0.6723 -0.6867
  119OSM   H16T12538   4.949   6.122   7.591  0.2651  0.6243 -1.1373
  119OSM   C17S12539   4.734   6.087   7.549  0.4765 -0.2357 -0.1466
  119OSM   H17S12540   4.688   6.033   7.464  2.2311 -1.5130 -0.2960
  119OSM   H17T12541   4.678   6.183   7.548 -0.9380 -1.0371  0.4405
  119OSM   C18S12542   4.699   6.011   7.666  0.6185  0.4147 -0.3858
  119OSM   H18S12543   4.762   6.039   7.753 -0.2162  0.0290  0.3532
  119OSM   H18T12544   4.723   5.905   7.644  1.8919  0.8259 -1.0127
  119OSM   H18U12545   4.593   6.023   7.696  0.3955 -1.8196 -0.1798
  119OSM    C1F12546   4.757   5.556   6.419 -0.0764  0.5514 -0.0950
  119OSM     OF12547   4.808   5.460   6.358  0.1663  0.0569  0.0447
  119OSM    C2F12548   4.718   5.548   6.564  0.8906 -0.0210  0.5035
  119OSM    H2F12549   4.812   5.559   6.622  1.6246  0.4592 -0.7582
  119OSM    H2G12550   4.679   5.446   6.584  0.5910 -0.0233 -0.1010
  119OSM    C3F12551   4.605   5.652   6.606 -0.1844  1.0754  0.2150
  119OSM    H3F12552   4.510   5.619   6.557 -0.0419  1.7575 -0.5357
  119OSM    H3G12553   4.638   5.748   6.561  3.1486  0.4253  1.1744
  119OSM    C4F12554   4.585   5.663   6.763  0.3423  0.2859 -0.6140
  119OSM    H4F12555   4.494   5.723   6.785  1.1828  0.9470  1.1799
  119OSM    H4G12556   4.674   5.712   6.809  0.5524 -1.0948  0.4945
  119OSM    C5F12557   4.568   5.527   6.829  0.4203  0.3463  0.3085
  119OSM    H5F12558   4.665   5.474   6.828  0.9890  1.3857  0.1841
  119OSM    H5G12559   4.484   5.469   6.783 -0.0866 -1.2129  3.0805
  119OSM    C6F12560   4.504   5.547   6.968  0.3347  0.0782  0.7246
  119OSM    H6F12561   4.499   5.450   7.021  0.9508 -0.6392 -0.4998
  119OSM    H6G12562   4.398   5.571   6.944  0.8182  0.7264 -0.8129
  119OSM    C7F12563   4.546   5.652   7.065 -0.3396 -0.0937  0.0275
  119OSM    H7F12564   4.529   5.755   7.025 -0.8945  0.3134  1.2992
  119OSM    H7G12565   4.656   5.640   7.077 -0.2859 -0.5454 -0.8757
  119OSM    C8F12566   4.475   5.648   7.203 -0.7976  0.3830  0.4447
  119OSM    H8F12567   4.486   5.546   7.245  0.0077 -0.8624 -2.6248
  119OSM    H8G12568   4.365   5.656   7.190 -0.6995 -1.4303 -1.9361
  119OSM    C9F12569   4.516   5.753   7.301  0.0992  0.3697 -0.9682
  119OSM    H9F12570   4.592   5.826   7.272  0.7451  0.1140  0.0535
  119OSM   C10F12571   4.459   5.763   7.420 -0.7388 -0.9217  0.5135
  119OSM   H10F12572   4.491   5.842   7.489 -1.0165  0.1172 -0.5239
  119OSM   C11F12573   4.358   5.673   7.481  0.1492  0.1723 -0.9175
  119OSM   H11F12574   4.307   5.613   7.403  2.0978 -1.6479 -0.8218
  119OSM   H11G12575   4.278   5.734   7.528 -1.6686 -2.0005 -1.1291
  119OSM   C12F12576   4.415   5.583   7.600 -0.0405 -0.4804 -0.1853
  119OSM   H12F12577   4.507   5.534   7.561  0.9563  1.8143 -0.7733
  119OSM   H12G12578   4.338   5.508   7.629 -1.4619  1.4960  1.2162
  119OSM   C13F12579   4.430   5.666   7.729  0.2203  0.4463  0.6586
  119OSM   H13F12580   4.345   5.737   7.742 -0.4178  0.2959 -2.2280
  119OSM   H13G12581   4.522   5.727   7.738  0.1124  0.9182 -1.2462
  119OSM   C14F12582   4.426   5.589   7.862 -0.8243  0.8059 -0.7605
  119OSM   H14F12583   4.518   5.527   7.862 -0.0298  1.9456  0.9040
  119OSM   H14G12584   4.344   5.516   7.851 -0.4116  0.5000 -1.9411
  119OSM   C15F12585   4.415   5.684   7.980 -0.4613  0.1874 -0.3405
  119OSM   H15F12586   4.325   5.748   7.965  0.8964  2.0500 -0.6234
  119OSM   H15G12587   4.487   5.767   7.994 -1.5116  1.3088 -1.4707
  119OSM   C16F12588   4.412   5.596   8.107  0.1077 -0.1500  0.2741
  119OSM   H16F12589   4.476   5.509   8.083 -2.9992 -1.9355 -1.8947
  119OSM   H16G12590   4.310   5.555   8.122  0.6757 -1.3889  0.7796
  119OSM   C17F12591   4.459   5.675   8.229  0.1130 -0.4056 -0.2692
  119OSM   H17F12592   4.568   5.696   8.221  0.2539  0.2563  2.7644
  119OSM   H17G12593   4.452   5.602   8.314 -0.2496 -1.2548 -1.0167
  119OSM   C18F12594   4.393   5.814   8.254 -0.5446 -0.7762  0.4037
  119OSM   H18F12595   4.283   5.802   8.265 -0.7582  1.7999  1.3925
  119OSM   H18G12596   4.427   5.886   8.176 -1.3222 -0.8505 -0.0123
  119OSM   H18H12597   4.430   5.860   8.348  0.4021 -0.3673 -0.1629
  120OSM      N12598   1.774   2.802   6.401 -0.2943  0.2960  0.9113
  120OSM    C1512599   1.895   2.882   6.422  0.2706 -0.3630  1.0636
  120OSM   H15A12600   1.898   2.915   6.525  0.0496 -1.2425  1.3607
  120OSM   H15B12601   1.905   2.968   6.359 -0.1194 -2.8238 -2.5284
  120OSM   H15C12602   1.989   2.838   6.393 -0.5158 -1.2191 -0.2333
  120OSM    C1412603   1.658   2.894   6.421  0.1703  0.1217 -0.1699
  120OSM   H14A12604   1.654   2.977   6.352  1.7148 -1.2762 -2.0287
  120OSM   H14B12605   1.662   2.940   6.519 -1.0212 -0.0496 -0.0397
  120OSM   H14C12606   1.564   2.842   6.416  1.9229 -3.2244  0.1830
  120OSM    C1312607   1.765   2.761   6.255  0.8941  0.0514 -0.6979
  120OSM   H13A12608   1.841   2.687   6.234 -0.9967 -1.5393 -2.2161
  120OSM   H13B12609   1.752   2.846   6.190 -2.0521 -1.0814 -1.6839
  120OSM   H13C12610   1.672   2.707   6.241  0.6415  0.3066 -0.0547
  120OSM    C1212611   1.765   2.682   6.495 -0.5011  0.9226  0.2425
  120OSM   H12A12612   1.677   2.629   6.462  0.2150  0.0389 -0.2949
  120OSM   H12B12613   1.757   2.721   6.595  0.8803 -0.0916  0.7804
  120OSM    C1112614   1.883   2.583   6.497  0.6093 -1.3721 -0.5393
  120OSM   H11A12615   1.859   2.517   6.583 -0.5844  0.1299  0.3104
  120OSM   H11B12616   1.977   2.639   6.520 -1.3441  1.2596  1.2597
  120OSM      P12617   2.001   2.410   6.340  0.5745  0.7209  0.1761
  120OSM    O1312618   1.944   2.287   6.280 -0.0269  0.1835  0.1800
  120OSM    O1412619   2.104   2.484   6.259  0.1761 -0.1295  0.7527
  120OSM    O1112620   2.062   2.362   6.476  0.4932  0.2119  0.2439
  120OSM    O1212621   1.890   2.510   6.374  0.4324  0.0235  0.0830
  120OSM    C1S12622   2.184   2.411   6.528 -0.5117 -0.1286 -0.8097
  120OSM    H1S12623   2.182   2.522   6.522  1.5719 -0.1608 -2.8957
  120OSM    H1T12624   2.276   2.370   6.482  0.0358 -0.5526  0.6083
  120OSM     NF12625   2.305   2.446   6.751  0.1153  0.1962  0.9185
  120OSM    HNF12626   2.384   2.386   6.761 -0.5787 -0.3021  3.8286
  120OSM    C2S12627   2.194   2.387   6.683 -0.1702 -0.1462 -0.0612
  120OSM    H2S12628   2.113   2.430   6.745  0.3203  1.3109 -0.4098
  120OSM    C3S12629   2.190   2.227   6.701  0.7622  0.7312  0.3835
  120OSM    H3S12630   2.286   2.189   6.661 -0.2453 -1.0670 -0.4165
  120OSM     O312631   2.088   2.159   6.634  0.8263 -0.0062  0.6240
  120OSM    HO312632   2.063   2.227   6.571 -0.8587  1.6932  2.9927
  120OSM    C4S12633   2.187   2.182   6.844 -0.0529 -0.1180  0.0655
  120OSM    H4S12634   2.105   2.226   6.903  1.1522  0.7051  1.1481
  120OSM    C5S12635   2.267   2.103   6.913 -0.7741 -1.0056 -0.4843
  120OSM    H5S12636   2.358   2.077   6.857 -0.8143  0.8948 -1.4918
  120OSM    C6S12637   2.254   2.080   7.055 -0.1224 -0.1204 -0.0144
  120OSM    H6S12638   2.339   2.014   7.083 -1.0527  0.2396  4.0159
  120OSM    H6T12639   2.159   2.025   7.072  2.3573 -3.7641  2.7861
  120OSM    C7S12640   2.270   2.195   7.142  1.0751  0.4028 -0.0265
  120OSM    H7S12641   2.196   2.271   7.110  0.6920  0.6722  1.4664
  120OSM    H7T12642   2.373   2.236   7.134  0.6422  2.0657  2.4068
  120OSM    C8S12643   2.248   2.161   7.292  0.6930  0.3292 -0.2458
  120OSM    H8S12644   2.260   2.256   7.348 -0.0088  0.7274 -0.7639
  120OSM    H8T12645   2.322   2.081   7.316 -1.4559 -2.1801 -1.6842
  120OSM    C9S12646   2.108   2.110   7.334  0.2066  0.7025 -0.6807
  120OSM    H9S12647   2.104   2.010   7.287  1.1382  0.4605 -0.2680
  120OSM    H9T12648   2.030   2.176   7.291  0.3608  1.7269  0.5384
  120OSM   C10S12649   2.088   2.100   7.485 -0.8651  0.3383  0.1391
  120OSM   H10S12650   1.990   2.057   7.514  0.8183 -3.7345  0.1789
  120OSM   H10T12651   2.105   2.197   7.535  1.5896 -0.3448  0.7082
  120OSM   C11S12652   2.184   1.997   7.541 -0.6065 -0.2916  0.8166
  120OSM   H11S12653   2.287   2.038   7.538 -0.0415 -1.7719 -0.4341
  120OSM   H11T12654   2.181   1.900   7.488  2.7084 -0.1570  0.3124
  120OSM   C12S12655   2.142   1.962   7.683  0.4819  1.1290  0.0201
  120OSM   H12S12656   2.054   1.895   7.672  0.6174  1.1333 -1.1531
  120OSM   H12T12657   2.116   2.057   7.734 -2.4973  0.9417 -1.0368
  120OSM   C13S12658   2.245   1.879   7.765 -0.2282 -0.2951  0.3322
  120OSM   H13S12659   2.330   1.945   7.792  0.0804 -0.9105  0.8523
  120OSM   H13T12660   2.279   1.796   7.700  0.3137  0.5391 -0.4763
  120OSM   C14S12661   2.178   1.818   7.892  0.7744  0.3974 -0.1791
  120OSM   H14S12662   2.103   1.743   7.860 -0.3495  2.6127 -2.9366
  120OSM   H14T12663   2.130   1.903   7.945 -0.8088 -0.5549 -0.0421
  120OSM   C15S12664   2.289   1.769   7.994 -0.4911  0.7631  0.1577
  120OSM   H15S12665   2.350   1.855   8.030 -0.0058  1.6452 -2.6946
  120OSM   H15T12666   2.348   1.688   7.947 -1.3706  0.6325 -0.7281
  120OSM   C16S12667   2.221   1.706   8.118 -0.5528 -0.5127 -0.1975
  120OSM   H16S12668   2.162   1.617   8.088  1.9752 -1.6858 -1.9167
  120OSM   H16T12669   2.151   1.784   8.154 -0.7651 -0.4881 -0.6553
  120OSM   C17S12670   2.314   1.666   8.228 -0.5196 -0.1197  0.8051
  120OSM   H17S12671   2.377   1.752   8.261 -2.9534  2.4300 -1.0212
  120OSM   H17T12672   2.383   1.584   8.197 -2.2855 -0.0741 -3.5379
  120OSM   C18S12673   2.244   1.601   8.342 -0.4480  0.3588 -0.3495
  120OSM   H18S12674   2.200   1.503   8.316 -0.2779 -0.0290  0.8021
  120OSM   H18T12675   2.160   1.671   8.365 -0.4817  0.1003  0.3357
  120OSM   H18U12676   2.303   1.599   8.437  1.3647  0.9547 -1.4343
  120OSM    C1F12677   2.311   2.575   6.757 -0.3698  0.3247  0.5868
  120OSM     OF12678   2.231   2.653   6.703 -0.6735 -0.1197  0.5269
  120OSM    C2F12679   2.427   2.617   6.840  1.1090  0.2943 -0.6518
  120OSM    H2F12680   2.472   2.709   6.798  1.7013 -0.3963 -1.5508
  120OSM    H2G12681   2.497   2.531   6.843  0.3011 -0.3493  0.2796
  120OSM    C3F12682   2.380   2.664   6.979  0.1279 -0.3993 -0.0436
  120OSM    H3F12683   2.294   2.734   6.975 -0.3150 -0.8601  1.4112
  120OSM    H3G12684   2.458   2.714   7.039 -1.6366  1.3226  0.8580
  120OSM    C4F12685   2.317   2.548   7.055 -0.3340  0.3088  0.6510
  120OSM    H4F12686   2.390   2.464   7.064 -0.0362  0.4490 -0.3691
  120OSM    H4G12687   2.232   2.512   6.993 -0.7212 -0.5368  1.6571
  120OSM    C5F12688   2.267   2.590   7.199  0.1058  0.3767 -0.0724
  120OSM    H5F12689   2.219   2.500   7.245  0.2442  0.2286 -0.2149
  120OSM    H5G12690   2.187   2.666   7.188  1.0995  1.5371  0.6882
  120OSM    C6F12691   2.376   2.645   7.293 -0.2730  0.5279 -0.0485
  120OSM    H6F12692   2.408   2.743   7.252 -0.8760  0.9360  0.4505
  120OSM    H6G12693   2.463   2.576   7.287 -1.1388 -0.4732 -1.2762
  120OSM    C7F12694   2.344   2.638   7.443  0.4851 -0.1741  0.0582
  120OSM    H7F12695   2.437   2.662   7.499  0.7489 -0.4566 -0.2577
  120OSM    H7G12696   2.315   2.533   7.463 -1.4054  0.2930 -0.1203
  120OSM    C8F12697   2.232   2.739   7.482  1.1453 -0.1846 -0.8815
  120OSM    H8F12698   2.212   2.708   7.586  3.9188  1.9472  0.3757
  120OSM    H8G12699   2.149   2.708   7.415 -0.0825  2.5396 -0.7015
  120OSM    C9F12700   2.256   2.889   7.478  0.0312  0.5507  0.2870
  120OSM    H9F12701   2.264   2.944   7.383 -4.3918  0.9068  0.0261
  120OSM   C10F12702   2.282   2.963   7.587  0.4057  0.0423 -0.5361
  120OSM   H10F12703   2.300   3.070   7.570  1.2443 -0.3800 -2.4854
  120OSM   C11F12704   2.271   2.921   7.735 -0.7725 -0.3180 -0.1842
  120OSM   H11F12705   2.316   3.007   7.789 -0.4531 -0.7535  0.2483
  120OSM   H11G12706   2.329   2.827   7.753  0.7250  0.5252 -0.4735
  120OSM   C12F12707   2.132   2.916   7.792  0.2010 -0.0660  0.1876
  120OSM   H12F12708   2.063   2.866   7.720  0.5934 -1.2189  0.5968
  120OSM   H12G12709   2.097   3.020   7.806  0.3465 -0.0099  0.1358
  120OSM   C13F12710   2.130   2.823   7.921  0.4030 -0.7552 -0.0883
  120OSM   H13F12711   2.173   2.720   7.916  0.2693 -0.8211  0.1164
  120OSM   H13G12712   2.025   2.802   7.948  0.7153 -1.0319  0.9464
  120OSM   C14F12713   2.214   2.879   8.037 -0.0438  0.3088 -0.0497
  120OSM   H14F12714   2.173   2.979   8.061 -0.5905  0.0628  0.0634
  120OSM   H14G12715   2.320   2.888   8.005  0.6485 -0.6800  1.8230
  120OSM   C15F12716   2.212   2.796   8.165  0.0292  0.0531 -0.6170
  120OSM   H15F12717   2.298   2.832   8.225 -1.1431 -0.9002  1.6822
  120OSM   H15G12718   2.223   2.688   8.142 -1.9040  0.5119 -4.0460
  120OSM   C16F12719   2.089   2.813   8.257 -0.4154 -0.3347 -0.5799
  120OSM   H16F12720   1.990   2.782   8.217  0.5012 -0.6675 -2.6352
  120OSM   H16G12721   2.079   2.924   8.257 -0.0693 -0.2935 -1.8589
  120OSM   C17F12722   2.100   2.764   8.404  0.1340  0.5261  0.6699
  120OSM   H17F12723   2.065   2.848   8.467 -1.0629  0.0692  0.6283
  120OSM   H17G12724   2.208   2.760   8.429  0.0784  0.4973  0.9044
  120OSM   C18F12725   2.020   2.635   8.424 -0.4048 -0.1676 -0.3163
  120OSM   H18F12726   2.047   2.552   8.355  2.5206 -0.8617  1.5429
  120OSM   H18G12727   1.911   2.653   8.419 -0.0847  2.9711  2.4136
  120OSM   H18H12728   2.030   2.587   8.523 -0.4654 -1.4439 -0.9252
  121OSM      N12729   4.615   4.783   6.113 -0.7291 -0.2400  0.2229
  121OSM    C1512730   4.685   4.664   6.063 -0.2446  0.7452 -0.2547
  121OSM   H15A12731   4.683   4.649   5.956 -2.2813 -0.4845 -0.0882
  121OSM   H15B12732   4.635   4.577   6.104 -1.3018  1.1734 -0.6057
  121OSM   H15C12733   4.790   4.663   6.086 -0.6711 -0.9252  1.7512
  121OSM    C1412734   4.598   4.773   6.259 -0.3571 -0.0785  0.0581
  121OSM   H14A12735   4.520   4.705   6.288 -0.1097 -1.3387 -2.1025
  121OSM   H14B12736   4.556   4.865   6.297 -0.1976  0.6602 -1.5144
  121OSM   H14C12737   4.693   4.755   6.307  0.0824 -0.0108 -0.7712
  121OSM    C1312738   4.706   4.898   6.072 -0.0222 -0.1795 -0.7932
  121OSM   H13A12739   4.672   4.992   6.111  1.1611  0.9232 -2.3747
  121OSM   H13B12740   4.729   4.903   5.966  2.3993  0.9284 -0.2440
  121OSM   H13C12741   4.806   4.874   6.107 -0.9675 -2.0577  0.7227
  121OSM    C1212742   4.488   4.793   6.037  0.8880 -0.1204  0.8706
  121OSM   H12A12743   4.508   4.828   5.937  1.3754  1.2151  1.4188
  121OSM   H12B12744   4.422   4.869   6.076 -0.7455 -1.7294  1.3411
  121OSM    C1112745   4.384   4.671   6.044 -0.0292 -0.2619  0.3913
  121OSM   H11A12746   4.444   4.578   6.036  0.8381  0.3225  0.0937
  121OSM   H11B12747   4.309   4.675   5.962 -0.5998  0.8959  0.9433
  121OSM      P12748   4.178   4.696   6.196 -0.1505 -0.0184  0.0742
  121OSM    O1312749   4.173   4.838   6.148 -0.2902  0.0007  0.2104
  121OSM    O1412750   4.090   4.592   6.138  0.3494  0.0325  0.0187
  121OSM    O1112751   4.170   4.692   6.350  0.2173 -0.5211 -0.3667
  121OSM    O1212752   4.320   4.652   6.166 -0.2851 -0.6967  0.6001
  121OSM    C1S12753   4.273   4.642   6.441 -0.4559 -0.1080 -0.3360
  121OSM    H1S12754   4.345   4.725   6.452 -0.3973 -0.2695  0.5041
  121OSM    H1T12755   4.317   4.546   6.403  0.2310  0.3773 -0.7864
  121OSM     NF12756   4.330   4.552   6.658  0.0561 -0.0358 -0.2278
  121OSM    HNF12757   4.331   4.453   6.667  2.5586  0.0967  1.2934
  121OSM    C2S12758   4.218   4.584   6.573 -0.3929 -0.3080 -0.1677
  121OSM    H2S12759   4.158   4.662   6.625 -1.6016 -1.7455  0.6509
  121OSM    C3S12760   4.107   4.475   6.551 -0.5565 -0.6804 -0.1352
  121OSM    H3S12761   4.150   4.398   6.484  0.3676  2.5581 -3.4357
  121OSM     O312762   3.995   4.522   6.473 -0.0070 -0.1832 -0.3431
  121OSM    HO312763   4.028   4.594   6.418  1.8085 -1.0568 -0.4281
  121OSM    C4S12764   4.059   4.418   6.684 -0.3678 -0.0019  0.4017
  121OSM    H4S12765   4.106   4.327   6.725 -0.7542 -0.4366 -0.1162
  121OSM    C5S12766   3.962   4.478   6.760  0.2074  0.4385 -0.1401
  121OSM    H5S12767   3.915   4.571   6.726  0.9473 -0.1620 -2.9977
  121OSM    C6S12768   3.936   4.408   6.894  0.1273 -0.2806 -0.2866
  121OSM    H6S12769   4.021   4.347   6.930 -0.8191 -0.1717  2.1984
  121OSM    H6T12770   3.856   4.331   6.887 -0.1920 -0.2361  2.4951
  121OSM    C7S12771   3.908   4.497   7.016 -0.3629  0.5782 -0.0285
  121OSM    H7S12772   3.826   4.567   6.988 -1.3255 -0.4010  0.3462
  121OSM    H7T12773   3.999   4.560   7.024  0.3669 -0.5154  0.3950
  121OSM    C8S12774   3.886   4.410   7.142  0.4274  0.2004 -0.3102
  121OSM    H8S12775   3.956   4.325   7.126 -0.4373 -0.5151 -0.3220
  121OSM    H8T12776   3.782   4.374   7.127  1.1297 -2.4587  1.0377
  121OSM    C9S12777   3.927   4.494   7.259 -0.1293 -0.1177  0.4222
  121OSM    H9S12778   3.883   4.596   7.252 -2.0644 -0.9525 -0.0386
  121OSM    H9T12779   4.035   4.512   7.273 -0.3174  2.0032 -0.5266
  121OSM   C10S12780   3.882   4.431   7.390 -0.1413  1.2316 -0.4545
  121OSM   H10S12781   3.931   4.333   7.410 -2.4981 -0.5144 -2.9053
  121OSM   H10T12782   3.774   4.405   7.380  0.1937 -0.9935  1.2167
  121OSM   C11S12783   3.911   4.523   7.512  0.9072  0.0894  0.7695
  121OSM   H11S12784   3.895   4.627   7.478 -0.7485 -0.1836  0.6876
  121OSM   H11T12785   4.018   4.516   7.542  1.1219 -0.4933 -0.1022
  121OSM   C12S12786   3.838   4.489   7.635 -0.0882 -0.6276 -0.0545
  121OSM   H12S12787   3.853   4.380   7.648  0.4473 -0.7098 -1.3450
  121OSM   H12T12788   3.731   4.512   7.613  0.5593  0.8375 -1.8331
  121OSM   C13S12789   3.882   4.565   7.761 -0.1796  0.5387 -0.1284
  121OSM   H13S12790   3.907   4.671   7.738  0.7284  0.1602 -0.9779
  121OSM   H13T12791   3.977   4.524   7.801 -0.1708  1.7345  1.1383
  121OSM   C14S12792   3.780   4.547   7.875  0.0521 -0.5881  0.5177
  121OSM   H14S12793   3.746   4.442   7.881  2.1330 -1.2566  1.1214
  121OSM   H14T12794   3.688   4.603   7.848  0.6399 -0.3819 -1.0879
  121OSM   C15S12795   3.819   4.587   8.015 -0.5883 -0.3944  0.0629
  121OSM   H15S12796   3.919   4.545   8.038  0.1742 -0.7755 -3.6576
  121OSM   H15T12797   3.735   4.557   8.081  0.3721  2.1597  2.5339
  121OSM   C16S12798   3.843   4.739   8.031  0.7419  0.0772  0.5317
  121OSM   H16S12799   3.754   4.790   7.987  1.4178 -2.6622 -4.2480
  121OSM   H16T12800   3.927   4.784   7.976  0.3840  0.2689  0.1414
  121OSM   C17S12801   3.859   4.778   8.179  0.2777 -0.7814 -0.3282
  121OSM   H17S12802   3.883   4.886   8.173 -1.3227 -0.4972 -2.2958
  121OSM   H17T12803   3.941   4.719   8.225  0.6003 -1.7284 -2.0549
  121OSM   C18S12804   3.736   4.777   8.274  0.4977  0.0547 -1.6612
  121OSM   H18S12805   3.677   4.683   8.266  0.5173 -0.0039 -1.1443
  121OSM   H18T12806   3.665   4.857   8.245  0.4264  1.7295  2.7885
  121OSM   H18U12807   3.757   4.797   8.381 -0.6453 -3.9017 -0.5872
  121OSM    C1F12808   4.431   4.643   6.692  0.1982 -0.2711 -0.0552
  121OSM     OF12809   4.418   4.761   6.677 -0.6615 -0.3502 -0.6598
  121OSM    C2F12810   4.547   4.576   6.755  0.2200  0.4900 -0.1262
  121OSM    H2F12811   4.639   4.609   6.702 -0.5399  1.1069 -1.0576
  121OSM    H2G12812   4.541   4.466   6.761  2.9001  0.0558 -3.9448
  121OSM    C3F12813   4.574   4.625   6.899 -0.7270  0.3766 -0.8353
  121OSM    H3F12814   4.574   4.736   6.904 -0.4828  0.3806 -0.9241
  121OSM    H3G12815   4.671   4.577   6.926 -0.1853  0.7473 -2.0728
  121OSM    C4F12816   4.460   4.591   6.991  0.3459  0.7798  0.2766
  121OSM    H4F12817   4.427   4.486   6.977 -0.7352  0.9860  1.1400
  121OSM    H4G12818   4.366   4.648   6.976 -0.9946 -0.9353  1.8061
  121OSM    C5F12819   4.491   4.607   7.137  0.4087 -0.7208  0.2290
  121OSM    H5F12820   4.490   4.715   7.161 -2.1644 -0.7130  0.2141
  121OSM    H5G12821   4.588   4.553   7.138  0.7384 -0.1759 -1.1149
  121OSM    C6F12822   4.405   4.536   7.243 -0.1947 -0.1056 -0.7442
  121OSM    H6F12823   4.375   4.432   7.216  3.3760 -1.7802  1.4942
  121OSM    H6G12824   4.303   4.579   7.253 -0.8629 -1.0356 -3.0300
  121OSM    C7F12825   4.473   4.527   7.384 -0.5071  0.1904  0.2919
  121OSM    H7F12826   4.511   4.630   7.404  0.0402  0.0246  0.0995
  121OSM    H7G12827   4.566   4.468   7.377 -0.7585 -0.3176  1.2233
  121OSM    C8F12828   4.383   4.480   7.495 -0.2042 -0.6959  0.3830
  121OSM    H8F12829   4.336   4.380   7.483  0.5517 -1.1844  1.4492
  121OSM    H8G12830   4.298   4.552   7.495 -0.4410 -0.9731 -0.5682
  121OSM    C9F12831   4.466   4.490   7.626 -0.0626 -0.0549 -1.2150
  121OSM    H9F12832   4.575   4.508   7.620  0.1382 -0.2927  1.0533
  121OSM   C10F12833   4.416   4.492   7.749 -0.2238  0.6256 -0.5583
  121OSM   H10F12834   4.481   4.499   7.837  1.7360  0.0250 -1.9209
  121OSM   C11F12835   4.267   4.493   7.785  0.1776  0.1210 -0.2017
  121OSM   H11F12836   4.237   4.396   7.831  0.7993  1.2278  2.6266
  121OSM   H11G12837   4.204   4.510   7.696 -0.4678 -3.5138 -0.5504
  121OSM   C12F12838   4.222   4.604   7.881 -0.0742  0.0296 -0.5048
  121OSM   H12F12839   4.139   4.565   7.943  0.3284  1.1219  0.7398
  121OSM   H12G12840   4.169   4.683   7.824  0.0230  0.9570  0.6669
  121OSM   C13F12841   4.330   4.652   7.978  0.2692  0.5160  0.8916
  121OSM   H13F12842   4.409   4.704   7.921  1.5645 -0.6046  1.6529
  121OSM   H13G12843   4.375   4.574   8.043  1.7603  1.1882  0.6874
  121OSM   C14F12844   4.266   4.754   8.065  0.7491  0.1108 -0.4894
  121OSM   H14F12845   4.172   4.716   8.111  1.1082 -1.4320 -0.9902
  121OSM   H14G12846   4.245   4.844   8.004 -1.8193  1.0439  1.6717
  121OSM   C15F12847   4.351   4.816   8.176 -0.1552  0.1633  0.4123
  121OSM   H15F12848   4.371   4.743   8.257  0.9125 -1.1592 -1.0153
  121OSM   H15G12849   4.292   4.904   8.210  1.1988  1.4217 -0.4399
  121OSM   C16F12850   4.492   4.863   8.129  0.6198 -0.3326 -0.3202
  121OSM   H16F12851   4.475   4.938   8.048 -0.8556 -0.1317  0.1609
  121OSM   H16G12852   4.549   4.784   8.076  0.6027 -0.3385 -0.3319
  121OSM   C17F12853   4.592   4.924   8.231 -0.2778 -0.0248  0.1603
  121OSM   H17F12854   4.679   4.951   8.167 -1.3756  1.6375 -0.6655
  121OSM   H17G12855   4.614   4.858   8.317  1.6566  0.6556  0.2172
  121OSM   C18F12856   4.542   5.061   8.292  0.4135 -0.0771 -0.5833
  121OSM   H18F12857   4.544   5.141   8.214  2.1090 -0.1675 -0.6405
  121OSM   H18G12858   4.604   5.096   8.377  0.9771 -1.3108 -0.4888
  121OSM   H18H12859   4.437   5.053   8.329  0.8649  5.0319  2.2872
  122OSM      N12860   2.430   6.478   5.795 -0.0560 -0.5464 -0.1571
  122OSM    C1512861   2.366   6.563   5.689  0.2804  0.8461  0.5021
  122OSM   H15A12862   2.379   6.670   5.691 -0.6820  0.9757  0.2694
  122OSM   H15B12863   2.258   6.558   5.683  0.3884  0.2746 -1.3159
  122OSM   H15C12864   2.409   6.535   5.594 -2.6806 -1.8208 -0.1573
  122OSM    C1412865   2.351   6.496   5.923 -0.1815 -0.2168 -0.3468
  122OSM   H14A12866   2.354   6.417   5.997 -0.7249  0.4405  0.3911
  122OSM   H14B12867   2.248   6.508   5.892 -0.1205  0.5163 -0.2864
  122OSM   H14C12868   2.378   6.587   5.974 -0.3185 -0.9883  1.1262
  122OSM    C1312869   2.433   6.340   5.753 -0.2606 -0.2258 -0.6263
  122OSM   H13A12870   2.334   6.300   5.739  0.5433 -2.5049 -0.0786
  122OSM   H13B12871   2.491   6.287   5.827  1.2186  0.2202 -1.4355
  122OSM   H13C12872   2.482   6.318   5.659  1.0664 -4.2534  0.8809
  122OSM    C1212873   2.567   6.533   5.824 -0.4819 -0.4561  0.4039
  122OSM   H12A12874   2.554   6.632   5.866  0.6042  0.3428 -1.1181
  122OSM   H12B12875   2.607   6.536   5.724  0.0498 -0.6822  0.6109
  122OSM    C1112876   2.662   6.442   5.903 -0.6746 -0.2966 -0.8475
  122OSM   H11A12877   2.754   6.502   5.917 -0.5796 -1.0237  1.9920
  122OSM   H11B12878   2.700   6.359   5.840  1.5479 -0.1042  0.1931
  122OSM      P12879   2.633   6.256   6.076 -0.1511  0.0235  0.1825
  122OSM    O1312880   2.567   6.172   5.969  0.3545  0.0712  0.4068
  122OSM    O1412881   2.775   6.227   6.101 -0.0993  0.0103 -0.1977
  122OSM    O1112882   2.554   6.257   6.213  0.0115 -0.1137 -0.2198
  122OSM    O1212883   2.624   6.409   6.029  0.2357 -0.5704 -0.0797
  122OSM    C1S12884   2.573   6.152   6.312  0.0667 -0.0907  0.0090
  122OSM    H1S12885   2.600   6.054   6.267 -0.2198  0.4564 -1.3843
  122OSM    H1T12886   2.477   6.117   6.357 -0.9077 -0.2986 -2.1450
  122OSM     NF12887   2.711   6.081   6.501  0.3056 -0.4335 -0.3708
  122OSM    HNF12888   2.663   6.073   6.589 -1.3106 -1.2182 -1.2969
  122OSM    C2S12889   2.679   6.198   6.418  0.4809  0.4810  0.1672
  122OSM    H2S12890   2.764   6.232   6.355 -0.6607  3.4228  0.1519
  122OSM    C3S12891   2.631   6.331   6.487 -0.5670 -0.5126 -0.0208
  122OSM    H3S12892   2.530   6.300   6.521 -0.2312 -0.7655  0.7583
  122OSM     O312893   2.636   6.448   6.409  0.0231  0.2276 -0.0631
  122OSM    HO312894   2.625   6.406   6.323  1.4386  1.6023 -0.9238
  122OSM    C4S12895   2.731   6.360   6.593  0.1034  0.1207 -0.4197
  122OSM    H4S12896   2.834   6.389   6.567  0.4579  0.3318  1.1867
  122OSM    C5S12897   2.701   6.362   6.725  0.6243 -0.5050  0.3237
  122OSM    H5S12898   2.597   6.332   6.744  0.8799  0.3830  3.5921
  122OSM    C6S12899   2.804   6.386   6.840 -0.4084  0.0150 -0.0115
  122OSM    H6S12900   2.804   6.301   6.911  2.2152 -0.8204 -0.9685
  122OSM    H6T12901   2.770   6.481   6.886  1.2718 -0.0585  1.4118
  122OSM    C7S12902   2.947   6.417   6.799 -0.2942  0.4205  1.3263
  122OSM    H7S12903   2.934   6.505   6.732 -1.0286  0.0617  0.9956
  122OSM    H7T12904   2.978   6.322   6.750  1.0713  2.3595 -1.6908
  122OSM    C8S12905   3.058   6.448   6.909  0.4257 -0.0519 -0.2550
  122OSM    H8S12906   3.137   6.510   6.861 -1.4738  2.5526 -0.1288
  122OSM    H8T12907   3.100   6.349   6.936 -0.1888 -0.6554 -1.4504
  122OSM    C9S12908   3.014   6.553   7.016 -0.0271 -0.3064 -0.5273
  122OSM    H9S12909   2.907   6.548   7.046  0.5023  1.1347  1.7865
  122OSM    H9T12910   3.030   6.647   6.959 -0.4927 -0.6042 -1.1571
  122OSM   C10S12911   3.095   6.541   7.146  0.6189 -0.3169 -0.1715
  122OSM   H10S12912   3.204   6.544   7.126  1.0703 -4.1879  1.2729
  122OSM   H10T12913   3.087   6.440   7.191  0.2378 -0.4634 -0.5634
  122OSM   C11S12914   3.058   6.646   7.247 -0.7179 -0.3467 -0.6557
  122OSM   H11S12915   2.969   6.711   7.231  0.4198  1.2302 -0.7253
  122OSM   H11T12916   3.148   6.710   7.259 -0.6184 -0.7341  0.7425
  122OSM   C12S12917   3.021   6.570   7.388  0.3536 -0.3659 -0.0211
  122OSM   H12S12918   3.093   6.491   7.415  0.8645 -0.1283 -0.6641
  122OSM   H12T12919   2.921   6.521   7.383  1.0753 -1.8968  0.5590
  122OSM   C13S12920   3.022   6.671   7.508 -0.5088 -0.4108  1.0510
  122OSM   H13S12921   2.947   6.750   7.486 -1.1194 -1.3254 -0.2119
  122OSM   H13T12922   3.125   6.714   7.513 -0.7372  0.2668  0.0920
  122OSM   C14S12923   2.988   6.607   7.632  0.5804 -0.7006  0.2272
  122OSM   H14S12924   3.029   6.505   7.645  2.9690 -0.1971 -2.7733
  122OSM   H14T12925   2.879   6.586   7.629  0.1507  0.9768  2.3555
  122OSM   C15S12926   3.013   6.689   7.760 -0.8979 -1.0785 -0.2790
  122OSM   H15S12927   2.969   6.790   7.748  0.7436  0.0517  2.5186
  122OSM   H15T12928   3.120   6.718   7.749 -0.7479 -1.3315  0.4409
  122OSM   C16S12929   2.993   6.622   7.898  0.7832  0.3863 -0.7341
  122OSM   H16S12930   2.884   6.608   7.911  0.8273  0.9655  0.3514
  122OSM   H16T12931   3.025   6.698   7.973 -1.0880  0.4114  0.0624
  122OSM   C17S12932   3.080   6.498   7.918 -0.0378  0.0066 -0.5579
  122OSM   H17S12933   3.174   6.529   7.869  0.3173  0.4272  0.3924
  122OSM   H17T12934   3.039   6.410   7.863  0.8095 -0.3975 -0.5517
  122OSM   C18S12935   3.122   6.470   8.061  0.8864 -0.7298 -0.4444
  122OSM   H18S12936   3.033   6.468   8.128  0.6247  3.0107 -0.5630
  122OSM   H18T12937   3.197   6.543   8.099  0.6654 -0.7266 -0.0084
  122OSM   H18U12938   3.179   6.375   8.053 -0.1785 -1.4589  0.5104
  122OSM    C1F12939   2.786   5.980   6.465 -0.4572  0.2233 -0.4036
  122OSM     OF12940   2.832   5.975   6.354  0.2616 -0.1991  0.9927
  122OSM    C2F12941   2.804   5.869   6.571  0.6040 -0.1859 -0.4308
  122OSM    H2F12942   2.867   5.787   6.529  0.6010 -0.2489 -0.3142
  122OSM    H2G12943   2.699   5.839   6.590  1.0403 -2.7779 -1.8291
  122OSM    C3F12944   2.872   5.926   6.692  0.0872  0.6818 -0.6798
  122OSM    H3F12945   2.831   6.027   6.711  1.4666  0.9209  1.1435
  122OSM    H3G12946   2.981   5.932   6.668 -0.3702 -1.4672 -3.6280
  122OSM    C4F12947   2.871   5.841   6.825  0.6026  0.0590  0.5428
  122OSM    H4F12948   2.907   5.742   6.789  0.1721  0.3865 -0.8159
  122OSM    H4G12949   2.767   5.837   6.864  1.0431  0.0092  1.7382
  122OSM    C5F12950   2.979   5.891   6.927  0.4035  0.0061  0.3179
  122OSM    H5F12951   3.077   5.889   6.875  0.2851 -1.1386  0.1170
  122OSM    H5G12952   2.973   5.822   7.013 -0.2772 -1.2427 -0.7111
  122OSM    C6F12953   2.947   6.029   6.972  0.3406 -0.6288  0.0241
  122OSM    H6F12954   2.839   6.029   6.995  0.3369 -0.1426  0.0049
  122OSM    H6G12955   2.977   6.097   6.889  1.0445  0.2650  0.9902
  122OSM    C7F12956   3.037   6.067   7.096  0.5845  0.2923  0.2240
  122OSM    H7F12957   3.084   6.166   7.081  0.7528 -0.0996 -1.9467
  122OSM    H7G12958   3.117   5.991   7.081 -1.9637 -2.5589  0.4515
  122OSM    C8F12959   2.949   6.059   7.226 -0.1946  0.2404  0.4532
  122OSM    H8F12960   3.011   6.034   7.315  0.1400 -2.0623 -0.3866
  122OSM    H8G12961   2.891   5.966   7.209 -0.0199  0.5603 -2.0989
  122OSM    C9F12962   2.860   6.173   7.244 -0.7216 -0.2156 -0.8702
  122OSM    H9F12963   2.824   6.214   7.149 -0.2309 -0.2288 -1.0626
  122OSM   C10F12964   2.825   6.243   7.359 -0.2193 -0.0392  0.9892
  122OSM   H10F12965   2.772   6.339   7.356  1.0718  0.6922  0.7387
  122OSM   C11F12966   2.874   6.210   7.500 -0.1921  0.9591  0.6867
  122OSM   H11F12967   2.879   6.305   7.557  3.0884  0.6515  0.9946
  122OSM   H11G12968   2.983   6.187   7.506 -0.6034 -0.9804  0.7551
  122OSM   C12F12969   2.791   6.112   7.581 -0.6148 -1.0854 -0.2582
  122OSM   H12F12970   2.826   6.011   7.551  0.0482 -1.3670  1.3926
  122OSM   H12G12971   2.683   6.123   7.556 -0.0525 -0.1606 -2.2889
  122OSM   C13F12972   2.810   6.127   7.736 -0.6415  0.3712 -0.7613
  122OSM   H13F12973   2.768   6.225   7.763  1.1976  1.1468 -0.6196
  122OSM   H13G12974   2.918   6.123   7.765 -1.2974  0.2468  1.8390
  122OSM   C14F12975   2.732   6.020   7.809 -0.4294 -0.0505 -0.5153
  122OSM   H14F12976   2.748   5.918   7.769 -0.0497 -0.3449  0.3844
  122OSM   H14G12977   2.625   6.049   7.801 -0.2757  0.9087  0.7483
  122OSM   C15F12978   2.766   6.034   7.955  0.7033 -0.1067 -0.4105
  122OSM   H15F12979   2.770   6.143   7.974 -1.2901  0.5185 -3.2080
  122OSM   H15G12980   2.864   5.991   7.986  0.0729  0.2528  2.1375
  122OSM   C16F12981   2.659   5.978   8.056 -0.0557  0.8878 -0.3330
  122OSM   H16F12982   2.637   5.874   8.025  0.0552  0.3580  1.3183
  122OSM   H16G12983   2.571   6.044   8.040 -1.0022 -0.5745 -1.2215
  122OSM   C17F12984   2.715   5.985   8.204  0.1536  0.1993  0.1775
  122OSM   H17F12985   2.630   6.009   8.271  0.5144 -0.0925  0.7392
  122OSM   H17G12986   2.788   6.066   8.222 -0.2272  0.1193  2.2344
  122OSM   C18F12987   2.771   5.854   8.264  0.9564  0.0867  0.1879
  122OSM   H18F12988   2.690   5.779   8.272 -0.2203  1.1853 -1.1076
  122OSM   H18G12989   2.810   5.867   8.367 -0.3015  0.6039  0.6007
  122OSM   H18H12990   2.856   5.817   8.202  0.1381 -1.8020  0.1591
  123OSM      N12991   0.858   2.451   6.167 -0.2944  0.8418  0.1024
  123OSM    C1512992   0.868   2.549   6.059  0.0280  0.4461  0.7984
  123OSM   H15A12993   0.946   2.621   6.075 -0.1248  0.3446  2.0970
  123OSM   H15B12994   0.775   2.597   6.034 -0.4996 -1.8080 -1.8545
  123OSM   H15C12995   0.889   2.493   5.969  0.2486 -1.2771  1.9002
  123OSM    C1412996   0.736   2.362   6.151 -0.6818  0.8722  0.5930
  123OSM   H14A12997   0.753   2.276   6.214  2.7602  0.2859 -1.0017
  123OSM   H14B12998   0.739   2.331   6.047  0.7955 -1.3475  1.2758
  123OSM   H14C12999   0.639   2.402   6.177 -1.4610 -0.3688 -0.3147
  123OSM    C1313000   0.987   2.371   6.146  0.4823  0.0748 -0.6659
  123OSM   H13A13001   1.073   2.428   6.177  0.4840 -1.4324  2.2487
  123OSM   H13B13002   0.995   2.325   6.049 -0.6357 -0.4510 -0.5253
  123OSM   H13C13003   0.997   2.290   6.216  2.3610 -1.8805 -3.1322
  123OSM    C1213004   0.866   2.505   6.308  0.5692 -0.5338  0.3981
  123OSM   H12A13005   0.768   2.545   6.327  0.2572 -1.4271  0.6911
  123OSM   H12B13006   0.939   2.585   6.306  1.3042 -1.1704  1.2386
  123OSM    C1113007   0.904   2.416   6.430  0.1299  0.2090 -0.2066
  123OSM   H11A13008   0.884   2.470   6.525  1.0242 -0.4742  0.3713
  123OSM   H11B13009   1.013   2.397   6.436  0.9184  4.0303 -0.9462
  123OSM      P13010   0.678   2.271   6.469 -0.0919 -0.1172 -0.3672
  123OSM    O1313011   0.599   2.385   6.421  0.2849 -0.4331 -0.0752
  123OSM    O1413012   0.633   2.137   6.427  0.2209 -0.4867 -0.2087
  123OSM    O1113013   0.682   2.269   6.634 -0.0719  0.3412 -0.6874
  123OSM    O1213014   0.831   2.291   6.418  0.0768  0.1025 -0.3461
  123OSM    C1S13015   0.773   2.183   6.701  0.8429 -0.2805 -0.7741
  123OSM    H1S13016   0.876   2.203   6.663  0.9251 -1.9458 -1.4779
  123OSM    H1T13017   0.756   2.075   6.679  1.6784  0.0268 -3.0863
  123OSM     NF13018   0.893   2.123   6.909  0.1748  0.4534  0.3762
  123OSM    HNF13019   0.869   2.045   6.966  0.8663  2.4566  3.6005
  123OSM    C2S13020   0.780   2.201   6.849 -0.8660  0.3258 -0.2433
  123OSM    H2S13021   0.803   2.309   6.861  2.8125 -0.0862 -2.8618
  123OSM    C3S13022   0.632   2.166   6.910 -0.8936 -0.4210 -1.1163
  123OSM    H3S13023   0.613   2.056   6.913 -0.2737 -0.5746 -2.3936
  123OSM     O313024   0.518   2.214   6.827 -0.2049  0.1338 -0.4895
  123OSM    HO313025   0.561   2.253   6.751  1.6055  1.7575  1.3014
  123OSM    C4S13026   0.622   2.223   7.047  0.7010  0.1131  0.2600
  123OSM    H4S13027   0.616   2.143   7.122 -3.4214 -0.1394 -0.2060
  123OSM    C5S13028   0.609   2.357   7.077 -0.4718  0.0986  0.3802
  123OSM    H5S13029   0.606   2.426   6.991 -0.2452 -2.6042 -1.9137
  123OSM    C6S13030   0.599   2.420   7.217 -0.9868 -0.2374  0.2194
  123OSM    H6S13031   0.501   2.470   7.232 -0.1373  1.8426 -1.0378
  123OSM    H6T13032   0.669   2.506   7.210 -1.3632 -0.0661 -1.7978
  123OSM    C7S13033   0.642   2.338   7.344 -0.0849 -0.1962  0.1985
  123OSM    H7S13034   0.744   2.294   7.350  0.8298  1.8438  0.1499
  123OSM    H7T13035   0.573   2.251   7.345 -1.1855  0.6536 -1.3820
  123OSM    C8S13036   0.630   2.430   7.472 -0.1524 -0.0328 -0.7414
  123OSM    H8S13037   0.529   2.475   7.466  0.5515  1.5811 -0.6189
  123OSM    H8T13038   0.706   2.511   7.465 -0.3186  0.1335 -0.6101
  123OSM    C9S13039   0.626   2.354   7.604  0.3987 -0.6582  0.3747
  123OSM    H9S13040   0.728   2.333   7.643  1.4105  0.8126 -1.4078
  123OSM    H9T13041   0.583   2.255   7.579 -1.5063 -0.2738  1.9667
  123OSM   C10S13042   0.536   2.423   7.710 -0.2136 -0.5847  0.5852
  123OSM   H10S13043   0.434   2.420   7.666 -0.2558  1.3721  0.5009
  123OSM   H10T13044   0.574   2.527   7.708 -0.3884 -0.5126  1.1593
  123OSM   C11S13045   0.532   2.340   7.842 -0.0246 -0.0984 -0.7130
  123OSM   H11S13046   0.639   2.332   7.870  0.3791 -1.3101 -2.5038
  123OSM   H11T13047   0.493   2.237   7.830 -0.3277 -0.0745  0.0244
  123OSM   C12S13048   0.438   2.416   7.943  0.1325 -0.7059 -0.3504
  123OSM   H12S13049   0.336   2.412   7.899 -0.7455  1.6811  1.3816
  123OSM   H12T13050   0.451   2.526   7.948 -1.4430 -0.4777 -0.8962
  123OSM   C13S13051   0.442   2.361   8.084  0.1541  0.1309  0.2203
  123OSM   H13S13052   0.544   2.351   8.126  0.7554 -0.1570 -1.2822
  123OSM   H13T13053   0.406   2.256   8.088  0.0665  0.0284 -2.3213
  123OSM   C14S13054   0.332   2.430   8.166 -0.1887  0.0111 -0.3003
  123OSM   H14S13055   0.327   2.375   8.263 -1.0438  0.8600  0.1456
  123OSM   H14T13056   0.236   2.433   8.109  0.2360  1.9062 -0.9657
  123OSM   C15S13057   0.381   2.575   8.194 -0.3236 -0.1856 -0.9711
  123OSM   H15S13058   0.298   2.647   8.209  1.1305  1.0552  1.4443
  123OSM   H15T13059   0.463   2.614   8.129  1.1655 -0.9036  0.4292
  123OSM   C16S13060   0.445   2.558   8.330 -0.0641  0.0222  0.2731
  123OSM   H16S13061   0.518   2.639   8.352  1.2365 -0.8931 -0.5990
  123OSM   H16T13062   0.499   2.461   8.339 -2.2657 -1.0447  2.3481
  123OSM   C17S13063   0.357   2.541   8.458  0.4662  0.5679 -0.2663
  123OSM   H17S13064   0.421   2.499   8.539  1.2407  0.2329 -1.0552
  123OSM   H17T13065   0.270   2.476   8.435  0.4305  0.9055 -1.0807
  123OSM   C18S13066   0.314   2.674   8.524 -0.1956  0.4077 -0.0495
  123OSM   H18S13067   0.402   2.740   8.541  1.4446 -1.5077 -0.9021
  123OSM   H18T13068   0.263   2.655   8.621  1.8807 -1.9055  0.6413
  123OSM   H18U13069   0.236   2.721   8.460 -0.2738 -0.5767 -0.6835
  123OSM    C1F13070   1.022   2.151   6.897 -0.0103 -0.5244 -0.1383
  123OSM     OF13071   1.066   2.237   6.817  0.4015  0.1929 -0.3790
  123OSM    C2F13072   1.117   2.060   6.980  0.1708 -0.4938  0.5228
  123OSM    H2F13073   1.200   2.033   6.911 -0.1352 -3.5339  1.2594
  123OSM    H2G13074   1.062   1.970   7.015  1.1665 -0.8778  1.1305
  123OSM    C3F13075   1.177   2.142   7.093 -0.2024 -0.3434 -0.6182
  123OSM    H3F13076   1.201   2.247   7.064  0.7624 -0.9715 -2.1548
  123OSM    H3G13077   1.267   2.089   7.130 -1.5493 -3.0956 -1.1729
  123OSM    C4F13078   1.085   2.169   7.214 -0.0755  0.3162 -0.2318
  123OSM    H4F13079   1.039   2.074   7.251 -0.4036  0.3601 -0.5234
  123OSM    H4G13080   0.990   2.223   7.197 -1.1744 -0.2226  3.7065
  123OSM    C5F13081   1.166   2.236   7.324 -0.3279 -0.3760 -0.1626
  123OSM    H5F13082   1.226   2.323   7.290  1.3322 -0.4489  2.4325
  123OSM    H5G13083   1.244   2.171   7.369 -1.6321 -0.8942  1.3800
  123OSM    C6F13084   1.068   2.288   7.445  0.2964 -0.7108 -0.0450
  123OSM    H6F13085   1.009   2.201   7.483 -3.2630  0.1906 -3.3062
  123OSM    H6G13086   0.996   2.362   7.406 -0.3627 -0.3674  1.7737
  123OSM    C7F13087   1.141   2.353   7.566 -0.2366  0.2656  0.1749
  123OSM    H7F13088   1.173   2.456   7.539 -1.6971  0.9417  1.0004
  123OSM    H7G13089   1.237   2.299   7.584 -0.4588  0.2091  1.2175
  123OSM    C8F13090   1.064   2.351   7.692 -0.2148  0.7277 -0.4614
  123OSM    H8F13091   1.052   2.242   7.710 -1.5030  1.1938  1.6784
  123OSM    H8G13092   0.970   2.406   7.670 -0.3035  1.0355  0.6860
  123OSM    C9F13093   1.129   2.409   7.806 -0.8131  0.0800 -0.1905
  123OSM    H9F13094   1.237   2.426   7.807 -0.6016 -1.1620  1.7935
  123OSM   C10F13095   1.064   2.446   7.919  0.4305 -0.0445 -0.5725
  123OSM   H10F13096   1.121   2.493   8.001 -2.2399  2.3396  0.0082
  123OSM   C11F13097   0.917   2.415   7.946 -0.0056 -0.0847 -0.5136
  123OSM   H11F13098   0.891   2.335   7.874  1.4529 -0.9854 -0.0631
  123OSM   H11G13099   0.857   2.505   7.922  1.4207  0.4145 -2.2600
  123OSM   C12F13100   0.886   2.360   8.087 -0.5299 -0.0736  0.5025
  123OSM   H12F13101   0.964   2.284   8.110 -1.4141 -1.0310  0.3364
  123OSM   H12G13102   0.788   2.309   8.088 -0.5064 -0.1476 -0.2801
  123OSM   C13F13103   0.880   2.461   8.189  0.6167 -0.0542  0.5582
  123OSM   H13F13104   0.788   2.519   8.169  0.5270 -0.4150 -0.0767
  123OSM   H13G13105   0.971   2.524   8.193  0.9931 -0.4700 -1.2015
  123OSM   C14F13106   0.877   2.393   8.325  0.8102 -0.1197 -0.3688
  123OSM   H14F13107   0.973   2.337   8.329  1.0984  0.3604 -0.5347
  123OSM   H14G13108   0.794   2.321   8.345 -1.8221  2.8096 -0.4453
  123OSM   C15F13109   0.848   2.487   8.446  0.1952 -0.6804 -0.4057
  123OSM   H15F13110   0.746   2.529   8.433  0.6716  1.1488  1.5930
  123OSM   H15G13111   0.908   2.580   8.442 -0.0758 -0.5023 -0.3081
  123OSM   C16F13112   0.861   2.415   8.577  0.0724  0.3954 -0.0141
  123OSM   H16F13113   0.966   2.378   8.584  1.1574  3.2404 -0.2275
  123OSM   H16G13114   0.791   2.330   8.585 -0.2941  0.5396 -1.4990
  123OSM   C17F13115   0.809   2.504   8.694 -0.1036  0.2780  0.2574
  123OSM   H17F13116   0.700   2.528   8.689 -0.0498  0.6156  0.7516
  123OSM   H17G13117   0.865   2.599   8.689 -1.0490  0.7786 -1.0038
  123OSM   C18F13118   0.833   2.431   8.828  0.7111  0.1233  0.2401
  123OSM   H18F13119   0.925   2.369   8.824  0.8141  0.3438 -1.5014
  123OSM   H18G13120   0.757   2.352   8.845 -0.2304  0.9327 -0.1495
  123OSM   H18H13121   0.834   2.514   8.901  1.1402 -0.3135  0.7281
  124OSM      N13122   2.134   5.026   5.802 -0.1981  0.3720 -0.0777
  124OSM    C1513123   2.112   4.952   5.670 -0.3210  0.2858 -0.2212
  124OSM   H15A13124   2.064   5.015   5.597  1.0051 -0.0598 -1.4130
  124OSM   H15B13125   2.054   4.863   5.691 -1.7184  0.8154 -1.7360
  124OSM   H15C13126   2.211   4.928   5.635 -1.2458 -2.7816 -0.8993
  124OSM    C1413127   2.223   4.946   5.889  0.4531  0.1155 -0.2235
  124OSM   H14A13128   2.195   4.842   5.899 -0.5052  0.2956 -0.8806
  124OSM   H14B13129   2.238   4.987   5.988 -0.4817 -0.0777 -0.0004
  124OSM   H14C13130   2.326   4.942   5.856  0.4111 -3.0206 -0.1469
  124OSM    C1313131   2.196   5.154   5.780 -0.0038  0.0970 -1.1646
  124OSM   H13A13132   2.285   5.141   5.721 -0.2021  2.5453 -2.0801
  124OSM   H13B13133   2.226   5.206   5.870  0.5711 -2.1071 -0.0660
  124OSM   H13C13134   2.120   5.208   5.724 -1.4672 -1.1819 -0.4376
  124OSM    C1213135   2.005   5.052   5.873 -0.7907 -0.8456 -0.2764
  124OSM   H12A13136   1.947   5.113   5.805 -0.3554  1.4783  1.3975
  124OSM   H12B13137   2.022   5.114   5.959 -0.8327 -1.5058  0.2111
  124OSM    C1113138   1.919   4.938   5.935 -0.1034  0.0925 -0.1039
  124OSM   H11A13139   1.909   4.865   5.852 -1.0073  1.1348 -0.9249
  124OSM   H11B13140   1.819   4.981   5.956 -0.3669 -0.2190 -0.7177
  124OSM      P13141   1.957   4.935   6.191 -0.4211  0.0674 -0.0168
  124OSM    O1313142   1.812   4.933   6.223  0.2236  0.0455 -0.0825
  124OSM    O1413143   2.048   4.872   6.290  0.6126  0.2879 -0.2576
  124OSM    O1113144   2.001   5.089   6.167 -0.2313 -0.5094 -0.5986
  124OSM    O1213145   1.977   4.873   6.045 -0.4593 -0.3232 -0.0676
  124OSM    C1S13146   1.936   5.194   6.239  0.3415  0.4134 -0.2239
  124OSM    H1S13147   1.837   5.164   6.280  1.1661  0.0920  1.5958
  124OSM    H1T13148   1.924   5.291   6.186 -0.3862  0.6938  0.4531
  124OSM     NF13149   1.937   5.319   6.444 -0.2009  0.2871  0.2477
  124OSM    HNF13150   1.958   5.416   6.440  2.6033 -0.3069 -0.4414
  124OSM    C2S13151   2.017   5.226   6.364  0.0101 -0.0856 -0.5243
  124OSM    H2S13152   2.037   5.132   6.420 -1.8100  0.1329  0.5667
  124OSM    C3S13153   2.153   5.284   6.319  0.4147  0.2125 -0.7495
  124OSM    H3S13154   2.132   5.380   6.267 -2.2291 -0.8903 -1.7993
  124OSM     O313155   2.222   5.223   6.212  0.0817  0.2092  0.3873
  124OSM    HO313156   2.158   5.171   6.164  1.7197 -0.4933 -1.0730
  124OSM    C4S13157   2.240   5.298   6.441 -0.3092 -0.5764 -0.8486
  124OSM    H4S13158   2.229   5.393   6.496  0.7714 -0.1511 -1.3556
  124OSM    C5S13159   2.332   5.216   6.489  0.2530 -0.0032  0.5788
  124OSM    H5S13160   2.345   5.116   6.444 -1.5394  0.2733 -0.6185
  124OSM    C6S13161   2.421   5.240   6.607 -0.1935 -0.1246  0.7489
  124OSM    H6S13162   2.479   5.333   6.586  1.1715 -1.1662 -0.2495
  124OSM    H6T13163   2.495   5.157   6.609  0.4276  0.2274 -3.1701
  124OSM    C7S13164   2.351   5.267   6.741  0.8059  0.9785 -0.0845
  124OSM    H7S13165   2.292   5.179   6.774 -0.3152  1.3749 -0.9833
  124OSM    H7T13166   2.286   5.357   6.752 -0.7098 -0.1386  0.2792
  124OSM    C8S13167   2.469   5.291   6.842 -0.3152 -0.2122  0.2004
  124OSM    H8S13168   2.528   5.377   6.805 -0.8756  0.1148  0.0761
  124OSM    H8T13169   2.531   5.199   6.833 -0.8317 -0.5931  0.4925
  124OSM    C9S13170   2.419   5.300   6.984  0.4013  0.0652 -0.2102
  124OSM    H9S13171   2.500   5.268   7.053  1.5469  1.8436 -0.6954
  124OSM    H9T13172   2.331   5.233   6.993 -0.3998  1.1438  0.0896
  124OSM   C10S13173   2.372   5.445   7.022 -0.1181  0.0144  0.0069
  124OSM   H10S13174   2.292   5.484   6.956  0.6715  3.5144  1.0146
  124OSM   H10T13175   2.460   5.511   7.006  0.2685  0.3021  3.0439
  124OSM   C11S13176   2.322   5.458   7.168  0.1710 -0.4917  0.1387
  124OSM   H11S13177   2.305   5.567   7.186 -2.5343 -1.0396  1.1581
  124OSM   H11T13178   2.401   5.424   7.238 -0.1975 -1.0529  0.2815
  124OSM   C12S13179   2.184   5.390   7.186  0.0804  0.6328 -0.1412
  124OSM   H12S13180   2.198   5.282   7.164  1.5910  0.8875 -0.4764
  124OSM   H12T13181   2.105   5.426   7.116 -0.3733 -1.8626 -0.9501
  124OSM   C13S13182   2.132   5.417   7.332 -0.9564  0.0360  0.0966
  124OSM   H13S13183   2.036   5.363   7.346 -1.6870  1.0390 -0.9942
  124OSM   H13T13184   2.117   5.524   7.357  2.0390  1.1825 -2.6579
  124OSM   C14S13185   2.229   5.365   7.445 -0.2984  0.4584  0.0827
  124OSM   H14S13186   2.325   5.422   7.444  0.9488 -1.5990 -1.4985
  124OSM   H14T13187   2.269   5.264   7.424 -4.0076 -0.8379 -1.0932
  124OSM   C15S13188   2.157   5.349   7.573  1.2787  0.1976 -0.0653
  124OSM   H15S13189   2.084   5.266   7.564  0.7275  0.6219  0.4371
  124OSM   H15T13190   2.103   5.444   7.591 -0.3961 -0.6356 -0.5626
  124OSM   C16S13191   2.249   5.314   7.694 -0.3612 -0.5276 -0.6110
  124OSM   H16S13192   2.295   5.410   7.727 -1.7129  0.0523 -0.3599
  124OSM   H16T13193   2.333   5.245   7.671 -0.4647 -1.0743  0.5766
  124OSM   C17S13194   2.171   5.249   7.809  0.0195  0.0350  0.0655
  124OSM   H17S13195   2.132   5.153   7.768  1.9980  0.0768 -2.0118
  124OSM   H17T13196   2.076   5.304   7.824 -1.0470 -1.9384  0.8034
  124OSM   C18S13197   2.255   5.235   7.942 -0.3940 -0.3194 -0.2632
  124OSM   H18S13198   2.349   5.181   7.918 -1.2875 -1.9658 -0.0903
  124OSM   H18T13199   2.201   5.181   8.023  1.7392 -1.5853  0.3456
  124OSM   H18U13200   2.277   5.336   7.982  0.5193  0.0377 -1.6491
  124OSM    C1F13201   1.818   5.283   6.495  1.1705 -0.3447  0.1070
  124OSM     OF13202   1.791   5.163   6.512 -0.0230  0.5618  0.6708
  124OSM    C2F13203   1.711   5.390   6.515 -0.4393  0.4362  0.0138
  124OSM    H2F13204   1.661   5.413   6.419  2.2636  2.9016 -0.8763
  124OSM    H2G13205   1.761   5.477   6.563 -1.6088  2.3924 -2.1967
  124OSM    C3F13206   1.607   5.340   6.620  0.4883  0.3584  0.2638
  124OSM    H3F13207   1.666   5.311   6.710 -0.5397 -0.4034  0.7085
  124OSM    H3G13208   1.539   5.256   6.594  0.2007  0.1074  1.7665
  124OSM    C4F13209   1.500   5.441   6.664 -0.1076  0.1841 -0.2743
  124OSM    H4F13210   1.425   5.395   6.731 -0.1261 -0.0884 -0.4811
  124OSM    H4G13211   1.445   5.475   6.573 -0.8388 -1.0608 -0.3055
  124OSM    C5F13212   1.554   5.573   6.719  0.5601  0.0802 -0.6282
  124OSM    H5F13213   1.626   5.613   6.645  0.0883 -0.0517 -1.1542
  124OSM    H5G13214   1.618   5.540   6.804  0.8327  1.4654 -0.2835
  124OSM    C6F13215   1.447   5.667   6.766  0.3253  0.5149 -0.0888
  124OSM    H6F13216   1.381   5.626   6.845 -0.9374  1.5827 -0.5730
  124OSM    H6G13217   1.374   5.683   6.684  3.6066 -2.9098 -3.8811
  124OSM    C7F13218   1.504   5.797   6.823 -0.4675 -0.5294  0.1846
  124OSM    H7F13219   1.578   5.830   6.747 -1.9516  1.1249 -0.5679
  124OSM    H7G13220   1.569   5.782   6.912 -0.5827 -2.0192  0.0339
  124OSM    C8F13221   1.402   5.911   6.830  0.6045 -0.0792  0.3682
  124OSM    H8F13222   1.361   5.920   6.727 -1.3627 -1.4801  0.9953
  124OSM    H8G13223   1.471   5.996   6.843 -1.8753  2.3657 -1.6782
  124OSM    C9F13224   1.284   5.890   6.924  0.3459 -0.0441  0.1115
  124OSM    H9F13225   1.218   5.806   6.900 -1.1104  1.4882 -1.3918
  124OSM   C10F13226   1.256   5.961   7.037  0.0726 -0.9093  0.0039
  124OSM   H10F13227   1.162   5.935   7.089  0.0374  0.1275  0.4563
  124OSM   C11F13228   1.322   6.085   7.076  0.7708 -0.6511 -0.2078
  124OSM   H11F13229   1.264   6.175   7.047 -0.9032 -1.5852  0.2306
  124OSM   H11G13230   1.416   6.101   7.017 -0.0260  0.9520 -1.0866
  124OSM   C12F13231   1.349   6.082   7.226 -0.3131  0.3329 -0.0479
  124OSM   H12F13232   1.417   6.165   7.252 -0.5068 -0.2172  2.3375
  124OSM   H12G13233   1.405   5.996   7.269 -0.4306  1.3285  2.1797
  124OSM   C13F13234   1.215   6.083   7.311 -0.1397  0.0625 -0.1008
  124OSM   H13F13235   1.174   5.980   7.310 -0.4208  0.1679  0.4042
  124OSM   H13G13236   1.144   6.157   7.268 -0.1772  0.6477  0.9471
  124OSM   C14F13237   1.234   6.102   7.461 -0.6023  0.6300  0.4106
  124OSM   H14F13238   1.298   6.191   7.478 -0.7978  0.5629  1.5720
  124OSM   H14G13239   1.289   6.012   7.497  2.1414  1.0436 -2.5962
  124OSM   C15F13240   1.091   6.114   7.528  0.2584 -0.0054  0.2530
  124OSM   H15F13241   1.013   6.045   7.487  1.0808 -0.3497 -0.7749
  124OSM   H15G13242   1.055   6.217   7.512  0.8211  0.3549  1.2769
  124OSM   C16F13243   1.089   6.085   7.676 -1.1620  0.0093  0.1185
  124OSM   H16F13244   1.191   6.117   7.707 -2.3984  2.7011  1.5891
  124OSM   H16G13245   1.081   5.976   7.700 -0.5285 -0.2200 -0.6925
  124OSM   C17F13246   0.986   6.160   7.756  0.5292  0.2954  0.1572
  124OSM   H17F13247   0.885   6.134   7.718  0.3675  0.9127  0.1599
  124OSM   H17G13248   0.974   6.270   7.756  0.4161  0.2878  0.8915
  124OSM   C18F13249   0.998   6.147   7.908 -0.0748 -0.7456  0.8688
  124OSM   H18F13250   0.970   6.045   7.942  1.4360 -1.1419  0.9969
  124OSM   H18G13251   0.919   6.209   7.954 -1.1817 -1.2927 -0.2773
  124OSM   H18H13252   1.103   6.169   7.939 -0.2808  2.5871 -0.6368
  125OSM      N13253   4.245   4.257   6.096 -0.5760  0.4430 -0.2046
  125OSM    C1513254   4.254   4.355   5.981  0.3855  0.0290 -0.7958
  125OSM   H15A13255   4.184   4.320   5.906  0.1878  0.8392 -0.9995
  125OSM   H15B13256   4.356   4.359   5.947  0.5799  1.8981 -0.0377
  125OSM   H15C13257   4.214   4.451   6.011 -0.6733 -1.0349  1.2777
  125OSM    C1413258   4.336   4.301   6.211  0.5353 -0.0183 -0.3290
  125OSM   H14A13259   4.298   4.392   6.254  0.2152 -0.5488  0.5305
  125OSM   H14B13260   4.437   4.326   6.182  0.8240 -1.0122 -0.2294
  125OSM   H14C13261   4.337   4.228   6.291 -1.1550  0.4969  0.1788
  125OSM    C1313262   4.108   4.260   6.154 -0.6787 -0.1602 -0.0409
  125OSM   H13A13263   4.100   4.197   6.241  0.3798  1.0597  0.9543
  125OSM   H13B13264   4.034   4.219   6.086 -0.4722 -1.7705  0.6922
  125OSM   H13C13265   4.078   4.361   6.177  1.3870 -0.0380  2.2317
  125OSM    C1213266   4.285   4.121   6.057 -0.5378 -0.4747 -0.7057
  125OSM   H12A13267   4.378   4.124   6.003 -1.1535 -0.5750 -1.7934
  125OSM   H12B13268   4.205   4.090   5.991 -0.7697 -1.7160  0.1366
  125OSM    C1113269   4.291   4.008   6.162 -0.8869 -0.9363  0.7776
  125OSM   H11A13270   4.276   3.911   6.111  1.3596 -1.5130  1.1405
  125OSM   H11B13271   4.203   4.014   6.229  0.4123  0.9205  2.3935
  125OSM      P13272   4.555   4.003   6.175 -0.0459  0.3582  0.5260
  125OSM    O1313273   4.569   3.864   6.122  0.2415 -0.0225  0.1598
  125OSM    O1413274   4.579   4.121   6.089  0.2235 -0.1848 -0.3688
  125OSM    O1113275   4.639   4.016   6.313 -0.3908 -0.0051  0.3481
  125OSM    O1213276   4.409   4.010   6.240  0.4747 -0.2732  0.0904
  125OSM    C1S13277   4.626   3.923   6.421  0.4633  0.7968 -1.0903
  125OSM    H1S13278   4.679   3.828   6.396 -0.0042  0.0095  0.7709
  125OSM    H1T13279   4.519   3.896   6.438  0.7297 -0.0053 -0.6114
  125OSM     NF13280   4.669   3.886   6.658 -0.3875 -0.0921  0.7046
  125OSM    HNF13281   4.599   3.906   6.726 -0.9198  2.8718 -0.6519
  125OSM    C2S13282   4.694   3.976   6.553 -0.8057  0.2853  0.7696
  125OSM    H2S13283   4.802   4.000   6.544 -0.9212  2.4276  4.1146
  125OSM    C3S13284   4.641   4.129   6.581  0.5837  0.9752  0.7929
  125OSM    H3S13285   4.530   4.127   6.581  0.6082 -0.9738 -0.6010
  125OSM     O313286   4.658   4.216   6.471  0.2742 -0.5166 -0.3485
  125OSM    HO313287   4.664   4.148   6.404 -0.0680  1.0408 -2.0027
  125OSM    C4S13288   4.697   4.186   6.711  0.0330  0.6987  0.3020
  125OSM    H4S13289   4.631   4.154   6.793 -0.5920 -1.1584 -0.8782
  125OSM    C5S13290   4.809   4.259   6.741  0.0601 -0.4855 -0.0671
  125OSM    H5S13291   4.877   4.304   6.666 -0.2805 -0.2879 -0.2603
  125OSM    C6S13292   4.850   4.317   6.871  0.4499  0.3001 -0.2813
  125OSM    H6S13293   4.874   4.425   6.860  1.2636  0.2846  1.2907
  125OSM    H6T13294   4.936   4.252   6.894  1.1813  1.7182  1.1142
  125OSM    C7S13295   4.754   4.299   6.991  0.6027 -0.7965 -0.5150
  125OSM    H7S13296   4.707   4.199   6.982  0.0302 -0.4440 -1.6093
  125OSM    H7T13297   4.668   4.370   6.994  0.8630 -0.4961 -0.1106
  125OSM    C8S13298   4.829   4.301   7.124 -0.8474  0.1063 -0.3773
  125OSM    H8S13299   4.864   4.405   7.145 -1.3234  0.4608 -1.3245
  125OSM    H8T13300   4.905   4.221   7.119 -1.9072 -0.9751  0.3096
  125OSM    C9S13301   4.740   4.251   7.232 -0.0762 -0.3740  0.4622
  125OSM    H9S13302   4.713   4.145   7.211 -1.5867  0.3251 -1.2463
  125OSM    H9T13303   4.640   4.299   7.220 -0.9789 -2.0477  1.1887
  125OSM   C10S13304   4.794   4.268   7.374  0.1141 -0.1305 -0.0845
  125OSM   H10S13305   4.822   4.375   7.390 -1.7152  0.6571 -1.8472
  125OSM   H10T13306   4.881   4.200   7.383 -0.8403 -1.2196  1.1031
  125OSM   C11S13307   4.693   4.218   7.472  0.0019 -0.2853  0.4532
  125OSM   H11S13308   4.686   4.108   7.462  2.3999 -0.3089 -1.2221
  125OSM   H11T13309   4.590   4.256   7.455 -0.9813 -2.7439  0.7361
  125OSM   C12S13310   4.715   4.243   7.622  0.2284  0.0341 -0.1199
  125OSM   H12S13311   4.698   4.350   7.646  0.1256  0.3674 -1.6129
  125OSM   H12T13312   4.814   4.198   7.645  0.4780  0.6891  0.0943
  125OSM   C13S13313   4.627   4.165   7.716  0.1357 -0.0277  0.3313
  125OSM   H13S13314   4.593   4.064   7.686  0.1773 -0.1766  0.7798
  125OSM   H13T13315   4.538   4.229   7.733 -0.2975 -0.5449  0.0178
  125OSM   C14S13316   4.692   4.141   7.860  0.0603 -0.1196 -0.1088
  125OSM   H14S13317   4.706   4.241   7.906  1.7332 -0.6710  0.5966
  125OSM   H14T13318   4.795   4.102   7.854 -0.8320 -2.3702 -1.6071
  125OSM   C15S13319   4.618   4.048   7.951 -0.2315 -0.3558  0.3720
  125OSM   H15S13320   4.623   3.950   7.898 -1.7869  0.2135 -0.8460
  125OSM   H15T13321   4.513   4.084   7.956  0.0566  0.8641 -1.9404
  125OSM   C16S13322   4.676   4.044   8.095 -0.0270 -0.3075 -0.3464
  125OSM   H16S13323   4.702   4.150   8.119 -0.7889 -0.2463  0.2340
  125OSM   H16T13324   4.774   3.991   8.092  1.7318  2.7170  0.5599
  125OSM   C17S13325   4.581   3.996   8.204  0.1631  1.1122 -1.2819
  125OSM   H17S13326   4.497   4.069   8.210  0.4807  1.4028 -0.0927
  125OSM   H17T13327   4.628   3.997   8.305 -1.6517  1.6675 -0.3984
  125OSM   C18S13328   4.527   3.857   8.189 -0.2417 -0.0840  0.2036
  125OSM   H18S13329   4.608   3.785   8.163 -0.1530 -0.1261  0.6043
  125OSM   H18T13330   4.471   3.846   8.093  0.3550 -1.8406  0.0285
  125OSM   H18U13331   4.474   3.825   8.281  1.8681 -0.0273  1.4733
  125OSM    C1F13332   4.738   3.761   6.665 -0.5269  0.3461  0.6640
  125OSM     OF13333   4.837   3.746   6.598 -0.1189  0.0425 -0.5620
  125OSM    C2F13334   4.674   3.643   6.730 -0.0620 -0.3728 -0.0832
  125OSM    H2F13335   4.732   3.632   6.824  0.0218  1.1572  0.0649
  125OSM    H2G13336   4.697   3.555   6.667  0.0763 -0.3368 -0.0835
  125OSM    C3F13337   4.522   3.655   6.758  0.2919 -0.0320  0.1389
  125OSM    H3F13338   4.471   3.660   6.659  1.3599  0.7646 -0.3789
  125OSM    H3G13339   4.510   3.744   6.823  0.0264 -0.4363  0.6434
  125OSM    C4F13340   4.447   3.541   6.838 -0.0388 -0.0258 -0.2227
  125OSM    H4F13341   4.429   3.450   6.777 -2.2160  0.3974 -0.2395
  125OSM    H4G13342   4.345   3.582   6.855  0.7221  2.9142 -2.3899
  125OSM    C5F13343   4.524   3.479   6.956 -0.2621 -0.1310 -0.0506
  125OSM    H5F13344   4.552   3.567   7.017  1.9463 -0.1710 -0.9512
  125OSM    H5G13345   4.617   3.441   6.910 -0.0468 -0.5928  0.7699
  125OSM    C6F13346   4.443   3.381   7.037 -0.6882  0.3451  0.2720
  125OSM    H6F13347   4.392   3.310   6.970  0.0295 -1.1606  1.2899
  125OSM    H6G13348   4.366   3.437   7.095  0.4814  1.0474  1.1681
  125OSM    C7F13349   4.519   3.304   7.144 -0.1297 -0.0605  0.1752
  125OSM    H7F13350   4.582   3.222   7.103  1.9551  0.6695  1.8498
  125OSM    H7G13351   4.446   3.246   7.204 -1.2859  1.1097 -0.0734
  125OSM    C8F13352   4.604   3.381   7.255 -0.3303  0.3141 -0.4287
  125OSM    H8F13353   4.672   3.444   7.195  0.0058 -0.5289 -0.9509
  125OSM    H8G13354   4.664   3.300   7.302  0.7160  1.0477 -0.5062
  125OSM    C9F13355   4.520   3.472   7.345 -0.2437  0.1943  0.5948
  125OSM    H9F13356   4.443   3.529   7.290 -0.3121  0.9812  1.4856
  125OSM   C10F13357   4.534   3.486   7.476  0.2587  0.2696  0.8715
  125OSM   H10F13358   4.464   3.560   7.517 -1.7422 -1.4291  0.6112
  125OSM   C11F13359   4.621   3.409   7.565  0.5387 -0.3677  0.1427
  125OSM   H11F13360   4.706   3.473   7.597 -1.4059  1.1961  2.3059
  125OSM   H11G13361   4.653   3.314   7.517  0.6757  0.2141 -0.9336
  125OSM   C12F13362   4.537   3.378   7.687 -0.4795  1.1426  0.1916
  125OSM   H12F13363   4.584   3.306   7.757  1.1934  2.1247  0.1026
  125OSM   H12G13364   4.441   3.335   7.652 -0.3158  1.3048 -0.4506
  125OSM   C13F13365   4.499   3.495   7.789  0.1638  0.8142  0.4425
  125OSM   H13F13366   4.457   3.576   7.725  4.3621  2.7039 -0.1296
  125OSM   H13G13367   4.591   3.536   7.836  0.1312  2.0250 -0.5122
  125OSM   C14F13368   4.412   3.442   7.906  0.4505 -0.3589  0.6387
  125OSM   H14F13369   4.459   3.350   7.946 -0.3463 -0.4594  1.3346
  125OSM   H14G13370   4.315   3.405   7.865  0.0531  1.6871 -0.3351
  125OSM   C15F13371   4.399   3.539   8.028 -0.1533  0.3084  0.0666
  125OSM   H15F13372   4.342   3.625   7.987 -1.5056  0.1589  1.5937
  125OSM   H15G13373   4.504   3.564   8.053  0.0688 -0.1395 -0.4081
  125OSM   C16F13374   4.320   3.469   8.141 -0.1096  0.0183  0.2255
  125OSM   H16F13375   4.363   3.370   8.166  1.7370  0.9270  0.7380
  125OSM   H16G13376   4.214   3.460   8.110 -0.4008 -2.9419  1.9303
  125OSM   C17F13377   4.328   3.565   8.258  0.4830  1.1096 -1.0750
  125OSM   H17F13378   4.274   3.660   8.234  1.1966  1.4340 -1.3953
  125OSM   H17G13379   4.434   3.586   8.282 -0.1105  2.6397  0.3790
  125OSM   C18F13380   4.270   3.523   8.391  0.2562 -0.4925  0.0887
  125OSM   H18F13381   4.269   3.610   8.460 -2.5645 -0.7612  0.4420
  125OSM   H18G13382   4.324   3.435   8.433 -0.0235 -0.6810  0.0547
  125OSM   H18H13383   4.167   3.492   8.365  0.8386 -0.0847 -2.7808
  126OSM      N13384   1.058   1.810   6.559  0.1672 -0.0726 -0.2390
  126OSM    C1513385   0.908   1.782   6.521  0.5181 -0.5277 -1.0608
  126OSM   H15A13386   0.871   1.843   6.440  0.5808 -1.6983 -1.9842
  126OSM   H15B13387   0.842   1.807   6.603  2.2028 -0.5931  0.3229
  126OSM   H15C13388   0.884   1.681   6.490 -2.8765  0.1631 -0.9311
  126OSM    C1413389   1.072   1.957   6.595  0.0652  0.0178 -0.1072
  126OSM   H14A13390   1.172   1.984   6.627 -0.6964 -0.0069  2.4230
  126OSM   H14B13391   1.007   1.969   6.680  0.2210  0.6556 -0.0745
  126OSM   H14C13392   1.040   2.026   6.518 -2.7542 -1.8701 -0.6964
  126OSM    C1313393   1.091   1.722   6.674 -0.9724 -0.3586 -0.7581
  126OSM   H13A13394   1.093   1.615   6.658 -0.8369 -0.5096  0.2265
  126OSM   H13B13395   1.022   1.736   6.756  0.1079 -0.7953  0.2394
  126OSM   H13C13396   1.187   1.741   6.720 -1.4517 -3.4502  1.6757
  126OSM    C1213397   1.147   1.769   6.447 -0.0774  0.5579 -0.0095
  126OSM   H12A13398   1.104   1.816   6.360  1.1879 -0.9266 -1.4726
  126OSM   H12B13399   1.147   1.663   6.428  1.5424  0.2140  1.7508
  126OSM    C1113400   1.300   1.813   6.458 -0.3211  0.0459  0.1841
  126OSM   H11A13401   1.318   1.853   6.560  2.0316  1.0757 -0.5787
  126OSM   H11B13402   1.323   1.897   6.389  1.4924  1.4527  2.4202
  126OSM      P13403   1.546   1.719   6.482  0.3808  0.3932 -0.1180
  126OSM    O1313404   1.618   1.590   6.449  0.9923  0.6727 -0.1088
  126OSM    O1413405   1.603   1.844   6.438 -0.2806  0.5268 -0.4995
  126OSM    O1113406   1.521   1.724   6.634  0.1247  0.1566  0.5913
  126OSM    O1213407   1.402   1.713   6.425  1.1615  0.5402 -0.4066
  126OSM    C1S13408   1.454   1.611   6.703  0.4380 -0.2232  0.2718
  126OSM    H1S13409   1.491   1.513   6.666  3.5704  0.9280  0.1861
  126OSM    H1T13410   1.347   1.596   6.680  0.4405 -0.2003  0.2447
  126OSM     NF13411   1.463   1.486   6.920  0.5246  0.2925 -0.1592
  126OSM    HNF13412   1.382   1.453   6.968  1.8136 -0.4297  1.5726
  126OSM    C2S13413   1.477   1.614   6.855  0.1416  0.2996  0.9639
  126OSM    H2S13414   1.586   1.633   6.864 -0.0660  1.0867  1.9889
  126OSM    C3S13415   1.386   1.724   6.914 -0.7737  0.1207 -0.6433
  126OSM    H3S13416   1.279   1.695   6.916 -1.2107  1.7123  0.4347
  126OSM     O313417   1.413   1.852   6.856  0.3958 -0.4163  0.1459
  126OSM    HO313418   1.459   1.842   6.772  1.2862 -2.2491  0.8231
  126OSM    C4S13419   1.416   1.743   7.061 -0.2152  0.1646 -0.2590
  126OSM    H4S13420   1.523   1.732   7.084  0.3380  1.2510 -2.1907
  126OSM    C5S13421   1.328   1.772   7.158  0.1569  0.3289 -0.6571
  126OSM    H5S13422   1.224   1.799   7.133  0.5135  1.1944 -1.2254
  126OSM    C6S13423   1.368   1.802   7.303  0.5065  0.7249 -0.3693
  126OSM    H6S13424   1.455   1.870   7.306  1.2232 -0.1025 -1.7074
  126OSM    H6T13425   1.402   1.704   7.344  1.0954 -0.1126 -2.7337
  126OSM    C7S13426   1.255   1.865   7.372 -0.0555  0.5320 -0.1168
  126OSM    H7S13427   1.166   1.800   7.376 -1.0942  2.0108  1.3673
  126OSM    H7T13428   1.225   1.959   7.321 -1.2019 -0.5150 -1.4181
  126OSM    C8S13429   1.297   1.897   7.512  0.3426 -0.6867 -0.9255
  126OSM    H8S13430   1.383   1.966   7.502 -1.9877  2.5319  0.3605
  126OSM    H8T13431   1.335   1.807   7.565 -1.0681  0.8931  2.9773
  126OSM    C9S13432   1.193   1.965   7.605 -0.1214 -0.1335  0.3353
  126OSM    H9S13433   1.102   1.901   7.593  1.4919 -2.7286  1.4774
  126OSM    H9T13434   1.183   2.067   7.562  2.7614  0.1942  0.3536
  126OSM   C10S13435   1.218   1.972   7.757  0.7900 -0.3413  0.4812
  126OSM   H10S13436   1.142   2.039   7.804  1.3867  1.0981 -0.5662
  126OSM   H10T13437   1.313   2.029   7.772 -0.0214  1.5238 -1.3247
  126OSM   C11S13438   1.224   1.837   7.830 -0.4357  0.0591  0.0443
  126OSM   H11S13439   1.327   1.796   7.820  0.6194  1.8126  3.0396
  126OSM   H11T13440   1.148   1.766   7.790 -0.5877 -0.7465  1.7284
  126OSM   C12S13441   1.223   1.863   7.983 -1.0053 -0.2314 -0.2382
  126OSM   H12S13442   1.122   1.902   8.003 -1.3484 -1.3868  0.3251
  126OSM   H12T13443   1.299   1.938   8.012 -1.2151 -0.3675  0.6689
  126OSM   C13S13444   1.237   1.733   8.056  0.5801  0.8776 -1.4170
  126OSM   H13S13445   1.333   1.680   8.041 -0.5913 -1.6474 -0.3401
  126OSM   H13T13446   1.159   1.655   8.044  1.2291  0.1254 -0.8148
  126OSM   C14S13447   1.250   1.748   8.207 -0.4680  0.1703 -0.0638
  126OSM   H14S13448   1.260   1.646   8.248  1.8802  0.7248  0.8288
  126OSM   H14T13449   1.155   1.778   8.255  0.0938 -0.6600  1.6017
  126OSM   C15S13450   1.371   1.821   8.263 -0.3893  0.2671  0.2336
  126OSM   H15S13451   1.390   1.918   8.213  1.1595 -0.7334 -1.1884
  126OSM   H15T13452   1.465   1.766   8.240 -2.2004 -2.4999 -0.8740
  126OSM   C16S13453   1.368   1.837   8.414 -0.3214  0.0894 -0.2362
  126OSM   H16S13454   1.375   1.735   8.457 -3.1030 -0.8041 -1.7485
  126OSM   H16T13455   1.266   1.870   8.444  0.5675  1.4189  1.3987
  126OSM   C17S13456   1.484   1.921   8.458  0.1877 -0.1481 -0.2839
  126OSM   H17S13457   1.570   1.905   8.389  0.9813 -3.2152  1.3246
  126OSM   H17T13458   1.514   1.890   8.561 -0.9341 -0.4110 -0.0267
  126OSM   C18S13459   1.460   2.072   8.449  0.5908  0.2609  0.3722
  126OSM   H18S13460   1.434   2.086   8.342  0.3727 -0.6508  0.2978
  126OSM   H18T13461   1.551   2.134   8.461  0.3625  0.9336 -1.2684
  126OSM   H18U13462   1.385   2.119   8.516 -1.8229 -1.5415 -0.9685
  126OSM    C1F13463   1.547   1.385   6.914  0.3535 -0.5415  0.0075
  126OSM     OF13464   1.650   1.386   6.853 -0.1097 -0.0729  0.0519
  126OSM    C2F13465   1.506   1.267   6.990 -0.4300 -0.0011  0.4651
  126OSM    H2F13466   1.400   1.238   6.975 -0.5268 -0.4419  1.9067
  126OSM    H2G13467   1.533   1.287   7.096  2.3189 -1.1571  0.0454
  126OSM    C3F13468   1.586   1.142   6.943  0.2552  0.5042 -0.1407
  126OSM    H3F13469   1.690   1.157   6.908 -0.4281  1.7659 -1.6884
  126OSM    H3G13470   1.532   1.117   6.849 -0.0475  1.7159 -0.2874
  126OSM    C4F13471   1.549   1.013   7.021  0.4197 -0.1385 -0.0577
  126OSM    H4F13472   1.541   0.916   6.968 -1.1634  1.3281 -2.6155
  126OSM    H4G13473   1.447   1.026   7.064 -0.0570 -2.8921 -0.2770
  126OSM    C5F13474   1.642   0.998   7.142 -0.1704 -0.5397 -0.5132
  126OSM    H5F13475   1.638   1.092   7.201 -1.0518 -1.1875  0.4941
  126OSM    H5G13476   1.749   0.990   7.112 -0.4446  0.9967 -1.9463
  126OSM    C6F13477   1.596   0.880   7.227  0.0363 -0.4043  0.4000
  126OSM    H6F13478   1.583   0.802   7.149  0.6395 -1.2971  1.1869
  126OSM    H6G13479   1.498   0.890   7.278 -1.2575  1.9634 -2.3935
  126OSM    C7F13480   1.704   0.835   7.321 -0.0404 -0.0753 -0.0813
  126OSM    H7F13481   1.803   0.828   7.271  0.4593  1.8680  0.6057
  126OSM    H7G13482   1.680   0.731   7.350  2.4300 -0.5522  0.3502
  126OSM    C8F13483   1.704   0.915   7.450  0.0338 -0.7409  0.3454
  126OSM    H8F13484   1.617   0.885   7.511 -0.9065 -0.2067 -0.7106
  126OSM    H8G13485   1.678   1.021   7.430 -0.1450 -0.7069  0.7625
  126OSM    C9F13486   1.836   0.894   7.527 -0.9312 -0.2643 -0.9616
  126OSM    H9F13487   1.906   0.974   7.498 -1.5837  0.8182  0.3809
  126OSM   C10F13488   1.860   0.818   7.635 -0.2093  0.1650 -0.8288
  126OSM   H10F13489   1.961   0.824   7.679  0.4455  0.5863 -2.3890
  126OSM   C11F13490   1.760   0.728   7.701 -0.4679 -0.4554 -0.1254
  126OSM   H11F13491   1.776   0.621   7.677  0.4353 -0.3631  0.0463
  126OSM   H11G13492   1.656   0.764   7.685 -0.4070 -0.5760 -0.7970
  126OSM   C12F13493   1.795   0.742   7.855 -0.0916 -0.0272 -0.3219
  126OSM   H12F13494   1.901   0.712   7.864  0.2527  0.9558 -1.0398
  126OSM   H12G13495   1.741   0.655   7.899 -0.8914  0.8059  0.3767
  126OSM   C13F13496   1.761   0.872   7.924  0.3940 -0.4492 -0.3171
  126OSM   H13F13497   1.653   0.880   7.901  0.7823 -0.0457 -2.1594
  126OSM   H13G13498   1.815   0.950   7.865 -2.3477 -0.0083 -2.3488
  126OSM   C14F13499   1.788   0.876   8.077 -0.4008  0.0656 -0.2296
  126OSM   H14F13500   1.893   0.908   8.096 -0.7814  1.1860  0.0447
  126OSM   H14G13501   1.782   0.775   8.123 -1.6576  0.6396  0.9117
  126OSM   C15F13502   1.704   0.986   8.149  0.2645  1.0239  0.4146
  126OSM   H15F13503   1.596   0.979   8.123 -0.0342  0.8988  1.6401
  126OSM   H15G13504   1.740   1.085   8.112  1.5624  0.5001  0.2657
  126OSM   C16F13505   1.739   0.990   8.303  1.0023  0.4315  0.7233
  126OSM   H16F13506   1.849   0.980   8.315  0.8818 -1.5494  0.3891
  126OSM   H16G13507   1.696   0.900   8.352  1.1559 -0.1783 -0.2337
  126OSM   C17F13508   1.696   1.124   8.369 -0.0038  0.3080 -0.2169
  126OSM   H17F13509   1.591   1.145   8.341 -0.0992 -2.4142 -2.1524
  126OSM   H17G13510   1.755   1.205   8.320 -1.5506  1.6309  0.0632
  126OSM   C18F13511   1.695   1.130   8.526  0.5513 -0.0578 -0.6431
  126OSM   H18F13512   1.616   1.201   8.557  1.7680  0.6587  0.8990
  126OSM   H18G13513   1.793   1.171   8.560 -0.7115  2.4950  0.0235
  126OSM   H18H13514   1.678   1.030   8.572 -3.0273  1.4728  1.5228
  127OSM      N13515   0.128   3.341   6.370  0.6288 -0.1126  0.1592
  127OSM    C1513516   0.226   3.333   6.257 -0.5099  0.1593  0.1406
  127OSM   H15A13517   0.218   3.427   6.204 -1.2634  1.1068  1.8882
  127OSM   H15B13518   0.206   3.248   6.193 -0.1460  0.8329 -0.8717
  127OSM   H15C13519   0.327   3.322   6.291 -0.5891  0.7024  0.5474
  127OSM    C1413520   0.163   3.466   6.450 -0.4494 -0.5320  0.2562
  127OSM   H14A13521   0.164   3.552   6.386  3.8458 -1.1538 -0.6947
  127OSM   H14B13522   0.263   3.458   6.490 -0.2722  1.6020  0.2786
  127OSM   H14C13523   0.087   3.480   6.526 -0.7607 -2.1075  0.2690
  127OSM    C1313524  -0.001   3.348   6.303 -0.5491 -0.2424  0.2274
  127OSM   H13A13525  -0.029   3.256   6.254 -0.3061  1.1246 -2.5641
  127OSM   H13B13526  -0.006   3.424   6.227  1.2535  0.2082  0.5560
  127OSM   H13C13527  -0.073   3.360   6.382 -2.8401 -0.7175 -1.7273
  127OSM    C1213528   0.131   3.217   6.461 -0.0645  0.5969  0.0436
  127OSM   H12A13529   0.046   3.223   6.527 -0.0215 -2.1431  0.4118
  127OSM   H12B13530   0.223   3.227   6.517  0.7977 -0.4462 -1.1436
  127OSM    C1113531   0.121   3.081   6.386  0.4101 -0.0294 -0.2966
  127OSM   H11A13532   0.157   3.003   6.457 -2.1183 -0.6587  0.3514
  127OSM   H11B13533   0.194   3.081   6.303  0.6203 -0.4825 -0.1138
  127OSM      P13534  -0.124   2.990   6.418 -0.0094 -0.0023 -0.1450
  127OSM    O1313535  -0.253   3.027   6.351  0.0091  0.2912  0.3787
  127OSM    O1413536  -0.088   2.849   6.426 -0.1759  0.1503 -0.1392
  127OSM    O1113537  -0.125   3.046   6.567 -0.0987  0.1401 -0.0441
  127OSM    O1213538  -0.016   3.069   6.337 -0.0053 -0.0230 -0.2842
  127OSM    C1S13539  -0.068   2.962   6.668  0.2436 -0.1627 -0.0576
  127OSM    H1S13540   0.043   2.951   6.660  0.1470 -1.3018  0.1379
  127OSM    H1T13541  -0.118   2.863   6.666  0.6566 -0.4460  1.9045
  127OSM     NF13542  -0.061   2.927   6.915  0.0267  0.4343 -0.1851
  127OSM    HNF13543  -0.138   2.887   6.964 -0.8175  0.9450 -1.0826
  127OSM    C2S13544  -0.101   3.023   6.810  0.7053  0.6190 -0.4034
  127OSM    H2S13545  -0.049   3.121   6.807  1.5969  0.1521 -0.1793
  127OSM    C3S13546  -0.256   3.065   6.812 -0.5444  0.5962  0.1134
  127OSM    H3S13547  -0.309   2.971   6.785  1.4387 -0.3642 -0.5362
  127OSM     O313548  -0.286   3.170   6.716 -0.6329 -0.2052 -0.1147
  127OSM    HO313549  -0.228   3.145   6.644 -1.6659  0.8117 -1.3235
  127OSM    C4S13550  -0.300   3.118   6.938  0.7513  1.0176 -0.6269
  127OSM    H4S13551  -0.234   3.192   6.986  1.7856  0.1137 -0.6588
  127OSM    C5S13552  -0.406   3.062   7.003  1.2648 -0.6265  0.3171
  127OSM    H5S13553  -0.465   2.981   6.957  0.2542  0.0906  0.3180
  127OSM    C6S13554  -0.459   3.088   7.141 -0.1113 -0.2768 -0.6543
  127OSM    H6S13555  -0.569   3.103   7.139 -0.1004  0.6684  2.8549
  127OSM    H6T13556  -0.411   3.180   7.179 -1.3148  0.5411 -1.0990
  127OSM    C7S13557  -0.443   2.985   7.254 -0.3311 -0.8183  0.2439
  127OSM    H7S13558  -0.336   2.954   7.252 -0.3562 -0.8115 -1.5319
  127OSM    H7T13559  -0.511   2.899   7.239 -0.4544 -0.6281 -0.2968
  127OSM    C8S13560  -0.469   3.044   7.392  0.5754  0.4119 -0.2315
  127OSM    H8S13561  -0.576   3.072   7.380  1.2305  2.4981 -1.5016
  127OSM    H8T13562  -0.422   3.144   7.402  0.7194  0.4396 -1.2101
  127OSM    C9S13563  -0.452   2.953   7.506 -0.1011  0.2529  0.5503
  127OSM    H9S13564  -0.343   2.931   7.509  0.2859  2.1853  1.2973
  127OSM    H9T13565  -0.496   2.852   7.491  0.7797 -0.2206  1.0970
  127OSM   C10S13566  -0.495   3.012   7.640 -0.4100  0.3900 -0.3738
  127OSM   H10S13567  -0.606   3.022   7.642 -0.4428  0.0045  1.7927
  127OSM   H10T13568  -0.447   3.111   7.650  0.0944  0.4892 -3.5127
  127OSM   C11S13569  -0.452   2.925   7.755  0.4769 -0.0535 -0.0020
  127OSM   H11S13570  -0.342   2.913   7.740  0.9073  0.2257  2.6457
  127OSM   H11T13571  -0.502   2.826   7.747 -0.8132  0.5795  0.1822
  127OSM   C12S13572  -0.484   2.995   7.888  0.2137  0.6164 -0.1659
  127OSM   H12S13573  -0.594   3.005   7.875 -0.0678  0.1841  1.7703
  127OSM   H12T13574  -0.435   3.094   7.901  1.6629 -0.2358  0.9579
  127OSM   C13S13575  -0.434   2.899   8.006  0.1625 -0.3598 -0.5198
  127OSM   H13S13576  -0.325   2.901   7.986 -0.0275 -0.2496 -1.5671
  127OSM   H13T13577  -0.486   2.804   7.981  1.2697 -0.6494 -1.7520
  127OSM   C14S13578  -0.475   2.944   8.149  0.0826  0.5364  0.4574
  127OSM   H14S13579  -0.585   2.956   8.156 -0.0038  0.4081 -0.6248
  127OSM   H14T13580  -0.441   3.047   8.175  2.6874  1.1349 -4.6790
  127OSM   C15S13581  -0.432   2.853   8.259  0.0046  0.6091 -0.1193
  127OSM   H15S13582  -0.475   2.752   8.241  2.1103 -0.6904  1.8441
  127OSM   H15T13583  -0.478   2.877   8.357  1.1025 -1.0166  0.8254
  127OSM   C16S13584  -0.284   2.837   8.285 -0.2460 -0.0272  0.2361
  127OSM   H16S13585  -0.237   2.785   8.199  1.4157  2.4861 -0.4334
  127OSM   H16T13586  -0.284   2.774   8.377  0.8874 -1.7789 -0.9292
  127OSM   C17S13587  -0.217   2.967   8.313 -0.2069  0.6007  0.0567
  127OSM   H17S13588  -0.285   3.022   8.381 -4.2161 -1.5910 -1.9726
  127OSM   H17T13589  -0.207   3.017   8.214 -1.6897 -1.1074 -1.0056
  127OSM   C18S13590  -0.079   2.964   8.370  0.0665  0.3619  0.4160
  127OSM   H18S13591  -0.016   2.894   8.312  0.0429  0.7146 -0.0425
  127OSM   H18T13592  -0.084   2.936   8.478  2.4277  1.6625  0.9223
  127OSM   H18U13593  -0.027   3.061   8.355 -0.8294  0.3671 -2.8928
  127OSM    C1F13594   0.072   2.900   6.945  0.4518 -0.1763  0.0481
  127OSM     OF13595   0.160   2.961   6.883 -0.4631  0.6290 -0.4305
  127OSM    C2F13596   0.108   2.806   7.056  0.0857 -0.3664  0.5574
  127OSM    H2F13597   0.080   2.700   7.036  1.0144 -0.5024 -0.0535
  127OSM    H2G13598   0.044   2.837   7.141  0.7161  2.0795  0.1761
  127OSM    C3F13599   0.250   2.805   7.111 -0.0095  0.8236 -1.4568
  127OSM    H3F13600   0.287   2.899   7.157  1.0090  0.5702 -1.7298
  127OSM    H3G13601   0.315   2.788   7.022 -1.4958 -2.8043 -1.9141
  127OSM    C4F13602   0.267   2.692   7.212 -0.3471  0.6448 -0.4729
  127OSM    H4F13603   0.377   2.683   7.219 -0.3314  1.0754 -0.1299
  127OSM    H4G13604   0.231   2.591   7.182  0.3169 -0.0886  1.1182
  127OSM    C5F13605   0.206   2.731   7.351 -0.3118  0.2517  0.7362
  127OSM    H5F13606   0.152   2.645   7.396 -1.6877  1.8399  2.1450
  127OSM    H5G13607   0.135   2.816   7.345  1.6538  1.9857  1.6885
  127OSM    C6F13608   0.327   2.779   7.428  0.3541 -0.1440 -0.4908
  127OSM    H6F13609   0.360   2.878   7.391  1.7515 -0.4753 -0.1434
  127OSM    H6G13610   0.409   2.704   7.428 -0.0019 -0.5769 -3.3812
  127OSM    C7F13611   0.292   2.799   7.580  0.2592 -0.2609 -0.0412
  127OSM    H7F13612   0.252   2.703   7.617 -0.9284  0.0802 -0.4299
  127OSM    H7G13613   0.217   2.877   7.606 -0.6354 -1.0209 -0.3416
  127OSM    C8F13614   0.415   2.826   7.671  0.4804 -0.9291  0.1093
  127OSM    H8F13615   0.492   2.747   7.657  1.2441  0.1391 -1.8322
  127OSM    H8G13616   0.371   2.813   7.772 -1.7191  1.7266 -0.4471
  127OSM    C9F13617   0.477   2.963   7.662  0.2350 -0.4677 -0.1285
  127OSM    H9F13618   0.485   3.004   7.561 -1.5484 -0.1213 -0.1586
  127OSM   C10F13619   0.546   3.019   7.772 -0.2028 -0.2675 -0.4362
  127OSM   H10F13620   0.615   3.103   7.763  2.2006 -2.2777 -1.3143
  127OSM   C11F13621   0.550   2.958   7.913 -0.7799 -0.5442 -0.1446
  127OSM   H11F13622   0.619   2.871   7.913  0.0127  0.0739 -1.1304
  127OSM   H11G13623   0.449   2.932   7.952 -0.9401 -0.3527 -0.4370
  127OSM   C12F13624   0.602   3.067   8.006  0.0087 -0.2108 -0.0808
  127OSM   H12F13625   0.523   3.144   8.012  0.6423  0.4505 -0.1320
  127OSM   H12G13626   0.702   3.108   7.981  0.4938 -0.5769  1.1742
  127OSM   C13F13627   0.622   3.028   8.156  0.7650 -0.4458  0.1836
  127OSM   H13F13628   0.710   2.961   8.169  0.7128 -0.1300  2.3134
  127OSM   H13G13629   0.533   2.970   8.188  0.1335  0.9003  0.9277
  127OSM   C14F13630   0.640   3.153   8.252  0.2433  0.4475  0.1828
  127OSM   H14F13631   0.567   3.225   8.209 -0.1553  0.5880  1.0954
  127OSM   H14G13632   0.743   3.189   8.232  0.8431 -0.4389  1.5879
  127OSM   C15F13633   0.605   3.122   8.399 -0.4226 -0.3954  0.5365
  127OSM   H15F13634   0.506   3.071   8.403 -1.7384  1.9771 -0.7520
  127OSM   H15G13635   0.591   3.219   8.451  0.6524 -0.6872  1.3844
  127OSM   C16F13636   0.692   3.030   8.476 -0.0907  0.1775  0.2839
  127OSM   H16F13637   0.802   3.046   8.471 -0.1544  0.6786  0.5199
  127OSM   H16G13638   0.672   2.926   8.442 -0.6758  0.1488  0.7045
  127OSM   C17F13639   0.651   3.032   8.628 -0.0921 -0.3632  0.1202
  127OSM   H17F13640   0.545   3.003   8.642 -0.2610  0.7324  1.1781
  127OSM   H17G13641   0.666   3.140   8.649 -0.3815  0.2456 -2.6119
  127OSM   C18F13642   0.742   2.927   8.697 -0.0354 -0.3883 -0.6767
  127OSM   H18F13643   0.850   2.947   8.680  0.2843  0.1306  1.8304
  127OSM   H18G13644   0.708   2.828   8.661  1.0573 -0.3401 -1.8841
  127OSM   H18H13645   0.727   2.937   8.806 -3.7126 -1.1194 -1.0650
  128OSM      N13646   0.001   0.027   5.963  0.0694 -0.1370  0.1029
  128OSM    C1513647   0.062  -0.102   5.915  0.6432  0.1088  0.5634
  128OSM   H15A13648   0.170  -0.094   5.916  0.5278  2.4029 -0.8202
  128OSM   H15B13649   0.041  -0.128   5.812 -2.4918 -0.8377  1.3975
  128OSM   H15C13650   0.023  -0.177   5.981 -1.7437  0.6700 -0.1571
  128OSM    C1413651   0.050   0.148   5.886 -0.6006 -0.2983  0.0663
  128OSM   H14A13652   0.157   0.164   5.875 -0.4864 -0.7383  0.5492
  128OSM   H14B13653   0.016   0.242   5.926  0.1972  1.3731 -3.0301
  128OSM   H14C13654   0.012   0.136   5.786 -0.8682 -1.0388  0.2572
  128OSM    C1313655  -0.144   0.022   5.947  0.3049 -0.0252 -0.0674
  128OSM   H13A13656  -0.189  -0.064   5.995 -0.5521  0.0584 -0.7090
  128OSM   H13B13657  -0.162   0.024   5.841 -0.0161 -0.1799 -0.0179
  128OSM   H13C13658  -0.189   0.114   5.982 -1.4970 -0.5621 -0.9267
  128OSM    C1213659   0.040   0.036   6.110 -0.1386 -0.1124  0.0409
  128OSM   H12A13660  -0.016   0.111   6.164  0.0436  0.1411 -0.1206
  128OSM   H12B13661   0.143   0.066   6.118 -1.0666  3.1545  0.5332
  128OSM    C1113662   0.022  -0.090   6.212  0.2233  0.2495 -0.1423
  128OSM   H11A13663  -0.089  -0.093   6.208  0.2696 -1.8808 -0.9273
  128OSM   H11B13664   0.050  -0.060   6.315  0.9805  0.6234 -0.4458
  128OSM      P13665   0.202  -0.269   6.211 -0.1510 -0.3559 -0.0874
  128OSM    O1313666   0.225  -0.406   6.160  0.2068  0.6157 -0.3227
  128OSM    O1413667   0.305  -0.174   6.175 -0.1216  0.0632 -0.0842
  128OSM    O1113668   0.178  -0.281   6.365 -0.2731 -0.7269 -0.6785
  128OSM    O1213669   0.065  -0.223   6.165  0.2970  0.2707 -0.4818
  128OSM    C1S13670   0.075  -0.352   6.420 -0.0328 -1.1728 -1.0873
  128OSM    H1S13671   0.094  -0.459   6.397 -0.9025 -1.7453  0.7472
  128OSM    H1T13672  -0.023  -0.307   6.395 -0.5752 -0.5140  1.9591
  128OSM     NF13673  -0.003  -0.471   6.622  0.6285 -0.0874 -0.0564
  128OSM    HNF13674  -0.097  -0.454   6.650  0.5254 -0.6269 -0.0732
  128OSM    C2S13675   0.076  -0.354   6.572 -0.7241  0.0859 -0.4043
  128OSM    H2S13676   0.175  -0.363   6.620 -1.0636  3.1330  1.0495
  128OSM    C3S13677   0.022  -0.208   6.620  0.0792  0.2632  0.0719
  128OSM    H3S13678  -0.080  -0.184   6.583 -0.2372 -1.1287  0.0474
  128OSM     O313679   0.112  -0.109   6.571 -0.2440 -0.2993  0.2128
  128OSM    HO313680   0.166  -0.153   6.505 -0.1618 -0.5871  0.4669
  128OSM    C4S13681   0.026  -0.206   6.767 -0.4566 -0.0400  0.1838
  128OSM    H4S13682   0.121  -0.225   6.819  0.6292 -1.1256 -2.1324
  128OSM    C5S13683  -0.074  -0.159   6.845  0.3147  0.1742  0.7935
  128OSM    H5S13684  -0.163  -0.132   6.786  0.6681  0.6229  0.4660
  128OSM    C6S13685  -0.085  -0.144   6.995 -0.3628  0.3770  0.7367
  128OSM    H6S13686  -0.116  -0.042   7.027  1.5623  1.4819 -0.8034
  128OSM    H6T13687   0.014  -0.156   7.043 -0.5681  0.1939  1.1215
  128OSM    C7S13688  -0.185  -0.257   7.047  0.1643  0.3715  0.0093
  128OSM    H7S13689  -0.167  -0.353   6.994  2.7256  2.0595 -2.2964
  128OSM    H7T13690  -0.288  -0.228   7.018 -0.4857 -1.2526  0.6218
  128OSM    C8S13691  -0.181  -0.281   7.196  0.0358  0.3368  0.3976
  128OSM    H8S13692  -0.076  -0.307   7.221  0.1565  1.1043  0.7135
  128OSM    H8T13693  -0.248  -0.364   7.225 -0.1265  0.5136  0.5349
  128OSM    C9S13694  -0.229  -0.156   7.278 -0.3768 -0.8962  0.0092
  128OSM    H9S13695  -0.335  -0.131   7.255 -0.3868  2.3557  3.1066
  128OSM    H9T13696  -0.176  -0.062   7.253 -0.8675 -0.6161 -0.0018
  128OSM   C10S13697  -0.226  -0.170   7.429  1.0212  0.0760  0.0135
  128OSM   H10S13698  -0.269  -0.269   7.458  2.5045 -1.4666 -2.8280
  128OSM   H10T13699  -0.302  -0.098   7.466 -1.2122 -0.8104 -2.6990
  128OSM   C11S13700  -0.087  -0.156   7.498 -0.3298 -0.1299 -0.2296
  128OSM   H11S13701  -0.031  -0.072   7.450 -0.3271  1.6905  2.8256
  128OSM   H11T13702  -0.021  -0.243   7.481 -0.0998 -0.2763  1.3436
  128OSM   C12S13703  -0.100  -0.136   7.647 -0.1568  0.2346  0.4652
  128OSM   H12S13704  -0.151  -0.038   7.660 -0.5974  0.0058  0.4801
  128OSM   H12T13705  -0.005  -0.140   7.704  0.4752 -0.3959 -0.6297
  128OSM   C13S13706  -0.186  -0.252   7.714 -0.6446 -0.9437  0.4624
  128OSM   H13S13707  -0.163  -0.349   7.665  1.6618 -0.0738 -0.2431
  128OSM   H13T13708  -0.288  -0.216   7.689 -0.2230  0.2103  0.4172
  128OSM   C14S13709  -0.178  -0.266   7.866  0.1076  0.8280  0.4534
  128OSM   H14S13710  -0.088  -0.323   7.896 -1.8163 -1.2343  2.4474
  128OSM   H14T13711  -0.267  -0.313   7.912 -0.7830  0.9816 -1.0745
  128OSM   C15S13712  -0.183  -0.126   7.937  0.0165  0.3917  0.4509
  128OSM   H15S13713  -0.274  -0.080   7.893 -1.7101 -3.1280  0.1437
  128OSM   H15T13714  -0.097  -0.066   7.900  0.1489 -1.4027 -2.3345
  128OSM   C16S13715  -0.187  -0.142   8.087  0.5037  0.9590 -0.1099
  128OSM   H16S13716  -0.093  -0.193   8.118 -1.3424 -0.5365  3.3653
  128OSM   H16T13717  -0.270  -0.207   8.121 -0.3767  1.0144 -2.0943
  128OSM   C17S13718  -0.203  -0.006   8.155 -0.1945  0.0615  0.4310
  128OSM   H17S13719  -0.310   0.020   8.134 -0.2795 -0.6627 -0.0197
  128OSM   H17T13720  -0.132   0.068   8.111 -1.7756  0.6732 -1.1616
  128OSM   C18S13721  -0.191  -0.009   8.306  0.1642  0.6647 -0.4314
  128OSM   H18S13722  -0.260  -0.081   8.355 -0.6203  0.7697 -1.3611
  128OSM   H18T13723  -0.216   0.094   8.337  1.4431  1.3059 -1.5201
  128OSM   H18U13724  -0.088  -0.030   8.342 -0.4702  0.4599  1.2963
  128OSM    C1F13725   0.048  -0.591   6.632  0.6783 -0.4689 -0.1555
  128OSM     OF13726   0.156  -0.615   6.582 -0.7131  0.1282 -0.5695
  128OSM    C2F13727  -0.042  -0.697   6.692 -0.9986  0.0384 -0.3867
  128OSM    H2F13728  -0.083  -0.740   6.598 -1.3009  2.2265 -1.3065
  128OSM    H2G13729  -0.124  -0.656   6.756  0.1868  0.1535  1.0701
  128OSM    C3F13730   0.047  -0.798   6.765 -0.1102 -0.0751  0.3912
  128OSM    H3F13731   0.125  -0.838   6.697 -1.0946  0.9746 -1.3915
  128OSM    H3G13732  -0.007  -0.895   6.780 -0.8067  0.2165 -0.1777
  128OSM    C4F13733   0.105  -0.755   6.897  0.2657 -0.7958  0.1418
  128OSM    H4F13734   0.168  -0.664   6.889 -1.1987  0.1097 -1.5203
  128OSM    H4G13735   0.175  -0.832   6.936 -0.2474 -0.7308  1.1941
  128OSM    C5F13736   0.001  -0.723   6.997 -0.7342 -0.1497  0.0641
  128OSM    H5F13737  -0.077  -0.801   6.985  1.5380 -2.2031 -1.5581
  128OSM    H5G13738  -0.055  -0.633   6.963  2.2031  0.8562 -2.3069
  128OSM    C6F13739   0.051  -0.725   7.144  1.0076  0.7966 -0.5303
  128OSM    H6F13740   0.114  -0.640   7.177 -1.7957  1.7407  2.6417
  128OSM    H6G13741   0.111  -0.818   7.156 -3.1336 -2.0236 -0.6972
  128OSM    C7F13742  -0.068  -0.743   7.242 -0.1568 -0.8466  0.7513
  128OSM    H7F13743  -0.112  -0.844   7.227  1.1111 -1.4324  0.8836
  128OSM    H7G13744  -0.148  -0.667   7.234 -2.3797 -3.2225 -0.3717
  128OSM    C8F13745  -0.028  -0.733   7.387 -0.7765 -0.5766  0.0656
  128OSM    H8F13746   0.059  -0.801   7.402  0.7911  0.9795 -1.6677
  128OSM    H8G13747  -0.103  -0.771   7.459  0.0887 -3.1627 -0.3509
  128OSM    C9F13748  -0.011  -0.586   7.424 -0.1950  0.1200 -0.2930
  128OSM    H9F13749  -0.061  -0.518   7.353  0.9577 -0.2334 -1.4602
  128OSM   C10F13750   0.070  -0.542   7.526  0.0434  0.0970 -1.0907
  128OSM   H10F13751   0.080  -0.434   7.541 -2.2575  0.0744  0.8822
  128OSM   C11F13752   0.151  -0.627   7.616  0.0869  0.0261 -0.5274
  128OSM   H11F13753   0.229  -0.560   7.658 -0.3628  0.3331 -0.1809
  128OSM   H11G13754   0.211  -0.702   7.559  0.9598 -1.0005  1.6876
  128OSM   C12F13755   0.081  -0.704   7.731  0.8308  0.0949 -0.3251
  128OSM   H12F13756   0.148  -0.782   7.773 -0.3313 -0.5136  0.4241
  128OSM   H12G13757  -0.008  -0.758   7.691  1.4467  0.9806 -2.9655
  128OSM   C13F13758   0.042  -0.612   7.846  0.4474 -0.0667  0.1769
  128OSM   H13F13759  -0.033  -0.537   7.813  1.0391  1.4378  2.1589
  128OSM   H13G13760   0.130  -0.548   7.870 -0.5770  1.1973  0.6255
  128OSM   C14F13761  -0.006  -0.685   7.968  0.6773 -0.4651 -0.0006
  128OSM   H14F13762   0.081  -0.696   8.037  0.7187 -3.5891 -0.4696
  128OSM   H14G13763  -0.063  -0.778   7.948  1.6222 -1.3237  1.2544
  128OSM   C15F13764  -0.108  -0.594   8.045 -0.2164  0.2249  0.1607
  128OSM   H15F13765  -0.186  -0.550   7.980 -2.3885  1.4619  3.4725
  128OSM   H15G13766  -0.041  -0.510   8.074  2.2418 -1.9813  1.0624
  128OSM   C16F13767  -0.157  -0.659   8.180  0.0104 -0.2939 -0.4740
  128OSM   H16F13768  -0.068  -0.718   8.211  0.8669  1.3613  0.2382
  128OSM   H16G13769  -0.241  -0.728   8.157  0.9355 -1.5774 -0.0701
  128OSM   C17F13770  -0.202  -0.562   8.281 -0.7831  0.1670  0.5689
  128OSM   H17F13771  -0.281  -0.494   8.243 -0.2599 -1.2510 -3.2812
  128OSM   H17G13772  -0.117  -0.496   8.309  0.2726 -0.9508  0.0248
  128OSM   C18F13773  -0.247  -0.625   8.414  0.5626 -0.9237  0.4366
  128OSM   H18F13774  -0.171  -0.702   8.440  0.5717  0.0672  3.4797
  128OSM   H18G13775  -0.348  -0.670   8.407 -0.0453  0.6062 -0.7542
  128OSM   H18H13776  -0.242  -0.548   8.493 -0.3015 -0.9377  0.5026
  129OSM      N13777   4.978   0.864   6.263  0.1306 -0.4305 -0.2262
  129OSM    C1513778   5.086   0.761   6.211  0.0676  1.1015  0.0095
  129OSM   H15A13779   5.168   0.762   6.281  0.7292 -1.9683 -0.6618
  129OSM   H15B13780   5.117   0.782   6.109 -0.5179  1.8214 -0.0246
  129OSM   H15C13781   5.041   0.663   6.214  0.7846  0.8173  4.1959
  129OSM    C1413782   4.872   0.877   6.159 -0.4967  0.0971  0.2538
  129OSM   H14A13783   4.837   0.776   6.142 -1.6701  0.5732 -0.2544
  129OSM   H14B13784   4.915   0.917   6.069 -0.4393 -3.0322 -1.1839
  129OSM   H14C13785   4.788   0.943   6.175 -2.2271 -1.6811 -1.1674
  129OSM    C1313786   4.922   0.797   6.380  0.0120  0.2388 -0.0699
  129OSM   H13A13787   4.870   0.707   6.350  0.1791  1.0098 -2.7964
  129OSM   H13B13788   4.845   0.856   6.428  0.6763 -0.0224  1.3495
  129OSM   H13C13789   4.998   0.779   6.455  1.5405  2.2075 -1.0789
  129OSM    C1213790   5.031   1.006   6.297 -0.3978  0.2720  0.5650
  129OSM   H12A13791   5.047   1.053   6.201 -0.4823 -1.5476 -0.3685
  129OSM   H12B13792   5.121   1.000   6.356  0.9861  2.2145 -1.2757
  129OSM    C1113793   4.940   1.107   6.379 -0.4599  0.8316 -0.2583
  129OSM   H11A13794   5.005   1.193   6.407  0.2323  0.3990 -0.5012
  129OSM   H11B13795   4.903   1.059   6.472  0.4265  0.4589 -0.0924
  129OSM      P13796   4.847   1.262   6.201 -0.2220 -0.3355 -0.0772
  129OSM    O1313797   4.982   1.246   6.137  0.2041 -0.1620 -0.3925
  129OSM    O1413798   4.732   1.247   6.119  0.7197 -0.1547 -0.1801
  129OSM    O1113799   4.841   1.398   6.286  0.2022 -0.1686 -0.1306
  129OSM    O1213800   4.831   1.146   6.308  0.0258 -0.0976  0.5408
  129OSM    C1S13801   4.795   1.389   6.421  0.1617 -0.0498  0.4970
  129OSM    H1S13802   4.877   1.343   6.481  2.2289  0.5141 -1.7985
  129OSM    H1T13803   4.697   1.338   6.424  0.0071  0.0358 -2.0977
  129OSM     NF13804   4.749   1.509   6.628  0.2056  0.0836  0.6500
  129OSM    HNF13805   4.659   1.524   6.668 -0.9733  0.6024 -2.0590
  129OSM    C2S13806   4.769   1.524   6.484  0.1403 -0.0617 -0.0137
  129OSM    H2S13807   4.859   1.586   6.463  0.3327  0.0196  1.0549
  129OSM    C3S13808   4.658   1.595   6.410 -0.0893  0.3215  0.8776
  129OSM    H3S13809   4.570   1.528   6.420 -0.5523  0.5995 -1.0180
  129OSM     O313810   4.665   1.620   6.270 -0.1612 -0.0308  0.1580
  129OSM    HO313811   4.742   1.567   6.248 -0.1989 -0.9467  2.1419
  129OSM    C4S13812   4.611   1.728   6.473  0.6120  0.5037 -0.7473
  129OSM    H4S13813   4.525   1.714   6.540  1.3470 -4.1601 -0.5788
  129OSM    C5S13814   4.641   1.854   6.447 -1.1132 -0.5688 -0.5910
  129OSM    H5S13815   4.703   1.883   6.361  0.0482 -1.2034  0.0223
  129OSM    C6S13816   4.584   1.983   6.508  0.1560  0.4329 -0.1466
  129OSM    H6S13817   4.545   2.043   6.423  0.7831  2.3530  0.8709
  129OSM    H6T13818   4.671   2.041   6.548  0.6375  0.7548 -1.6253
  129OSM    C7S13819   4.474   1.965   6.607 -0.1189 -0.4492  0.1519
  129OSM    H7S13820   4.512   1.897   6.686  1.1228  0.9223  0.7595
  129OSM    H7T13821   4.388   1.916   6.556  0.0465 -1.9795  1.2867
  129OSM    C8S13822   4.415   2.101   6.653 -0.4812 -1.1176 -0.4935
  129OSM    H8S13823   4.397   2.155   6.557  2.2523 -0.8495 -0.8791
  129OSM    H8T13824   4.497   2.151   6.707 -1.0035 -1.1808  0.3682
  129OSM    C9S13825   4.295   2.099   6.746 -0.2733 -0.3426 -0.2433
  129OSM    H9S13826   4.214   2.043   6.695 -1.0360 -1.1183  1.7971
  129OSM    H9T13827   4.251   2.200   6.761  1.3386  0.3094  0.2092
  129OSM   C10S13828   4.303   2.026   6.884 -0.7888  0.6452 -0.1467
  129OSM   H10S13829   4.333   2.095   6.965 -4.1002  1.9158  0.1047
  129OSM   H10T13830   4.369   1.937   6.889  0.2600  1.5230  2.1155
  129OSM   C11S13831   4.161   1.976   6.917 -0.1940 -0.2008 -0.1814
  129OSM   H11S13832   4.130   1.873   6.886 -1.1086  0.7909 -2.6679
  129OSM   H11T13833   4.091   2.048   6.870 -1.8261 -0.9325  1.0767
  129OSM   C12S13834   4.134   1.980   7.064 -0.6698 -0.1477  0.0912
  129OSM   H12S13835   4.108   2.085   7.088 -1.3558 -0.5355  1.0826
  129OSM   H12T13836   4.222   1.957   7.127  1.1825  3.6936 -1.0028
  129OSM   C13S13837   4.018   1.899   7.108  0.2218 -0.2087  0.6622
  129OSM   H13S13838   4.022   1.794   7.071  1.1442  0.0216  0.0783
  129OSM   H13T13839   3.925   1.940   7.062 -0.5160 -1.7184  0.7671
  129OSM   C14S13840   4.011   1.891   7.257 -0.2954 -0.3862 -0.9384
  129OSM   H14S13841   4.100   1.838   7.297 -1.3835  0.9140  3.4725
  129OSM   H14T13842   3.915   1.850   7.294 -0.0128  1.7148  2.3883
  129OSM   C15S13843   4.006   2.026   7.328 -0.6173 -0.4720  0.2720
  129OSM   H15S13844   3.926   2.081   7.274  0.3051 -0.1382 -0.7646
  129OSM   H15T13845   4.103   2.080   7.326 -1.2019  0.6992  1.8574
  129OSM   C16S13846   3.981   2.020   7.481 -0.1141 -0.9181  0.1174
  129OSM   H16S13847   4.069   1.976   7.532 -0.2607 -0.4865  0.7478
  129OSM   H16T13848   3.890   1.961   7.506 -1.4228  1.2403  0.6136
  129OSM   C17S13849   3.970   2.158   7.541  0.1931 -0.0430 -0.1910
  129OSM   H17S13850   3.913   2.233   7.482  0.2608 -0.5135 -0.8594
  129OSM   H17T13851   4.075   2.195   7.553 -0.5372  1.8048  0.6978
  129OSM   C18S13852   3.898   2.139   7.679 -0.3746 -0.1711  0.0969
  129OSM   H18S13853   3.949   2.060   7.739  1.8972 -0.0420 -1.5864
  129OSM   H18T13854   3.794   2.105   7.662 -0.5255  0.7672 -0.9362
  129OSM   H18U13855   3.898   2.233   7.739 -1.6846 -0.8128  1.1149
  129OSM    C1F13856   4.854   1.483   6.709 -0.9802  0.3869 -0.1565
  129OSM     OF13857   4.967   1.466   6.662  0.3398 -0.2226 -0.4707
  129OSM    C2F13858   4.841   1.494   6.859  0.6972  0.3996  0.3277
  129OSM    H2F13859   4.927   1.557   6.891  0.3409  1.5116 -0.8373
  129OSM    H2G13860   4.845   1.387   6.887 -1.4903  0.1457 -0.2182
  129OSM    C3F13861   4.713   1.564   6.909  0.3246  0.1799  0.5321
  129OSM    H3F13862   4.626   1.498   6.887  0.5963  0.5971 -1.9467
  129OSM    H3G13863   4.708   1.657   6.849  0.5677  0.0342  0.2860
  129OSM    C4F13864   4.709   1.605   7.056 -0.1939 -0.1529  0.0499
  129OSM    H4F13865   4.809   1.648   7.078  0.2190  0.2830 -2.4598
  129OSM    H4G13866   4.695   1.518   7.123 -3.3274 -0.2618 -0.6643
  129OSM    C5F13867   4.595   1.704   7.083  0.2465  0.6961 -0.4394
  129OSM    H5F13868   4.510   1.633   7.075  0.9548 -0.3341  0.8593
  129OSM    H5G13869   4.580   1.769   6.995  0.3183  0.2217 -0.8068
  129OSM    C6F13870   4.601   1.781   7.217  0.4197  0.3286 -0.2611
  129OSM    H6F13871   4.663   1.874   7.210  1.2790 -0.0966  1.5976
  129OSM    H6G13872   4.661   1.726   7.292  1.2470  3.6196  1.6264
  129OSM    C7F13873   4.468   1.814   7.281  0.0181 -0.6608 -0.7376
  129OSM    H7F13874   4.410   1.722   7.306  0.2579 -0.7319 -0.4358
  129OSM    H7G13875   4.412   1.867   7.202  1.0737  0.4702 -0.7403
  129OSM    C8F13876   4.469   1.920   7.403  0.5478 -0.7994  0.6708
  129OSM    H8F13877   4.361   1.941   7.419 -0.0209 -3.0049 -0.0935
  129OSM    H8G13878   4.518   2.011   7.363  1.0899 -1.6617 -0.6273
  129OSM    C9F13879   4.534   1.866   7.525  0.5120 -0.2906  0.0053
  129OSM    H9F13880   4.641   1.851   7.504  1.0665  2.8741  0.2842
  129OSM   C10F13881   4.476   1.833   7.644 -0.1467  0.0057 -0.2006
  129OSM   H10F13882   4.548   1.793   7.717  0.4480  1.2845 -0.0636
  129OSM   C11F13883   4.340   1.847   7.690  0.1558 -0.4936  0.0134
  129OSM   H11F13884   4.306   1.762   7.753  1.2546 -1.3175 -0.5016
  129OSM   H11G13885   4.261   1.866   7.614  0.5705 -0.8683 -0.5169
  129OSM   C12F13886   4.343   1.970   7.780  0.0445 -0.1801  0.3157
  129OSM   H12F13887   4.335   2.064   7.722  2.2310 -0.3393 -0.2673
  129OSM   H12G13888   4.431   1.997   7.843  0.9886 -0.5339 -0.8392
  129OSM   C13F13889   4.223   1.951   7.880 -0.2977  0.3643  0.3621
  129OSM   H13F13890   4.267   1.882   7.955  1.8596  1.3573  0.0525
  129OSM   H13G13891   4.139   1.897   7.831  0.6180  0.1073 -0.9569
  129OSM   C14F13892   4.177   2.077   7.948 -0.0437  0.6399 -0.4302
  129OSM   H14F13893   4.101   2.129   7.886 -0.8112  0.4692  0.3502
  129OSM   H14G13894   4.270   2.136   7.961  1.3276 -1.2020 -1.6746
  129OSM   C15F13895   4.129   2.042   8.093  0.5386 -0.0839 -0.1958
  129OSM   H15F13896   4.043   1.971   8.092  0.2987  0.2107 -0.6158
  129OSM   H15G13897   4.091   2.133   8.143  2.9325  0.8230  0.0457
  129OSM   C16F13898   4.236   1.970   8.179 -0.3575  1.1222  0.0158
  129OSM   H16F13899   4.334   2.011   8.145  0.2857 -0.5516 -0.1869
  129OSM   H16G13900   4.228   1.862   8.158  0.7584  0.6106  2.0704
  129OSM   C17F13901   4.218   1.977   8.329  0.1717  0.1420 -0.3808
  129OSM   H17F13902   4.126   1.922   8.358  2.2438 -2.1088  2.1686
  129OSM   H17G13903   4.206   2.086   8.348  0.7581 -0.0628  1.2549
  129OSM   C18F13904   4.327   1.918   8.413 -0.6302  0.2817 -0.0958
  129OSM   H18F13905   4.355   1.816   8.381  0.2698  0.3570  0.4170
  129OSM   H18G13906   4.289   1.908   8.517 -1.6116 -0.4199 -0.5167
  129OSM   H18H13907   4.413   1.989   8.411  1.4439 -2.1240  1.3489
  130OSM      N13908   5.451   5.082   5.730 -0.2995 -0.1805 -0.5148
  130OSM    C1513909   5.518   5.130   5.599  0.1165 -0.3535 -0.0715
  130OSM   H15A13910   5.617   5.087   5.599 -0.4122 -1.5889 -1.4711
  130OSM   H15B13911   5.527   5.237   5.587 -0.1492 -0.4807 -1.4618
  130OSM   H15C13912   5.465   5.092   5.513  0.1877 -0.6817  0.0301
  130OSM    C1413913   5.312   5.137   5.733  0.5387 -0.0392  0.3308
  130OSM   H14A13914   5.262   5.088   5.651  0.4264  1.5759 -0.5938
  130OSM   H14B13915   5.305   5.243   5.715  0.4470  0.0898  1.1363
  130OSM   H14C13916   5.253   5.111   5.819  2.0489 -1.7658  0.8859
  130OSM    C1313917   5.436   4.934   5.739 -0.0084 -0.2809  1.2331
  130OSM   H13A13918   5.378   4.892   5.659 -1.1171  0.3553  1.6888
  130OSM   H13B13919   5.388   4.911   5.834 -0.3141  1.6630  1.5662
  130OSM   H13C13920   5.534   4.888   5.739 -0.7622 -1.9202  0.2217
  130OSM    C1213921   5.522   5.134   5.856 -0.1711 -0.0663  0.2267
  130OSM   H12A13922   5.540   5.239   5.842  0.6885 -0.5046 -2.0649
  130OSM   H12B13923   5.624   5.099   5.862 -0.2538 -0.1412  1.5206
  130OSM    C1113924   5.459   5.113   6.004 -0.5222  0.0550 -0.5639
  130OSM   H11A13925   5.355   5.151   6.007 -0.4907  0.1943 -1.1483
  130OSM   H11B13926   5.513   5.177   6.077 -0.5854  0.3205 -0.7475
  130OSM      P13927   5.593   4.916   6.100  0.1902 -0.0294  0.3524
  130OSM    O1313928   5.567   4.772   6.144 -0.2625 -0.2884  0.6172
  130OSM    O1413929   5.711   4.941   6.011  0.1246 -0.3574  0.2209
  130OSM    O1113930   5.617   5.007   6.227 -0.1149 -0.0932  0.4094
  130OSM    O1213931   5.461   4.971   6.041 -0.8154 -0.0807  0.2585
  130OSM    C1S13932   5.512   5.035   6.319 -0.4806  0.1633 -0.0643
  130OSM    H1S13933   5.489   4.941   6.374  0.8103 -0.1399 -0.0381
  130OSM    H1T13934   5.421   5.069   6.265  1.1387  1.9244 -1.7686
  130OSM     NF13935   5.428   5.140   6.523  0.5728 -0.4209  0.0124
  130OSM    HNF13936   5.364   5.217   6.525 -0.6033 -1.3975  0.4554
  130OSM    C2S13937   5.545   5.140   6.434 -0.3471 -0.4395 -0.1817
  130OSM    H2S13938   5.630   5.098   6.492 -0.7018  0.4915  1.0252
  130OSM    C3S13939   5.590   5.276   6.367 -0.1070  0.8115  0.2314
  130OSM    H3S13940   5.494   5.311   6.325 -0.3813 -1.1936 -0.8571
  130OSM     O313941   5.695   5.269   6.268 -0.2402 -0.5059  0.5044
  130OSM    HO313942   5.701   5.173   6.256 -3.2014 -0.9023  1.6048
  130OSM    C4S13943   5.637   5.369   6.487 -0.0427 -0.0240  0.2291
  130OSM    H4S13944   5.565   5.452   6.493  1.1366  1.0119  0.3036
  130OSM    C5S13945   5.747   5.368   6.564 -0.3030  0.2696 -0.0052
  130OSM    H5S13946   5.813   5.283   6.544  0.4809  1.1372 -1.1808
  130OSM    C6S13947   5.784   5.467   6.673  0.0797 -0.0271 -0.4776
  130OSM    H6S13948   5.827   5.565   6.644  1.0820  0.0384  1.1957
  130OSM    H6T13949   5.869   5.414   6.721 -1.0084 -1.0306  0.3968
  130OSM    C7S13950   5.671   5.487   6.770  0.1301 -0.2617 -0.1589
  130OSM    H7S13951   5.633   5.393   6.817 -0.3400  0.4764  0.9596
  130OSM    H7T13952   5.579   5.537   6.733  0.5643  0.0306 -0.8455
  130OSM    C8S13953   5.705   5.587   6.884  0.2488  0.3327  0.7517
  130OSM    H8S13954   5.723   5.689   6.845  1.3453  0.0810  0.5860
  130OSM    H8T13955   5.804   5.552   6.918  0.1702 -1.2498 -0.6020
  130OSM    C9S13956   5.602   5.597   6.989 -0.5969 -0.0019 -0.5641
  130OSM    H9S13957   5.592   5.501   7.043  1.5100 -0.7695 -1.4683
  130OSM    H9T13958   5.506   5.630   6.944 -0.6499 -0.3819 -0.7261
  130OSM   C10S13959   5.647   5.681   7.110  0.2755 -0.2159 -0.5189
  130OSM   H10S13960   5.563   5.748   7.134 -1.1972 -3.0314  2.7070
  130OSM   H10T13961   5.740   5.738   7.087  0.3086  0.6792  1.6854
  130OSM   C11S13962   5.694   5.592   7.230 -0.2974  0.1725  0.2513
  130OSM   H11S13963   5.782   5.534   7.195 -0.9558 -0.2502 -0.7094
  130OSM   H11T13964   5.611   5.524   7.262  0.6192 -0.8339  0.5129
  130OSM   C12S13965   5.744   5.675   7.349 -0.1617  0.7545  0.2697
  130OSM   H12S13966   5.846   5.715   7.332  0.0642  0.2603  0.4706
  130OSM   H12T13967   5.758   5.608   7.436  0.0505 -1.9126 -1.7479
  130OSM   C13S13968   5.641   5.779   7.399  0.0504  0.4570  0.3551
  130OSM   H13S13969   5.539   5.736   7.400 -0.2589  1.1801  0.9144
  130OSM   H13T13970   5.647   5.863   7.327  1.7630 -1.4932 -1.8578
  130OSM   C14S13971   5.683   5.852   7.520 -0.3105 -0.6068 -0.1633
  130OSM   H14S13972   5.613   5.939   7.516  0.8953  0.4728  1.5145
  130OSM   H14T13973   5.784   5.896   7.512 -0.3897 -0.2652  0.6181
  130OSM   C15S13974   5.662   5.780   7.654 -0.9302 -0.4277  0.6995
  130OSM   H15S13975   5.734   5.696   7.670 -1.6355 -2.0085 -3.7923
  130OSM   H15T13976   5.566   5.724   7.657  0.2082 -2.5816 -1.0286
  130OSM   C16S13977   5.672   5.885   7.767 -0.0924 -0.1568  0.5675
  130OSM   H16S13978   5.597   5.962   7.738  0.2911  0.7699  2.0047
  130OSM   H16T13979   5.773   5.932   7.766 -0.4177  0.5952  1.6993
  130OSM   C17S13980   5.649   5.820   7.906 -0.1962 -0.5799  1.1184
  130OSM   H17S13981   5.711   5.728   7.914  2.1359  0.9808  1.4966
  130OSM   H17T13982   5.541   5.803   7.922 -0.0089  0.5069  3.8163
  130OSM   C18S13983   5.678   5.913   8.028  0.1699 -0.1042  0.3724
  130OSM   H18S13984   5.786   5.937   8.028  0.3193 -0.7720 -0.1457
  130OSM   H18T13985   5.636   5.877   8.124 -0.4892  0.4107  0.2847
  130OSM   H18U13986   5.614   6.001   8.001 -1.0243 -0.5557  1.6709
  130OSM    C1F13987   5.401   5.038   6.602 -0.2947  0.4956  0.1303
  130OSM     OF13988   5.465   4.936   6.607  0.6794  0.6065  0.8798
  130OSM    C2F13989   5.281   5.055   6.693  0.2122  0.5338 -0.5832
  130OSM    H2F13990   5.202   4.986   6.655  0.9920  0.1432 -1.5072
  130OSM    H2G13991   5.244   5.159   6.704 -2.2633 -0.5827  2.1744
  130OSM    C3F13992   5.308   4.989   6.834 -0.2555  0.2415  0.1137
  130OSM    H3F13993   5.398   5.032   6.883 -0.7385  0.0943  1.1432
  130OSM    H3G13994   5.318   4.878   6.838 -1.0031  0.1897  0.6569
  130OSM    C4F13995   5.190   5.017   6.932  0.4810 -0.8081  0.1030
  130OSM    H4F13996   5.110   4.958   6.883  0.9588  0.4604 -2.2363
  130OSM    H4G13997   5.175   5.126   6.948 -0.4125 -1.0168  0.7090
  130OSM    C5F13998   5.212   4.962   7.078 -0.7905  0.1601  0.4338
  130OSM    H5F13999   5.280   5.030   7.131 -0.2365  0.1867 -0.3070
  130OSM    H5G14000   5.256   4.860   7.088 -2.6693 -0.7510 -0.3108
  130OSM    C6F14001   5.081   4.952   7.154 -0.5168 -0.3714  0.5112
  130OSM    H6F14002   5.004   4.882   7.115 -1.1780  0.2253  0.7339
  130OSM    H6G14003   5.032   5.050   7.136 -0.8312 -0.5924  0.1526
  130OSM    C7F14004   5.091   4.921   7.301 -0.1029  0.2829  0.6112
  130OSM    H7F14005   5.152   4.999   7.351 -0.7942  0.6227  0.9348
  130OSM    H7G14006   5.153   4.829   7.310 -0.4821  0.1856  2.5052
  130OSM    C8F14007   4.955   4.907   7.373 -0.4273 -0.4774 -0.3632
  130OSM    H8F14008   4.906   5.006   7.366 -0.4384 -0.4576  0.0072
  130OSM    H8G14009   4.980   4.888   7.479  0.6665 -0.4147 -0.5970
  130OSM    C9F14010   4.846   4.813   7.334  1.2145  0.0367 -0.8248
  130OSM    H9F14011   4.756   4.856   7.287 -0.3312 -0.0301  1.9823
  130OSM   C10F14012   4.842   4.682   7.362  0.9873 -0.2661  0.6029
  130OSM   H10F14013   4.752   4.624   7.334  0.5022  1.0715 -0.6384
  130OSM   C11F14014   4.949   4.604   7.441  0.2428  0.3136 -0.1121
  130OSM   H11F14015   5.048   4.653   7.438 -0.5539  1.9412 -0.2701
  130OSM   H11G14016   4.967   4.512   7.380 -2.1341 -0.5722  0.4605
  130OSM   C12F14017   4.907   4.561   7.587  0.1736  0.0943  0.4453
  130OSM   H12F14018   4.941   4.465   7.632 -0.4220  0.5214  1.8239
  130OSM   H12G14019   4.797   4.554   7.600  0.3757 -2.3210  0.9624
  130OSM   C13F14020   4.966   4.664   7.688  0.0206 -0.0094 -0.0015
  130OSM   H13F14021   4.974   4.767   7.646  2.4271  0.8289  2.3465
  130OSM   H13G14022   5.074   4.642   7.699  0.1628 -0.1686 -1.6384
  130OSM   C14F14023   4.888   4.676   7.815  0.3802 -0.3610  0.8759
  130OSM   H14F14024   4.787   4.711   7.785 -1.3441 -1.9758  4.4846
  130OSM   H14G14025   4.926   4.749   7.889  1.9995 -1.3564  1.0469
  130OSM   C15F14026   4.868   4.544   7.899  0.0594  0.6191 -0.1995
  130OSM   H15F14027   4.964   4.493   7.920 -0.3740  0.5831  1.7832
  130OSM   H15G14028   4.803   4.478   7.837 -0.8400  1.5640 -0.2871
  130OSM   C16F14029   4.808   4.585   8.035 -0.3716 -0.9292  0.8423
  130OSM   H16F14030   4.715   4.641   8.008 -0.2726 -1.2439 -0.1964
  130OSM   H16G14031   4.871   4.652   8.097 -0.1917 -2.2920  2.1468
  130OSM   C17F14032   4.772   4.465   8.125 -0.0451 -0.8377  0.4026
  130OSM   H17F14033   4.691   4.408   8.076  1.0061 -1.8172 -0.2177
  130OSM   H17G14034   4.729   4.512   8.216 -2.0787 -1.1425 -0.3685
  130OSM   C18F14035   4.889   4.381   8.162  0.1671  0.1025 -0.0663
  130OSM   H18F14036   4.944   4.331   8.079  0.0562 -0.2872  0.0914
  130OSM   H18G14037   4.857   4.298   8.229 -0.2378  3.5358  4.1697
  130OSM   H18H14038   4.968   4.441   8.213  2.3313 -0.6699 -2.4067
  131OSM      N14039   5.819   2.768   6.164 -0.3644 -0.2742 -0.6770
  131OSM    C1514040   5.901   2.890   6.107  0.2742 -0.2533  0.1038
  131OSM   H15A14041   5.830   2.951   6.053 -0.3529  0.0098  1.2086
  131OSM   H15B14042   5.968   2.842   6.037  1.0888  1.9939 -0.6942
  131OSM   H15C14043   5.965   2.940   6.178  2.7605 -2.5497 -0.4311
  131OSM    C1414044   5.746   2.697   6.056  0.7140  0.8789  0.4980
  131OSM   H14A14045   5.803   2.653   5.975 -1.6625 -0.7644 -0.3681
  131OSM   H14B14046   5.666   2.756   6.013 -1.2491 -2.0258 -0.0409
  131OSM   H14C14047   5.696   2.621   6.115  0.0676  0.7735 -0.1720
  131OSM    C1314048   5.918   2.669   6.220  0.0862  0.7754  0.2378
  131OSM   H13A14049   5.870   2.581   6.259  0.3665  0.8946  0.8651
  131OSM   H13B14050   5.969   2.715   6.304 -1.4984 -0.0584  1.6960
  131OSM   H13C14051   5.981   2.623   6.146  0.0895  0.8913  0.1670
  131OSM    C1214052   5.724   2.813   6.276  0.3650  0.3243  1.1317
  131OSM   H12A14053   5.670   2.726   6.312  1.0255 -0.2718  0.6721
  131OSM   H12B14054   5.661   2.885   6.226  1.1317 -1.0097 -1.8717
  131OSM    C1114055   5.776   2.885   6.395  0.1753 -0.0195  0.2766
  131OSM   H11A14056   5.847   2.816   6.446 -1.9915 -0.6969  2.4581
  131OSM   H11B14057   5.695   2.894   6.470 -0.1733  0.2261 -0.1252
  131OSM      P14058   5.734   3.132   6.338 -0.1441  0.2430 -0.6180
  131OSM    O1314059   5.816   3.244   6.289  0.5642  0.4773 -0.5083
  131OSM    O1414060   5.624   3.089   6.251 -0.2228  0.3483  0.6131
  131OSM    O1114061   5.678   3.169   6.477 -0.4444 -0.6136  0.4126
  131OSM    O1214062   5.836   3.018   6.366 -0.5340 -0.4858  0.0794
  131OSM    C1S14063   5.777   3.210   6.576 -0.5687  0.4424 -0.0926
  131OSM    H1S14064   5.815   3.314   6.564 -1.3015  0.5294 -1.7861
  131OSM    H1T14065   5.865   3.143   6.571 -0.6756  0.2977 -0.0356
  131OSM     NF14066   5.823   3.207   6.821  0.4783 -0.8399  0.5317
  131OSM    HNF14067   5.880   3.128   6.845  2.3431 -0.0490 -1.1824
  131OSM    C2S14068   5.719   3.195   6.716 -0.1765 -0.7938  0.1641
  131OSM    H2S14069   5.647   3.279   6.733  1.0775 -0.1605  2.6250
  131OSM    C3S14070   5.633   3.069   6.738  0.6586 -0.0004 -0.3738
  131OSM    H3S14071   5.698   2.984   6.708 -0.8841 -1.5162  0.4954
  131OSM     O314072   5.520   3.042   6.655  0.3399  0.8275  0.6730
  131OSM    HO314073   5.542   3.096   6.578 -0.1261 -2.9889 -2.3154
  131OSM    C4S14074   5.594   3.054   6.885 -0.4417 -0.0260  0.0777
  131OSM    H4S14075   5.678   3.028   6.952 -0.9666  0.6528  1.0176
  131OSM    C5S14076   5.472   3.069   6.950 -0.6572 -0.7742  0.2955
  131OSM    H5S14077   5.391   3.108   6.886 -0.1763 -0.8119 -0.3434
  131OSM    C6S14078   5.442   3.056   7.096 -0.0497 -0.3131 -0.0756
  131OSM    H6S14079   5.356   2.987   7.107  0.6623 -1.3846 -1.2055
  131OSM    H6T14080   5.412   3.158   7.128 -1.3625 -0.3329 -1.2448
  131OSM    C7S14081   5.546   3.026   7.207 -0.2202 -0.4866 -0.0820
  131OSM    H7S14082   5.636   3.090   7.195  0.7950 -1.1659  3.3118
  131OSM    H7T14083   5.572   2.918   7.208 -2.0225 -0.9562 -1.8819
  131OSM    C8S14084   5.498   3.067   7.348  0.5258 -0.4469  0.3902
  131OSM    H8S14085   5.397   3.022   7.365 -0.3484  1.2486 -0.1976
  131OSM    H8T14086   5.480   3.177   7.350  1.8991 -0.1633 -1.3908
  131OSM    C9S14087   5.586   3.011   7.464  0.0571  0.1811  0.6911
  131OSM    H9S14088   5.692   3.041   7.455  0.7800 -2.1919  0.8112
  131OSM    H9T14089   5.582   2.900   7.475  0.5228  0.0034 -0.8949
  131OSM   C10S14090   5.536   3.078   7.595  0.5962 -0.1849  1.0898
  131OSM   H10S14091   5.425   3.082   7.599  0.5164  1.7282 -1.2148
  131OSM   H10T14092   5.582   3.178   7.602 -2.0654  1.2958 -1.1926
  131OSM   C11S14093   5.580   2.989   7.708 -0.0035  0.3722 -0.9966
  131OSM   H11S14094   5.690   2.986   7.719 -0.1596 -0.6561  0.4781
  131OSM   H11T14095   5.547   2.885   7.691 -0.0397  0.2396 -0.1703
  131OSM   C12S14096   5.522   3.026   7.850 -0.1716  0.0639 -0.0491
  131OSM   H12S14097   5.412   3.018   7.837  0.1448 -2.9639 -1.4979
  131OSM   H12T14098   5.551   3.130   7.877 -1.4460  0.3909  0.0823
  131OSM   C13S14099   5.559   2.936   7.971  0.6543  0.0195  0.2549
  131OSM   H13S14100   5.670   2.937   7.980  0.5598 -0.2804  1.6522
  131OSM   H13T14101   5.527   2.830   7.959  1.2936 -0.4613  2.4643
  131OSM   C14S14102   5.482   2.988   8.091 -0.5420 -0.2369 -0.1467
  131OSM   H14S14103   5.373   2.975   8.074 -0.7616 -0.3741  1.2952
  131OSM   H14T14104   5.488   3.097   8.111  1.1936 -0.4808  0.8114
  131OSM   C15S14105   5.510   2.926   8.219  1.1957  0.2237 -0.5469
  131OSM   H15S14106   5.614   2.945   8.254  1.0507 -2.9758  1.8017
  131OSM   H15T14107   5.506   2.815   8.222 -2.4091  0.3020 -0.7434
  131OSM   C16S14108   5.418   2.959   8.337 -0.2074  0.5487  0.4871
  131OSM   H16S14109   5.314   2.941   8.301 -0.0100  0.2725  0.0609
  131OSM   H16T14110   5.421   3.069   8.358 -0.6380  0.9970 -1.7512
  131OSM   C17S14111   5.421   2.855   8.461  0.8815 -0.3224  0.4213
  131OSM   H17S14112   5.523   2.852   8.506  0.5561 -1.9661  1.0657
  131OSM   H17T14113   5.388   2.754   8.429 -0.0521 -0.0916  0.6508
  131OSM   C18S14114   5.349   2.912   8.582  0.2238  0.8357 -0.6610
  131OSM   H18S14115   5.241   2.919   8.557  0.2374  0.2831 -0.8789
  131OSM   H18T14116   5.384   3.014   8.609  0.0047  0.5474  0.7280
  131OSM   H18U14117   5.354   2.850   8.674 -1.6392 -0.2539 -1.2818
  131OSM    C1F14118   5.891   3.322   6.843  0.3597  0.0610 -0.9653
  131OSM     OF14119   5.846   3.425   6.793  0.2641  0.2485 -0.1760
  131OSM    C2F14120   6.023   3.318   6.917 -0.5912  0.4892  0.2104
  131OSM    H2F14121   6.108   3.315   6.845 -0.3874  0.2701  0.4618
  131OSM    H2G14122   6.020   3.224   6.976 -0.5222  0.3437 -0.0174
  131OSM    C3F14123   6.032   3.435   7.020 -0.4498  0.3693 -0.2668
  131OSM    H3F14124   5.995   3.525   6.965 -0.0595  0.6459 -0.0780
  131OSM    H3G14125   6.138   3.446   7.050 -1.0739  1.9913  1.4496
  131OSM    C4F14126   5.940   3.422   7.144 -0.3057 -0.5532 -0.0999
  131OSM    H4F14127   5.853   3.368   7.101  0.9869 -2.0190 -0.9195
  131OSM    H4G14128   5.907   3.525   7.169 -0.5823 -1.2153  2.3252
  131OSM    C5F14129   6.000   3.360   7.255  0.4422  0.0699  0.1863
  131OSM    H5F14130   6.098   3.404   7.286 -0.3135  1.3308  0.8003
  131OSM    H5G14131   6.026   3.252   7.247  0.9459  0.3129 -1.5905
  131OSM    C6F14132   5.900   3.352   7.369  0.1829 -0.2130 -0.1796
  131OSM    H6F14133   5.817   3.285   7.337  0.9581 -1.8430  1.1114
  131OSM    H6G14134   5.860   3.446   7.411  1.9648  0.4380  0.1060
  131OSM    C7F14135   5.973   3.270   7.475  0.1320 -0.5132 -0.5794
  131OSM    H7F14136   6.074   3.315   7.484  0.3091 -0.9609 -0.2619
  131OSM    H7G14137   5.979   3.166   7.435  0.6552 -0.5270 -0.4623
  131OSM    C8F14138   5.910   3.255   7.612 -0.0239  0.0994  0.3752
  131OSM    H8F14139   5.959   3.171   7.665  1.3355  1.6639  1.6321
  131OSM    H8G14140   5.802   3.234   7.598  0.2842 -1.4082  0.1310
  131OSM    C9F14141   5.926   3.375   7.700 -0.8617 -0.4734  0.0318
  131OSM    H9F14142   5.913   3.474   7.655 -0.5659 -1.1664 -1.6358
  131OSM   C10F14143   5.963   3.367   7.829 -0.8581  0.3275  0.1608
  131OSM   H10F14144   5.982   3.454   7.893  2.1559 -0.6140  0.6413
  131OSM   C11F14145   5.984   3.243   7.916 -0.0594  0.6041 -0.2558
  131OSM   H11F14146   6.079   3.260   7.971 -1.1338 -0.3151  1.9172
  131OSM   H11G14147   6.006   3.145   7.867 -0.3798  1.1910 -1.5872
  131OSM   C12F14148   5.865   3.211   8.011 -0.0173 -0.0769 -0.2264
  131OSM   H12F14149   5.802   3.136   7.959 -1.0627  0.3179  0.4503
  131OSM   H12G14150   5.798   3.299   8.020 -0.4491 -0.4737  0.4516
  131OSM   C13F14151   5.908   3.173   8.154  0.4366  0.5815 -0.2661
  131OSM   H13F14152   5.993   3.103   8.160  0.4924  0.6687 -0.0013
  131OSM   H13G14153   5.815   3.133   8.200  0.9410  0.9058  1.0695
  131OSM   C14F14154   5.939   3.293   8.244  0.1745 -0.8782  0.7627
  131OSM   H14F14155   5.854   3.364   8.238  0.7830 -0.3531 -3.9404
  131OSM   H14G14156   6.011   3.362   8.194  0.2064 -0.2476  1.6722
  131OSM   C15F14157   5.978   3.251   8.391  0.4064  0.4059  0.6012
  131OSM   H15F14158   5.892   3.204   8.443  2.1545 -1.3873  1.9703
  131OSM   H15G14159   6.002   3.342   8.450  1.4782 -0.4675  1.5444
  131OSM   C16F14160   6.100   3.160   8.399  0.3148 -0.0546  0.4717
  131OSM   H16F14161   6.184   3.210   8.346 -0.4021 -0.9018 -1.5037
  131OSM   H16G14162   6.085   3.062   8.350 -1.2530 -0.4012  1.5995
  131OSM   C17F14163   6.162   3.132   8.537  0.6965 -0.5745  0.5761
  131OSM   H17F14164   6.203   3.228   8.576  0.5591 -0.3715  0.2210
  131OSM   H17G14165   6.252   3.071   8.512  1.6687  1.1878 -0.3608
  131OSM   C18F14166   6.062   3.066   8.625  0.6917 -0.5701 -0.1396
  131OSM   H18F14167   6.006   2.980   8.581 -2.3845  1.8135 -1.0383
  131OSM   H18G14168   5.981   3.140   8.646  0.3058 -1.1618  0.4933
  131OSM   H18H14169   6.090   3.046   8.731 -1.4563  0.8139  0.7282
  132OSM      N14170   1.214   6.769   6.239  0.1883  0.1594 -0.0254
  132OSM    C1514171   1.224   6.622   6.217 -0.1022  0.8060  0.1542
  132OSM   H15A14172   1.297   6.579   6.284 -0.3228  0.4552  0.1743
  132OSM   H15B14173   1.257   6.590   6.119 -0.7315  0.2325  0.1244
  132OSM   H15C14174   1.130   6.571   6.234  0.3376  0.1476  0.6530
  132OSM    C1414175   1.100   6.820   6.167 -0.0349  0.1546 -0.4983
  132OSM   H14A14176   1.002   6.777   6.183  0.1667 -1.3691 -2.9818
  132OSM   H14B14177   1.116   6.811   6.060 -0.8823  0.6698 -0.6806
  132OSM   H14C14178   1.086   6.926   6.184  0.9133  0.2762 -0.4410
  132OSM    C1314179   1.192   6.796   6.388 -1.0788 -0.8862  0.4179
  132OSM   H13A14180   1.194   6.902   6.412  1.0144 -1.3692  2.6059
  132OSM   H13B14181   1.275   6.749   6.438  0.0666  0.9259  0.2574
  132OSM   H13C14182   1.095   6.755   6.412 -0.5661 -1.0549  2.2373
  132OSM    C1214183   1.347   6.833   6.200 -0.1777  0.6690  0.4348
  132OSM   H12A14184   1.368   6.817   6.095  0.0685 -2.2963  0.8700
  132OSM   H12B14185   1.424   6.783   6.257 -1.2265 -2.2169 -0.5797
  132OSM    C1114186   1.368   6.988   6.230  0.1234 -0.0021  0.9220
  132OSM   H11A14187   1.464   7.008   6.178  0.0723  0.0830  0.8603
  132OSM   H11B14188   1.369   7.005   6.340 -3.1126 -0.4251  1.0511
  132OSM      P14189   1.262   7.221   6.186 -0.0038 -0.0633  0.1058
  132OSM    O1314190   1.379   7.291   6.140 -0.2906  0.2134  0.7144
  132OSM    O1414191   1.133   7.264   6.116  0.5030  0.2702 -0.1604
  132OSM    O1114192   1.264   7.255   6.337 -0.4328 -0.0347 -0.3163
  132OSM    O1214193   1.269   7.065   6.168  0.0361  0.4514 -0.1563
  132OSM    C1S14194   1.155   7.234   6.428  0.1075  0.2310 -0.3350
  132OSM    H1S14195   1.122   7.128   6.425 -0.3900  0.3992 -0.9029
  132OSM    H1T14196   1.072   7.305   6.406 -0.7916 -0.9573 -0.8387
  132OSM     NF14197   1.113   7.222   6.682 -0.8885 -0.6390  0.1474
  132OSM    HNF14198   1.033   7.279   6.701 -0.1888  1.3166 -2.4405
  132OSM    C2S14199   1.204   7.272   6.575 -0.9121 -0.3528 -0.5093
  132OSM    H2S14200   1.303   7.222   6.583 -0.9189 -0.3423 -0.3568
  132OSM    C3S14201   1.240   7.424   6.585 -0.2078 -0.4583 -0.6333
  132OSM    H3S14202   1.157   7.494   6.561  1.0067  0.8236 -1.1132
  132OSM     O314203   1.351   7.456   6.502  0.3841  0.3317  0.1403
  132OSM    HO314204   1.346   7.405   6.421  2.5838  0.5555 -0.1927
  132OSM    C4S14205   1.283   7.453   6.722 -0.4245  0.0413  0.0317
  132OSM    H4S14206   1.375   7.401   6.751 -1.0350 -0.3338  1.3768
  132OSM    C5S14207   1.217   7.523   6.814  0.1619  0.6851 -0.2470
  132OSM    H5S14208   1.121   7.569   6.788  0.4993  2.2163  1.1562
  132OSM    C6S14209   1.267   7.546   6.952 -0.1501 -0.4184 -0.5291
  132OSM    H6S14210   1.207   7.633   6.988 -0.8627 -1.0049 -0.2898
  132OSM    H6T14211   1.376   7.567   6.957  0.1841 -2.3345  0.9446
  132OSM    C7S14212   1.245   7.432   7.056  0.0385  0.0117  0.3110
  132OSM    H7S14213   1.311   7.353   7.014  2.0379  2.1985 -0.8095
  132OSM    H7T14214   1.139   7.398   7.062 -0.0864  0.2367 -0.5661
  132OSM    C8S14215   1.288   7.469   7.203 -0.9731 -0.0310  0.2372
  132OSM    H8S14216   1.246   7.569   7.227  0.8011  0.9613 -0.6833
  132OSM    H8T14217   1.399   7.475   7.196 -1.0037 -0.4526 -0.7150
  132OSM    C9S14218   1.249   7.375   7.314  0.4472  0.5807  0.4368
  132OSM    H9S14219   1.304   7.278   7.311  0.7623  0.7192  1.3641
  132OSM    H9T14220   1.139   7.357   7.311  0.5823 -0.2446  0.3804
  132OSM   C10S14221   1.279   7.430   7.457  0.0551 -0.2427 -0.3094
  132OSM   H10S14222   1.223   7.526   7.469  1.2971  0.4199  0.3558
  132OSM   H10T14223   1.385   7.462   7.456  0.2968 -0.9663  1.0751
  132OSM   C11S14224   1.261   7.332   7.575  0.3540 -0.1019 -0.5574
  132OSM   H11S14225   1.293   7.228   7.554 -0.8450 -0.1663 -2.1573
  132OSM   H11T14226   1.151   7.340   7.579  0.5391  2.1516  1.3521
  132OSM   C12S14227   1.329   7.382   7.702  0.2325  0.2210  0.2361
  132OSM   H12S14228   1.311   7.487   7.733 -1.7556 -0.0698  0.1136
  132OSM   H12T14229   1.437   7.387   7.674  0.5151 -0.0902  1.2395
  132OSM   C13S14230   1.321   7.280   7.816  0.4842 -0.1203  0.1723
  132OSM   H13S14231   1.335   7.175   7.784  0.6602 -0.2461  0.6573
  132OSM   H13T14232   1.222   7.301   7.861  1.7024  1.7785  2.0727
  132OSM   C14S14233   1.419   7.315   7.925 -1.4510  0.0237 -0.3871
  132OSM   H14S14234   1.409   7.423   7.951 -1.8994  0.2411 -1.4524
  132OSM   H14T14235   1.516   7.321   7.873 -1.2400  0.9456  0.1041
  132OSM   C15S14236   1.406   7.238   8.057  0.0801  0.4521  0.1120
  132OSM   H15S14237   1.302   7.255   8.094 -0.4650 -1.8932 -0.2726
  132OSM   H15T14238   1.480   7.281   8.129  0.1167 -1.4838  1.2548
  132OSM   C16S14239   1.447   7.091   8.044  0.0141 -0.2331 -0.7663
  132OSM   H16S14240   1.548   7.084   7.998 -0.8639 -0.4365 -2.6993
  132OSM   H16T14241   1.380   7.048   7.967 -1.2342  0.3638 -0.0348
  132OSM   C17S14242   1.446   7.015   8.179 -0.0097 -0.3163 -0.4036
  132OSM   H17S14243   1.341   7.012   8.213  0.8926  0.3690  2.5746
  132OSM   H17T14244   1.509   7.065   8.256  0.4956 -1.0298 -0.3434
  132OSM   C18S14245   1.505   6.871   8.177 -0.2086 -0.4179  0.1576
  132OSM   H18S14246   1.538   6.829   8.274 -0.6293 -0.9571  0.0654
  132OSM   H18T14247   1.596   6.874   8.112 -0.2269 -0.5479  0.1247
  132OSM   H18U14248   1.444   6.790   8.132 -1.9079  1.4709 -1.0518
  132OSM    C1F14249   1.103   7.091   6.700 -0.1332 -0.4036 -0.4861
  132OSM     OF14250   1.197   7.020   6.669  0.8352  0.6108  0.2215
  132OSM    C2F14251   0.969   7.029   6.735  0.2598  0.5144  0.1767
  132OSM    H2F14252   0.942   6.964   6.649  0.8215  0.0959  0.3102
  132OSM    H2G14253   0.891   7.107   6.748  0.4732  0.8452 -0.5267
  132OSM    C3F14254   0.976   6.932   6.853 -0.0433  0.5072 -0.9564
  132OSM    H3F14255   1.030   6.841   6.818  0.3879  0.5717 -0.4674
  132OSM    H3G14256   0.875   6.897   6.881  0.0018  0.6772 -0.5814
  132OSM    C4F14257   1.027   6.989   6.981  0.0833  1.1337  0.3292
  132OSM    H4F14258   0.971   7.084   6.992 -0.4408  0.6937  1.6743
  132OSM    H4G14259   1.137   7.007   6.975  0.9273 -3.5402 -0.0324
  132OSM    C5F14260   1.000   6.904   7.105 -0.3663 -0.2500 -0.4093
  132OSM    H5F14261   1.045   6.803   7.093  0.1546 -0.0213 -0.3746
  132OSM    H5G14262   0.891   6.891   7.118 -0.7070  0.9469 -1.9313
  132OSM    C6F14263   1.064   6.974   7.223 -0.0590  0.2565  0.4186
  132OSM    H6F14264   1.016   7.074   7.234 -1.1247 -0.2135  0.1312
  132OSM    H6G14265   1.168   6.999   7.193  0.4478 -1.4859  0.6677
  132OSM    C7F14266   1.066   6.885   7.354 -0.7575  0.3708  0.0399
  132OSM    H7F14267   1.124   6.795   7.325  0.1945  1.4397 -1.4561
  132OSM    H7G14268   0.967   6.849   7.388 -0.5658 -0.4249 -0.2393
  132OSM    C8F14269   1.141   6.963   7.470 -0.6344  1.6805 -0.4272
  132OSM    H8F14270   1.084   7.058   7.482 -0.5736  1.3722  2.7292
  132OSM    H8G14271   1.238   6.997   7.428 -0.1984  0.1170 -0.7102
  132OSM    C9F14272   1.171   6.882   7.594  0.5831 -0.2311 -0.5069
  132OSM    H9F14273   1.242   6.802   7.569  0.2152 -0.1650 -1.7944
  132OSM   C10F14274   1.139   6.902   7.723 -0.0648  0.7386  0.1105
  132OSM   H10F14275   1.172   6.834   7.802  0.9269  0.7435 -0.2934
  132OSM   C11F14276   1.066   7.018   7.774 -0.3608 -0.1511  0.0781
  132OSM   H11F14277   0.962   6.995   7.742 -0.6407  0.2310  0.7077
  132OSM   H11G14278   1.084   7.115   7.723  1.2502 -0.2152  0.5129
  132OSM   C12F14279   1.070   7.028   7.922  0.2344 -0.3929 -0.0945
  132OSM   H12F14280   1.174   7.061   7.945  0.2975 -0.0379 -0.8581
  132OSM   H12G14281   1.037   6.933   7.969 -1.4861 -0.0649 -0.6229
  132OSM   C13F14282   0.971   7.140   7.973  0.5213  0.1169  0.3550
  132OSM   H13F14283   0.862   7.119   7.960  0.1825  0.3813  2.5892
  132OSM   H13G14284   0.991   7.237   7.924 -1.2079 -1.5287 -3.9251
  132OSM   C14F14285   0.981   7.161   8.125  0.0825  0.1812  0.2517
  132OSM   H14F14286   1.083   7.204   8.135 -0.0385  1.1508 -2.3198
  132OSM   H14G14287   0.969   7.057   8.161  0.3179  0.0368 -0.0894
  132OSM   C15F14288   0.875   7.253   8.180  0.0338 -0.4777  0.4338
  132OSM   H15F14289   0.783   7.193   8.191 -0.6606  0.4359 -0.3244
  132OSM   H15G14290   0.858   7.339   8.112  1.1788 -1.1306 -0.7032
  132OSM   C16F14291   0.910   7.312   8.317 -0.1747 -0.0656 -0.2927
  132OSM   H16F14292   0.815   7.362   8.343  0.4498  2.3355 -2.4814
  132OSM   H16G14293   0.973   7.403   8.307  0.2375 -0.2172  0.8347
  132OSM   C17F14294   0.967   7.218   8.419 -0.7819  0.5586 -0.3001
  132OSM   H17F14295   1.068   7.192   8.380 -0.6066  0.4746  0.2023
  132OSM   H17G14296   0.914   7.120   8.419 -1.1661  0.6942  2.7792
  132OSM   C18F14297   0.961   7.273   8.559 -0.2359  0.3747 -0.3955
  132OSM   H18F14298   0.861   7.322   8.562 -0.8041 -0.7575 -0.5316
  132OSM   H18G14299   1.028   7.360   8.576 -1.5271  1.4695 -0.8263
  132OSM   H18H14300   0.977   7.209   8.648  1.0325  0.5671 -0.4752
  133SAPE     N14301   2.675   4.947  10.877  0.2798 -0.2294  0.9044
  133SAPE   HN114302   2.776   4.971  10.886  0.6453 -1.6499  0.5877
  133SAPE   HN214303   2.649   4.862  10.930 -2.6547  0.5883  0.8310
  133SAPE   HN314304   2.665   4.936  10.774  1.6316  0.2964  0.7032
  133SAPE   C1214305   2.587   5.062  10.924 -0.2504 -0.2399 -0.2613
  133SAPE  H12A14306   2.632   5.148  10.871 -0.8132  0.2176 -0.0112
  133SAPE  H12B14307   2.605   5.062  11.034  2.5223 -1.9990 -0.6792
  133SAPE   C1114308   2.441   5.039  10.885 -0.1736 -0.3151  0.1447
  133SAPE  H11A14309   2.432   5.040  10.774  4.2125  1.6674 -0.3003
  133SAPE  H11B14310   2.375   5.124  10.914  1.8486  1.4262 -0.2294
  133SAPE     P14311   2.247   4.880  10.914  0.1140  0.2132  0.0047
  133SAPE   O1314312   2.213   4.742  10.961  0.8110 -0.0715  0.0490
  133SAPE   O1414313   2.155   4.986  10.969  0.0459  0.0579 -0.2009
  133SAPE   O1214314   2.396   4.914  10.936  0.3248 -0.4001 -0.0078
  133SAPE   O1114315   2.236   4.883  10.756  0.6999 -0.2003  0.0105
  133SAPE    C114316   2.302   4.800  10.665 -0.0890 -0.1920  0.0295
  133SAPE    HA14317   2.397   4.851  10.638 -1.1993  1.0667 -1.6078
  133SAPE    HB14318   2.326   4.702  10.711 -1.2725 -0.8930 -0.8173
  133SAPE    C214319   2.225   4.765  10.538  0.0651 -0.4381  0.9635
  133SAPE    HS14320   2.283   4.688  10.484  0.6387  0.3462  0.4384
  133SAPE   O2114321   2.191   4.879  10.458  0.1882 -0.3370  0.0730
  133SAPE   C2114322   2.294   4.913  10.379  0.0511  0.3657 -0.2691
  133SAPE   O2214323   2.402   4.855  10.366  0.3446 -0.1904 -0.2642
  133SAPE   C2214324   2.255   5.024  10.285 -0.5223  0.2813  0.4101
  133SAPE   H2R14325   2.145   5.017  10.276 -0.7456  0.8891  2.3385
  133SAPE   H2S14326   2.282   5.121  10.332 -2.2221 -0.0152  2.0555
  133SAPE    C314327   2.093   4.692  10.579  0.1143  0.1721 -0.2093
  133SAPE    HX14328   2.008   4.753  10.541  1.6395  1.1611 -2.1166
  133SAPE    HY14329   2.095   4.682  10.690 -0.1299  1.3650 -0.0877
  133SAPE   O3114330   2.097   4.553  10.538 -0.0146  0.5185 -0.3311
  133SAPE   C3114331   1.985   4.487  10.521  0.0415 -0.1334 -0.4491
  133SAPE   O3214332   1.874   4.533  10.537 -1.0868 -0.1529 -1.1061
  133SAPE   C3214333   2.014   4.345  10.470  0.2156 -0.0569  0.0310
  133SAPE   H2X14334   1.922   4.283  10.474  0.4800 -0.3848  1.1399
  133SAPE   H2Y14335   2.083   4.292  10.539  0.6583  0.8418  0.2823
  133SAPE   C2314336   2.321   5.012  10.149  0.1921  0.4381  0.1056
  133SAPE   H3R14337   2.350   4.908  10.120 -0.4111  0.7153 -1.5658
  133SAPE   H3S14338   2.417   5.068  10.144 -0.3595  1.1898 -3.0818
  133SAPE   C2414339   2.227   5.058  10.029  0.1991 -0.7419  0.3154
  133SAPE   H4R14340   2.195   5.161  10.056 -0.6084 -0.8118 -0.3315
  133SAPE   H4S14341   2.134   4.998  10.023 -0.4528 -0.0931  3.4670
  133SAPE   C2514342   2.299   5.043   9.893 -0.4122  0.1149  0.3754
  133SAPE   H5R14343   2.323   4.943   9.853  2.2684  0.9048 -0.1064
  133SAPE   C2614344   2.342   5.139   9.806  0.5765  0.4661  0.3135
  133SAPE   H6R14345   2.394   5.109   9.713 -0.5648  1.2312 -0.5961
  133SAPE   C2714346   2.335   5.288   9.825  0.2886  0.6340 -0.7753
  133SAPE   H7R14347   2.302   5.325   9.924  0.2531 -1.3280 -0.0394
  133SAPE   H7S14348   2.257   5.321   9.752  0.0350 -2.7991 -2.1269
  133SAPE   C2814349   2.455   5.373   9.798 -0.0270 -0.3099  0.1787
  133SAPE   H8R14350   2.538   5.390   9.868 -0.0405 -0.2354  0.1777
  133SAPE   C2914351   2.473   5.450   9.685  0.9776 -0.4834 -0.5419
  133SAPE   H9R14352   2.565   5.508   9.668  0.0509  1.2050  0.0191
  133SAPE  C21014353   2.372   5.464   9.571 -0.6281 -0.6784  0.3697
  133SAPE  H10R14354   2.277   5.508   9.609 -1.0444 -0.8760 -0.4521
  133SAPE  H10S14355   2.342   5.363   9.536 -0.3918 -0.5218 -0.2738
  133SAPE  C21114356   2.424   5.537   9.450  0.4019  0.4124  0.0784
  133SAPE  H11R14357   2.502   5.611   9.475  1.0957  0.3828 -1.8181
  133SAPE  C21214358   2.390   5.534   9.321  0.1634  0.0761 -0.2510
  133SAPE  H12R14359   2.438   5.610   9.257  3.3651 -1.1291  0.6027
  133SAPE  C21314360   2.284   5.453   9.259 -0.7718 -0.0818 -1.6087
  133SAPE  H13R14361   2.199   5.524   9.249  0.5208  1.5104 -1.5104
  133SAPE  H13S14362   2.240   5.371   9.320  0.0845 -0.9909 -2.2034
  133SAPE  C21414363   2.329   5.403   9.120 -0.4479 -0.1166 -0.5159
  133SAPE  H14R14364   2.368   5.301   9.134 -0.3289  0.0992  0.7377
  133SAPE  C21514365   2.315   5.462   8.998 -0.7030 -0.6157 -0.4192
  133SAPE  H15R14366   2.348   5.403   8.911  0.8119  0.0233 -0.3019
  133SAPE  C21614367   2.261   5.595   8.964 -0.8875  0.5831  0.0475
  133SAPE  H16R14368   2.251   5.660   9.053 -0.0724 -1.9386  2.0405
  133SAPE  H16S14369   2.163   5.587   8.912 -2.1163 -1.2382  2.5611
  133SAPE  C21714370   2.344   5.659   8.846 -0.1463  0.8454  0.9125
  133SAPE  H17R14371   2.442   5.693   8.888  0.2993  1.2362 -0.4067
  133SAPE  H17S14372   2.282   5.748   8.824  0.1503  0.4858 -1.4325
  133SAPE  C21814373   2.350   5.576   8.709  0.2454  0.4047 -1.0082
  133SAPE  H18R14374   2.247   5.536   8.692 -0.1346  1.0812 -0.2852
  133SAPE  H18S14375   2.421   5.490   8.716 -0.9021 -0.5370 -0.6555
  133SAPE  C21914376   2.384   5.673   8.598 -0.0625  0.5410  0.6385
  133SAPE  H19R14377   2.297   5.741   8.597  0.5207  1.3207  1.8837
  133SAPE  H19S14378   2.387   5.606   8.510 -1.7921  0.4912  0.6064
  133SAPE  C22014379   2.510   5.756   8.617 -0.2312 -0.5823  0.4091
  133SAPE  H20R14380   2.602   5.697   8.636  0.2081 -0.0746 -0.1224
  133SAPE  H20S14381   2.486   5.828   8.699  0.4479 -0.2619  0.3299
  133SAPE  H20T14382   2.521   5.820   8.527  0.7692 -2.2098 -0.6309
  133SAPE   C3314383   2.066   4.338  10.326  0.2446 -0.3784 -0.0039
  133SAPE   H3X14384   2.067   4.229  10.304  1.6770 -0.5422  0.8219
  133SAPE   H3Y14385   2.174   4.361  10.323 -0.2571  2.3214  1.0821
  133SAPE   C3414386   1.982   4.419  10.218 -0.0650 -0.3543  0.3387
  133SAPE   H4X14387   2.009   4.526  10.233  2.3493 -0.7949 -0.6547
  133SAPE   H4Y14388   1.876   4.391  10.235  0.1917 -1.1625  0.5848
  133SAPE   C3514389   2.024   4.388  10.071 -0.3117  0.4418  0.4252
  133SAPE   H5X14390   1.999   4.283  10.044  0.0524  0.5948 -0.5063
  133SAPE   H5Y14391   2.133   4.412  10.080 -0.6127  1.9965  0.0803
  133SAPE   C3614392   1.950   4.479   9.976 -0.1425 -0.1311 -0.1716
  133SAPE   H6X14393   1.983   4.580  10.005  3.1530 -0.8956 -1.0041
  133SAPE   H6Y14394   1.843   4.474  10.005  0.4386  3.0662  2.7096
  133SAPE   C3714395   1.976   4.450   9.829 -0.2001 -0.6440  0.0036
  133SAPE   H7X14396   1.903   4.497   9.760 -0.3789  1.1267  1.3769
  133SAPE   H7Y14397   1.958   4.342   9.814 -3.7120 -0.3662  1.7430
  133SAPE   C3814398   2.112   4.506   9.790  0.1593 -0.5831  0.1622
  133SAPE   H8X14399   2.177   4.481   9.877  1.2755 -0.7971 -0.7273
  133SAPE   H8Y14400   2.090   4.614   9.806 -0.9182 -0.5160 -1.5985
  133SAPE   C3914401   2.166   4.470   9.656  0.2707 -0.1529 -0.5038
  133SAPE   H9X14402   2.178   4.360   9.664  1.2938  0.0304  0.6321
  133SAPE   H9Y14403   2.271   4.507   9.644  0.0156  0.8504  0.3319
  133SAPE  C31014404   2.079   4.494   9.535  0.0693  0.5695  0.5419
  133SAPE  H10X14405   2.078   4.598   9.496 -0.3775  0.8940  1.3941
  133SAPE  H10Y14406   1.975   4.459   9.553 -0.8408  2.3482 -1.0124
  133SAPE  C31114407   2.142   4.416   9.415 -0.4598 -0.2521  0.3120
  133SAPE  H11X14408   2.068   4.404   9.334 -0.2405  1.8082 -0.2272
  133SAPE  H11Y14409   2.157   4.309   9.440  0.5035 -0.5144 -1.2833
  133SAPE  C31214410   2.277   4.467   9.359 -0.0743  0.2352 -0.1793
  133SAPE  H12X14411   2.346   4.415   9.428 -2.0464  1.4910  2.8424
  133SAPE  H12Y14412   2.280   4.576   9.382  0.2591 -0.3076  2.4412
  133SAPE  C31314413   2.295   4.453   9.207  0.1550  0.1301 -0.2210
  133SAPE  H13X14414   2.203   4.481   9.152 -0.1683 -2.6836 -1.1675
  133SAPE  H13Y14415   2.310   4.345   9.190 -1.5330 -0.2972  0.9185
  133SAPE  C31414416   2.428   4.515   9.157  0.1483 -1.3496  0.0640
  133SAPE  H14X14417   2.508   4.459   9.211  0.4099 -0.8382  0.2124
  133SAPE  H14Y14418   2.437   4.624   9.175 -1.9952 -1.1597  0.0184
  133SAPE  C31514419   2.455   4.504   9.004 -0.4510 -0.0222  0.4335
  133SAPE  H15X14420   2.366   4.541   8.949  0.8009 -0.4691 -1.9842
  133SAPE  H15Y14421   2.459   4.395   8.980 -0.5078  0.3641 -1.4074
  133SAPE  C31614422   2.580   4.571   8.958  0.3924 -0.0919 -0.7809
  133SAPE  H16X14423   2.663   4.511   9.001  0.2997  0.4062  0.1200
  133SAPE  H16Y14424   2.589   4.669   9.011 -1.8877 -0.7824  0.9795
  133SAPE  C31714425   2.589   4.576   8.809 -0.3444  0.1604  0.7390
  133SAPE  H17X14426   2.670   4.645   8.778 -0.0666 -2.3362 -4.5762
  133SAPE  H17Y14427   2.490   4.607   8.771 -0.5873 -1.4345  0.0249
  133SAPE  C31814428   2.627   4.437   8.745 -0.1227  0.0544  0.2016
  133SAPE  H18X14429   2.537   4.374   8.759 -0.9364  1.5234  1.6852
  133SAPE  H18Y14430   2.718   4.384   8.782 -1.6461 -3.0533 -0.3557
  133SAPE  H18Z14431   2.644   4.443   8.635 -0.2833 -0.8824  0.1251
  134SAPE     N14432   5.122   5.184  10.752 -0.0536 -0.1389 -0.2430
  134SAPE   HN114433   5.193   5.117  10.790  2.4337  2.2379 -0.5373
  134SAPE   HN214434   5.120   5.258  10.825 -1.9007  0.2176 -0.6353
  134SAPE   HN314435   5.036   5.127  10.743  0.1746 -1.2152  3.4664
  134SAPE   C1214436   5.192   5.254  10.631 -0.4517 -0.0641 -0.0937
  134SAPE  H12A14437   5.183   5.189  10.541 -2.3454  0.5215 -0.3573
  134SAPE  H12B14438   5.298   5.267  10.660 -0.2448 -0.7113 -0.5576
  134SAPE   C1114439   5.114   5.382  10.601  0.0555 -0.5038  0.5638
  134SAPE  H11A14440   5.005   5.368  10.583  0.1919  0.7109 -1.3786
  134SAPE  H11B14441   5.153   5.434  10.511  0.7297 -1.7175  0.1515
  134SAPE     P14442   5.234   5.582  10.726 -0.0962 -0.4976  0.0780
  134SAPE   O1314443   5.198   5.700  10.645 -0.1700  0.2345  0.3414
  134SAPE   O1414444   5.271   5.598  10.868 -0.2290  0.3989 -0.2629
  134SAPE   O1214445   5.131   5.473  10.711 -0.0510 -0.4066 -0.6109
  134SAPE   O1114446   5.353   5.512  10.653  0.1794  0.3676 -0.4961
  134SAPE    C114447   5.464   5.575  10.581  0.8003 -0.0178  0.3812
  134SAPE    HA14448   5.472   5.685  10.593  1.9470 -0.2089  1.5148
  134SAPE    HB14449   5.559   5.530  10.617 -0.7769 -0.7760  3.8379
  134SAPE    C214450   5.454   5.544  10.433 -0.2211  0.2441  0.4550
  134SAPE    HS14451   5.538   5.598  10.384 -2.3664  0.7367 -2.8450
  134SAPE   O2114452   5.329   5.584  10.380 -0.3144  0.1107  0.0478
  134SAPE   C2114453   5.315   5.718  10.351  0.2734  0.1314  0.0367
  134SAPE   O2214454   5.398   5.805  10.372 -0.3638 -0.2980 -0.1252
  134SAPE   C2214455   5.184   5.735  10.284 -0.5942 -0.0808 -0.1664
  134SAPE   H2R14456   5.115   5.677  10.349 -0.2032 -0.1565  0.1854
  134SAPE   H2S14457   5.136   5.835  10.279 -0.8053  0.0048  2.6955
  134SAPE    C314458   5.465   5.399  10.415 -0.4179  0.1701 -0.1559
  134SAPE    HX14459   5.389   5.340  10.472  0.0195  0.8498  1.1448
  134SAPE    HY14460   5.562   5.353  10.443 -0.1599  1.1172  0.4974
  134SAPE   O3114461   5.461   5.374  10.276 -0.1558 -0.9299 -0.5268
  134SAPE   C3114462   5.361   5.304  10.227  0.9930 -0.1496 -0.1322
  134SAPE   O3214463   5.254   5.295  10.287  0.4840 -0.3693  0.1912
  134SAPE   C3214464   5.398   5.234  10.092  0.2437 -0.7925  0.0384
  134SAPE   H2X14465   5.309   5.178  10.056 -0.2181 -0.8667  1.2955
  134SAPE   H2Y14466   5.469   5.152  10.118  1.2789 -0.2097 -0.8732
  134SAPE   C2314467   5.174   5.663  10.145  0.6437 -0.7242  0.0143
  134SAPE   H3R14468   5.073   5.621  10.128  0.1133 -0.3876  2.1647
  134SAPE   H3S14469   5.236   5.571  10.138 -1.9629 -2.4922 -0.2665
  134SAPE   C2414470   5.208   5.762  10.025 -1.0279  0.1822  0.9636
  134SAPE   H4R14471   5.165   5.864  10.028 -0.7008  0.2909  2.4464
  134SAPE   H4S14472   5.181   5.701   9.936 -0.9032  0.5892  0.6466
  134SAPE   C2514473   5.359   5.789  10.020  0.2047 -0.0087  0.1115
  134SAPE   H5R14474   5.411   5.748  10.108  0.1404  1.1927  0.7199
  134SAPE   C2614475   5.427   5.866   9.930 -0.4293  0.4678  0.1517
  134SAPE   H6R14476   5.535   5.867   9.951 -0.3650  1.1588 -0.1958
  134SAPE   C2714477   5.372   5.948   9.821  0.7404  0.3641  0.1631
  134SAPE   H7R14478   5.373   6.056   9.847  0.0995  1.1010 -2.7546
  134SAPE   H7S14479   5.265   5.937   9.794  0.9894  0.7517 -0.9738
  134SAPE   C2814480   5.444   5.968   9.689 -0.1892  0.1577  0.2621
  134SAPE   H8R14481   5.533   6.034   9.687 -0.5633  0.6359 -1.0338
  134SAPE   C2914482   5.420   5.886   9.580  0.0076  0.3984 -0.3984
  134SAPE   H9R14483   5.471   5.913   9.486  1.3001  2.2084  0.7992
  134SAPE  C21014484   5.325   5.768   9.568  0.1891 -0.5154 -0.4589
  134SAPE  H10R14485   5.324   5.728   9.672  3.4035  0.3782 -0.0452
  134SAPE  H10S14486   5.382   5.702   9.499 -0.6164 -0.6911 -0.9656
  134SAPE  C21114487   5.183   5.802   9.518 -0.9335 -0.0690 -0.3157
  134SAPE  H11R14488   5.100   5.803   9.591 -0.3402 -1.4124  0.4019
  134SAPE  C21214489   5.143   5.816   9.388  0.0116  0.7528  0.5129
  134SAPE  H12R14490   5.041   5.852   9.365 -0.8851 -3.6149 -2.8349
  134SAPE  C21314491   5.233   5.792   9.268  0.3254 -0.7373  0.2290
  134SAPE  H13R14492   5.181   5.725   9.196 -0.7772  0.0510  0.2707
  134SAPE  H13S14493   5.331   5.742   9.282  1.3255  1.6086  1.9315
  134SAPE  C21414494   5.256   5.923   9.201 -0.5488 -0.2673  0.3519
  134SAPE  H14R14495   5.262   6.005   9.274  2.3330  0.3971 -0.5720
  134SAPE  C21514496   5.272   5.958   9.070 -0.7244  0.3399  0.9389
  134SAPE  H15R14497   5.290   6.063   9.040 -0.2446  0.4653  1.6507
  134SAPE  C21614498   5.255   5.857   8.955  0.2008 -0.7600 -0.4264
  134SAPE  H16R14499   5.252   5.753   8.994  1.3125 -0.9671 -0.8800
  134SAPE  H16S14500   5.338   5.867   8.882  0.1079  1.6423 -0.2723
  134SAPE  C21714501   5.127   5.880   8.873 -0.0074  0.3612 -0.2220
  134SAPE  H17R14502   5.114   5.803   8.793  0.1669  0.3572 -0.2475
  134SAPE  H17S14503   5.126   5.971   8.809  1.2830 -0.7526 -1.8917
  134SAPE  C21814504   4.996   5.878   8.952  0.2875  0.0720  0.2708
  134SAPE  H18R14505   4.984   5.978   9.000  3.2902 -0.0433  1.3804
  134SAPE  H18S14506   5.009   5.801   9.031 -2.4734  0.4649  1.1437
  134SAPE  C21914507   4.865   5.858   8.880  0.8775  0.0913 -0.7940
  134SAPE  H19R14508   4.837   5.943   8.814 -1.2591  0.9699  1.1823
  134SAPE  H19S14509   4.783   5.849   8.955  0.3165  0.6423 -1.3342
  134SAPE  C22014510   4.854   5.721   8.805 -1.2265  0.0021  0.1657
  134SAPE  H20R14511   4.885   5.737   8.699  0.9120  1.8443  1.0092
  134SAPE  H20S14512   4.751   5.681   8.810 -1.0912 -1.0702 -3.5395
  134SAPE  H20T14513   4.922   5.642   8.843  1.0799  0.7039 -2.2635
  134SAPE   C3314514   5.429   5.331   9.983 -0.4667  0.0749 -0.0305
  134SAPE   H3X14515   5.520   5.312   9.922  0.3982 -1.2470  1.6246
  134SAPE   H3Y14516   5.461   5.421  10.038 -0.0121 -0.5985  0.8215
  134SAPE   C3414517   5.319   5.381   9.894  0.3598  0.3085 -0.5684
  134SAPE   H4X14518   5.235   5.428   9.949  1.4091 -0.0441  1.3576
  134SAPE   H4Y14519   5.267   5.301   9.837 -1.6716  1.6988 -0.7564
  134SAPE   C3514520   5.360   5.472   9.782 -0.0283  0.1377  0.2157
  134SAPE   H5X14521   5.407   5.563   9.825 -3.3620  1.4617  1.2310
  134SAPE   H5Y14522   5.268   5.504   9.728  0.6870 -0.8670 -1.6379
  134SAPE   C3614523   5.440   5.412   9.669 -1.0896  0.9173  0.8973
  134SAPE   H6X14524   5.524   5.364   9.725 -0.7960  1.3156  0.7988
  134SAPE   H6Y14525   5.484   5.488   9.601 -2.5226  0.7114 -0.2856
  134SAPE   C3714526   5.382   5.321   9.561  0.2500  0.0364  0.1843
  134SAPE   H7X14527   5.312   5.244   9.599  0.8787  0.1670  1.6706
  134SAPE   H7Y14528   5.463   5.279   9.498 -1.6888 -0.7269 -1.8610
  134SAPE   C3814529   5.307   5.402   9.457 -0.7081  0.0630 -0.1742
  134SAPE   H8X14530   5.376   5.448   9.383 -2.1095  0.8779 -1.0120
  134SAPE   H8Y14531   5.247   5.481   9.507 -1.2397 -0.0785 -0.5858
  134SAPE   C3914532   5.209   5.311   9.378  0.0197 -0.0539  0.0629
  134SAPE   H9X14533   5.134   5.281   9.455  0.2690 -2.2420 -0.5017
  134SAPE   H9Y14534   5.268   5.223   9.345  0.3102  0.3807 -0.5630
  134SAPE  C31014535   5.146   5.371   9.253 -0.3448 -0.5340 -0.3344
  134SAPE  H10X14536   5.218   5.443   9.209  2.2749 -2.4110  0.7424
  134SAPE  H10Y14537   5.056   5.421   9.295  0.6598  0.0985  1.0868
  134SAPE  C31114538   5.115   5.271   9.139  0.6631 -0.5692  0.1210
  134SAPE  H11X14539   5.049   5.193   9.180  0.9943 -0.4834  0.8294
  134SAPE  H11Y14540   5.211   5.225   9.107  0.7149  0.0088 -0.5792
  134SAPE  C31214541   5.064   5.332   9.011  0.4947  0.2291  0.3851
  134SAPE  H12X14542   5.139   5.399   8.965  1.2243 -1.1346 -0.4622
  134SAPE  H12Y14543   4.972   5.391   9.032 -0.3804 -1.6677  2.1282
  134SAPE  C31314544   5.026   5.232   8.901  0.0654  0.5557 -0.2662
  134SAPE  H13X14545   4.955   5.159   8.944 -1.0302  2.2701  0.9022
  134SAPE  H13Y14546   5.119   5.184   8.864  0.4178  0.3920  0.8158
  134SAPE  C31414547   4.949   5.300   8.782  0.4222  0.1953 -0.3691
  134SAPE  H14X14548   4.866   5.360   8.824  0.6814 -0.4002  0.9973
  134SAPE  H14Y14549   4.908   5.227   8.708  3.9582 -0.1681 -2.0874
  134SAPE  C31514550   5.032   5.399   8.699  0.5853  0.1170 -0.6297
  134SAPE  H15X14551   5.060   5.484   8.766 -1.1473 -0.1765  0.5091
  134SAPE  H15Y14552   4.960   5.449   8.631 -0.6334 -0.2349  0.3847
  134SAPE  C31614553   5.160   5.344   8.635  0.3311 -0.0531 -0.7470
  134SAPE  H16X14554   5.129   5.249   8.588 -0.3596 -0.5535  0.6948
  134SAPE  H16Y14555   5.228   5.331   8.722 -0.2288 -0.0117 -0.2986
  134SAPE  C31714556   5.219   5.431   8.519  0.0642  0.5065 -0.1554
  134SAPE  H17X14557   5.218   5.536   8.555  1.8243  0.0676  1.1920
  134SAPE  H17Y14558   5.158   5.438   8.426  0.8360  1.1353 -0.6249
  134SAPE  C31814559   5.358   5.381   8.480 -0.3503  1.0019  0.3407
  134SAPE  H18X14560   5.338   5.287   8.424 -0.6987  0.5983  1.1221
  134SAPE  H18Y14561   5.419   5.352   8.568  0.2547 -0.5153 -0.5679
  134SAPE  H18Z14562   5.411   5.453   8.415 -0.6979  0.2189 -0.8107
  135SAPE     N14563   4.306   4.057  10.666  0.0871 -0.3507  0.2844
  135SAPE   HN114564   4.321   4.158  10.686 -1.7512 -0.0356  0.1103
  135SAPE   HN214565   4.203   4.044  10.672 -0.1690  0.6864 -1.4512
  135SAPE   HN314566   4.365   4.010  10.738  0.1731 -0.5107  0.1066
  135SAPE   C1214567   4.357   4.023  10.523  0.2702 -0.7658  0.2367
  135SAPE  H12A14568   4.318   4.097  10.450  0.5352 -1.5343 -0.6960
  135SAPE  H12B14569   4.327   3.918  10.506 -2.3070 -0.4838  2.6261
  135SAPE   C1114570   4.513   4.021  10.536  0.6891  0.5169 -0.4262
  135SAPE  H11A14571   4.569   3.986  10.447  3.0043 -0.6401  1.3969
  135SAPE  H11B14572   4.534   3.945  10.615 -0.6281 -0.9559 -1.4738
  135SAPE     P14573   4.697   4.151  10.656 -0.0512 -0.1592 -0.2829
  135SAPE   O1314574   4.753   4.288  10.683 -0.0288 -0.1137 -0.4330
  135SAPE   O1414575   4.674   4.079  10.776 -0.1445  0.0842 -0.7093
  135SAPE   O1214576   4.558   4.154  10.571  0.0600 -0.2871  0.0632
  135SAPE   O1114577   4.795   4.067  10.555  1.0633 -0.1107 -0.4046
  135SAPE    C114578   4.807   4.110  10.418 -0.3641 -0.5123  0.3124
  135SAPE    HA14579   4.716   4.143  10.364  0.4830  1.3665 -0.0317
  135SAPE    HB14580   4.889   4.185  10.408 -1.7075  0.6087 -2.9981
  135SAPE    C214581   4.862   3.991  10.337 -0.1266  0.2891 -0.0163
  135SAPE    HS14582   4.807   3.901  10.372 -1.4602  0.6711 -1.0447
  135SAPE   O2114583   5.006   3.982  10.356  0.0392 -0.2724  0.1066
  135SAPE   C2114584   5.057   3.920  10.467 -0.3366  0.2507 -0.4869
  135SAPE   O2214585   4.984   3.867  10.550 -0.1978  0.0963 -0.2224
  135SAPE   C2214586   5.217   3.918  10.461  0.0222 -0.8809  0.3173
  135SAPE   H2R14587   5.248   4.017  10.420 -2.0364 -0.3062  0.0923
  135SAPE   H2S14588   5.253   3.905  10.565  1.0467  2.2076  0.3921
  135SAPE    C314589   4.835   4.012  10.187 -0.7197 -0.0876 -0.2804
  135SAPE    HX14590   4.886   3.939  10.121 -0.5364 -0.8689  0.7083
  135SAPE    HY14591   4.876   4.112  10.164 -1.5364  0.2105 -0.4445
  135SAPE   O3114592   4.686   4.025  10.161 -0.6669 -0.3851  0.2990
  135SAPE   C3114593   4.639   3.891  10.165  1.1646 -0.7145  0.4355
  135SAPE   O3214594   4.709   3.798  10.161 -0.3687  0.4014 -0.2294
  135SAPE   C3214595   4.485   3.884  10.177  0.2387 -0.5343  0.2343
  135SAPE   H2X14596   4.449   3.982  10.139 -0.3322 -0.8187  0.0327
  135SAPE   H2Y14597   4.449   3.873  10.282 -0.3503  1.0274  0.2190
  135SAPE   C2314598   5.277   3.811  10.372  0.0616  0.2155  0.3317
  135SAPE   H3R14599   5.224   3.715  10.383 -1.0839  0.5598 -1.8125
  135SAPE   H3S14600   5.384   3.801  10.401  0.4679 -0.6519 -1.3796
  135SAPE   C2414601   5.270   3.852  10.223 -0.0221 -0.0018  0.1313
  135SAPE   H4R14602   5.309   3.956  10.228  1.9907 -0.7240 -0.1140
  135SAPE   H4S14603   5.162   3.855  10.196 -0.1753 -1.1046  0.6291
  135SAPE   C2514604   5.353   3.753  10.142  0.3445  0.9576 -0.0578
  135SAPE   H5R14605   5.451   3.723  10.181 -0.4189 -2.1687 -0.3832
  135SAPE   C2614606   5.314   3.703  10.023 -0.2201  0.3318 -0.6092
  135SAPE   H6R14607   5.371   3.621   9.978  0.5938  0.2176  0.6063
  135SAPE   C2714608   5.184   3.737   9.947 -0.4592  0.0203  0.3731
  135SAPE   H7R14609   5.184   3.698   9.843 -0.8802  1.8690 -0.3413
  135SAPE   H7S14610   5.159   3.845   9.941 -2.5624 -0.4179  0.8019
  135SAPE   C2814611   5.062   3.674  10.012  0.3061 -0.0143  0.0758
  135SAPE   H8R14612   5.075   3.645  10.117  0.3532 -1.2368 -0.2594
  135SAPE   C2914613   4.929   3.666   9.959 -0.1433  0.1578 -0.3938
  135SAPE   H9R14614   4.856   3.610  10.019 -0.3410  2.8660  1.9596
  135SAPE  C21014615   4.887   3.705   9.818  0.2208 -0.2256  0.4528
  135SAPE  H10R14616   4.896   3.614   9.755 -0.5737 -0.3119  0.4576
  135SAPE  H10S14617   4.960   3.781   9.784 -0.4824 -0.2127 -1.0549
  135SAPE  C21114618   4.745   3.763   9.824  0.5483 -0.2915 -0.4404
  135SAPE  H11R14619   4.701   3.759   9.925  1.2771 -0.0404 -0.1043
  135SAPE  C21214620   4.674   3.804   9.712 -0.5832  0.0582  0.3839
  135SAPE  H12R14621   4.577   3.853   9.725  0.7865  3.1347 -0.3915
  135SAPE  C21314622   4.735   3.802   9.573 -0.0893  0.1102  0.6809
  135SAPE  H13R14623   4.655   3.792   9.496  1.9009 -1.5822 -1.2499
  135SAPE  H13S14624   4.798   3.711   9.565 -2.1996 -1.1528 -2.9488
  135SAPE  C21414625   4.831   3.915   9.540  0.0462  0.1085  0.6709
  135SAPE  H14R14626   4.882   3.948   9.632 -1.2622  0.1698  1.3969
  135SAPE  C21514627   4.862   3.970   9.418 -0.1174  0.6758 -0.6004
  135SAPE  H15R14628   4.932   4.052   9.402 -1.4053  1.8963 -0.0678
  135SAPE  C21614629   4.800   3.923   9.292  0.9769 -0.0745  0.4288
  135SAPE  H16R14630   4.812   4.006   9.219  0.6546  0.0416  0.5053
  135SAPE  H16S14631   4.691   3.904   9.298  1.1066 -1.4019 -1.2474
  135SAPE  C21714632   4.865   3.796   9.228 -0.5989  0.3053  0.4146
  135SAPE  H17R14633   4.807   3.754   9.143  0.6738  0.2248 -0.4318
  135SAPE  H17S14634   4.869   3.715   9.304  0.6503 -1.7848 -1.7750
  135SAPE  C21814635   5.015   3.809   9.196  0.3299  0.0912  0.5088
  135SAPE  H18R14636   5.066   3.713   9.176 -1.3434 -0.9739  1.1936
  135SAPE  H18S14637   5.075   3.848   9.281  0.0873  1.0619  0.2411
  135SAPE  C21914638   5.055   3.888   9.064  0.8531  0.0326 -0.4727
  135SAPE  H19R14639   5.158   3.869   9.028  1.6181 -1.5131  2.3819
  135SAPE  H19S14640   5.050   3.997   9.082 -0.4306  0.2131 -1.8002
  135SAPE  C22014641   4.958   3.869   8.947 -0.0580 -0.4500  0.1526
  135SAPE  H20R14642   4.947   3.759   8.936 -1.4622 -0.2752 -0.3189
  135SAPE  H20S14643   4.992   3.923   8.857  0.4759 -1.8313 -0.4921
  135SAPE  H20T14644   4.869   3.921   8.987 -0.3906 -0.4407 -0.5909
  135SAPE   C3314645   4.426   3.771  10.089  0.6455  0.8529 -0.1953
  135SAPE   H3X14646   4.442   3.672  10.137 -1.6939  1.2158  1.4262
  135SAPE   H3Y14647   4.479   3.768   9.992 -1.2999 -2.6917 -1.2017
  135SAPE   C3414648   4.273   3.793  10.054  0.2376 -0.1603  0.0151
  135SAPE   H4X14649   4.254   3.888   9.999 -1.7293 -0.2005  0.5651
  135SAPE   H4Y14650   4.223   3.800  10.153 -0.0298 -0.2559 -0.1124
  135SAPE   C3514651   4.212   3.674   9.970 -0.8264  0.4090 -0.1053
  135SAPE   H5X14652   4.105   3.701   9.964 -0.7443  1.0499  1.0060
  135SAPE   H5Y14653   4.240   3.580  10.022  0.3666  0.1806 -1.1311
  135SAPE   C3614654   4.263   3.669   9.822  0.3347  0.0093 -0.3179
  135SAPE   H6X14655   4.372   3.654   9.813  0.2979 -0.2940 -0.2540
  135SAPE   H6Y14656   4.219   3.756   9.767  0.5992 -0.2503 -0.9387
  135SAPE   C3714657   4.207   3.550   9.747  0.2717  0.7060  0.0618
  135SAPE   H7X14658   4.122   3.507   9.803 -1.0025  0.7482 -1.7764
  135SAPE   H7Y14659   4.289   3.476   9.742 -0.5836 -0.2521  0.2459
  135SAPE   C3814660   4.181   3.581   9.594  0.1047  0.1433  0.5545
  135SAPE   H8X14661   4.087   3.639   9.582  0.4514  0.1922 -2.1368
  135SAPE   H8Y14662   4.158   3.486   9.543  0.0114  0.1944  0.5020
  135SAPE   C3914663   4.299   3.657   9.531 -0.2741  0.7278  0.3208
  135SAPE   H9X14664   4.398   3.608   9.541 -1.2034 -0.5747  3.7315
  135SAPE   H9Y14665   4.302   3.764   9.561 -0.7752 -0.0611  3.3072
  135SAPE  C31014666   4.278   3.666   9.378  0.0740  0.5126  0.2712
  135SAPE  H10X14667   4.180   3.718   9.366  0.6433  1.6273  0.4194
  135SAPE  H10Y14668   4.271   3.560   9.346 -0.4041  0.3832  0.7908
  135SAPE  C31114669   4.383   3.748   9.306 -0.4119  0.0548 -0.0332
  135SAPE  H11X14670   4.473   3.683   9.315 -1.9459 -2.5011 -2.5669
  135SAPE  H11Y14671   4.403   3.848   9.350 -1.1492  0.1939 -0.0075
  135SAPE  C31214672   4.355   3.768   9.160 -0.1101  0.0276  0.4883
  135SAPE  H12X14673   4.338   3.670   9.112  1.0901 -0.4957  1.0979
  135SAPE  H12Y14674   4.443   3.808   9.105  0.7161  0.6639  2.2342
  135SAPE  C31314675   4.223   3.836   9.126 -0.3374 -0.5468 -0.5970
  135SAPE  H13X14676   4.207   3.926   9.189  0.9426 -0.4029 -0.4686
  135SAPE  H13Y14677   4.129   3.780   9.146 -1.0903  0.8629 -0.1229
  135SAPE  C31414678   4.232   3.901   8.983  0.3859 -0.1617 -0.9486
  135SAPE  H14X14679   4.234   3.826   8.902  0.5488 -1.1614 -0.0276
  135SAPE  H14Y14680   4.325   3.961   8.982  0.8803 -0.9314 -0.6870
  135SAPE  C31514681   4.108   3.981   8.958  0.0704 -0.0731  0.6266
  135SAPE  H15X14682   4.112   4.072   9.022  1.3119 -0.8994  1.7629
  135SAPE  H15Y14683   4.019   3.919   8.984  2.4535 -3.5070  0.9797
  135SAPE  C31614684   4.082   4.021   8.808  0.6123 -0.7818 -0.3204
  135SAPE  H16X14685   4.069   3.924   8.756  0.7279  0.1576 -2.1307
  135SAPE  H16Y14686   4.179   4.057   8.766  0.4414 -1.4232 -1.2846
  135SAPE  C31714687   3.962   4.113   8.776  0.2587  0.4711 -0.2092
  135SAPE  H17X14688   3.967   4.211   8.829  2.9710  0.4728 -0.4225
  135SAPE  H17Y14689   3.873   4.054   8.806  1.6264 -0.4442  2.2046
  135SAPE  C31814690   3.961   4.142   8.629 -0.4988  0.3268  0.3797
  135SAPE  H18X14691   3.855   4.154   8.598 -1.1523 -3.8198  0.6686
  135SAPE  H18Y14692   4.003   4.061   8.566 -1.2601  0.8035 -0.7402
  135SAPE  H18Z14693   4.023   4.229   8.599 -1.0606  0.7838  0.5197
  136SAPE     N14694   0.828   3.949  10.784 -0.5443 -0.2844 -0.1914
  136SAPE   HN114695   0.827   3.861  10.838 -1.9837  0.4151  0.9751
  136SAPE   HN214696   0.749   4.008  10.817 -0.5346  0.1302 -0.8852
  136SAPE   HN314697   0.821   3.930  10.682 -0.0102 -1.4842 -0.0076
  136SAPE   C1214698   0.957   4.030  10.795  0.6666 -0.6563  0.2493
  136SAPE  H12A14699   0.963   4.076  10.896 -2.0283  1.8553 -0.6792
  136SAPE  H12B14700   0.943   4.115  10.725  0.2629 -0.2734  0.7913
  136SAPE   C1114701   1.078   3.942  10.753 -0.3552  0.1159 -0.0755
  136SAPE  H11A14702   1.168   4.007  10.755  0.7373 -1.3988  0.4562
  136SAPE  H11B14703   1.056   3.913  10.648  3.6062  0.0720 -0.9502
  136SAPE     P14704   1.052   3.692  10.832  0.4476 -0.2388 -0.2512
  136SAPE   O1314705   1.111   3.608  10.938 -0.3533  0.4182 -0.8541
  136SAPE   O1414706   0.905   3.696  10.812 -0.2643  0.2325  0.2434
  136SAPE   O1214707   1.104   3.838  10.848  0.0119 -0.0902 -0.1577
  136SAPE   O1114708   1.117   3.653  10.692  0.6623 -0.3704 -0.4471
  136SAPE    C114709   1.219   3.561  10.655  0.4223 -0.2543 -0.2553
  136SAPE    HA14710   1.312   3.601  10.700  0.1356 -0.9551  0.9846
  136SAPE    HB14711   1.195   3.464  10.704 -1.5397  0.4986  0.3466
  136SAPE    C214712   1.233   3.546  10.498  0.2252 -0.1788 -0.2140
  136SAPE    HS14713   1.339   3.519  10.482  1.0200  2.1999  0.8227
  136SAPE   O2114714   1.202   3.675  10.428  0.4826  0.2832 -0.4017
  136SAPE   C2114715   1.289   3.769  10.458 -0.2246 -0.8315 -0.5786
  136SAPE   O2214716   1.371   3.775  10.547 -0.0895 -0.2113  0.6453
  136SAPE   C2214717   1.271   3.890  10.367 -0.1590 -0.3120  0.0753
  136SAPE   H2R14718   1.275   3.979  10.433 -0.0730  0.3905 -0.8678
  136SAPE   H2S14719   1.350   3.891  10.288 -2.1832  0.2129 -1.9997
  136SAPE    C314720   1.150   3.425  10.441  0.0221  0.3776 -0.0438
  136SAPE    HX14721   1.045   3.440  10.474 -0.5902 -0.4829 -1.5268
  136SAPE    HY14722   1.190   3.329  10.480 -0.7297 -1.1221 -2.8276
  136SAPE   O3114723   1.176   3.412  10.304  0.8579 -0.6337  0.5133
  136SAPE   C3114724   1.079   3.434  10.218  0.2787 -0.4459  0.2114
  136SAPE   O3214725   0.968   3.481  10.247  0.2470 -0.3286 -0.6005
  136SAPE   C3214726   1.127   3.379  10.083  0.4154  0.1349 -0.6648
  136SAPE   H2X14727   1.103   3.271  10.073 -0.9647  0.5766 -2.3669
  136SAPE   H2Y14728   1.237   3.389  10.072  0.6136 -0.2523  0.8166
  136SAPE   C2314729   1.134   3.906  10.296  0.3222  0.1775  0.3494
  136SAPE   H3R14730   1.056   3.914  10.375  0.2007 -2.5587  0.5300
  136SAPE   H3S14731   1.121   3.817  10.231  2.1150  0.7094 -0.7589
  136SAPE   C2414732   1.122   4.027  10.201 -0.3500 -0.6818  0.4021
  136SAPE   H4R14733   1.200   4.018  10.122  0.3260  0.8116  0.8861
  136SAPE   H4S14734   1.148   4.117  10.260 -3.0904  0.4018  0.0329
  136SAPE   C2514735   0.987   4.042  10.139  0.3830 -0.3512 -0.3127
  136SAPE   H5R14736   0.900   4.031  10.205  1.2718 -1.3477  0.7046
  136SAPE   C2614737   0.962   4.062  10.008 -0.4887  0.1069  0.3248
  136SAPE   H6R14738   0.859   4.064   9.968 -0.4077  1.0235  0.1478
  136SAPE   C2714739   1.052   4.092   9.888 -0.1999 -0.6127 -0.1605
  136SAPE   H7R14740   1.150   4.125   9.930  1.7449 -4.3490 -1.5405
  136SAPE   H7S14741   0.994   4.168   9.832 -1.0277 -0.4054  0.9663
  136SAPE   C2814742   1.073   3.968   9.815 -0.0697  0.1786 -0.2557
  136SAPE   H8R14743   1.104   3.876   9.869  2.6857  1.6641  0.7731
  136SAPE   C2914744   1.084   3.958   9.682  0.3149 -0.3631  0.2769
  136SAPE   H9R14745   1.095   3.863   9.626  1.9775 -0.1061  0.1420
  136SAPE  C21014746   1.071   4.074   9.587  0.2555 -1.1296  0.1767
  136SAPE  H10R14747   1.117   4.165   9.629  0.9931  0.2713 -3.4237
  136SAPE  H10S14748   0.964   4.102   9.574 -0.1278 -2.7075 -0.2459
  136SAPE  C21114749   1.132   4.059   9.450  0.0032  0.2913 -0.2850
  136SAPE  H11R14750   1.241   4.056   9.460 -0.1682 -1.5855  1.3858
  136SAPE  C21214751   1.070   4.042   9.331 -0.9725 -0.1332 -0.2502
  136SAPE  H12R14752   1.131   4.049   9.239  0.9271 -0.2238  0.9726
  136SAPE  C21314753   0.920   4.050   9.306 -0.0316  0.1063 -0.4725
  136SAPE  H13R14754   0.888   4.152   9.335  2.2067  0.6177  0.2548
  136SAPE  H13S14755   0.866   3.974   9.367  0.0622  0.9993  0.7531
  136SAPE  C21414756   0.883   4.024   9.164  0.8476  0.1189 -0.3138
  136SAPE  H14R14757   0.844   3.922   9.152 -1.8004  0.7732  2.1337
  136SAPE  C21514758   0.854   4.117   9.066 -0.2890  0.2120  0.0812
  136SAPE  H15R14759   0.837   4.069   8.969 -1.8783 -0.5781  0.7281
  136SAPE  C21614760   0.855   4.271   9.085  0.0063 -0.2257 -0.3446
  136SAPE  H16R14761   0.903   4.324   9.000 -0.1842 -1.7966 -1.4492
  136SAPE  H16S14762   0.924   4.291   9.170 -0.3856 -0.2772 -0.0151
  136SAPE  C21714763   0.712   4.319   9.103 -0.0236  0.1603  0.5121
  136SAPE  H17R14764   0.669   4.291   9.201 -0.9386 -0.5582 -0.0751
  136SAPE  H17S14765   0.646   4.274   9.025  1.6291 -0.4257 -0.5758
  136SAPE  C21814766   0.683   4.468   9.079 -0.3101 -0.9301 -0.5103
  136SAPE  H18R14767   0.576   4.473   9.053 -0.2574 -0.5317 -0.6533
  136SAPE  H18S14768   0.744   4.490   8.988 -1.4383  0.8580 -0.8516
  136SAPE  C21914769   0.731   4.555   9.199  0.3059  0.4249  0.2328
  136SAPE  H19R14770   0.727   4.662   9.169 -0.3300 -0.0259 -1.3363
  136SAPE  H19S14771   0.841   4.550   9.216  0.0504 -1.8451  1.4196
  136SAPE  C22014772   0.650   4.531   9.324  0.1505  0.5269 -0.2676
  136SAPE  H20R14773   0.662   4.615   9.397 -1.0828  1.1205 -0.7305
  136SAPE  H20S14774   0.675   4.434   9.371 -0.0013  0.1408 -0.9812
  136SAPE  H20T14775   0.540   4.526   9.306  0.0532 -0.5420  0.6127
  136SAPE   C3314776   1.043   3.448   9.975  0.1044 -0.2580 -0.2643
  136SAPE   H3X14777   1.056   3.558   9.979  0.6601 -0.2947 -1.0789
  136SAPE   H3Y14778   0.936   3.421   9.987 -0.0818  0.3091 -0.6192
  136SAPE   C3414779   1.070   3.398   9.833 -0.0761 -0.3612 -0.7586
  136SAPE   H4X14780   1.033   3.293   9.832 -0.0427 -0.3645 -1.9743
  136SAPE   H4Y14781   1.180   3.401   9.825  0.3721 -2.8958  2.9493
  136SAPE   C3514782   1.014   3.478   9.718  0.0919 -0.5016  0.1499
  136SAPE   H5X14783   1.030   3.587   9.732 -1.3946  0.0453 -2.0764
  136SAPE   H5Y14784   0.904   3.465   9.714 -0.1353  0.9557  1.6202
  136SAPE   C3614785   1.088   3.445   9.582  0.4340 -0.4009  0.0049
  136SAPE   H6X14786   1.067   3.339   9.554  0.1853 -0.4951  0.5479
  136SAPE   H6Y14787   1.197   3.457   9.600  0.2186  0.8349  0.5260
  136SAPE   C3714788   1.041   3.546   9.479 -0.0811 -0.3080  0.3935
  136SAPE   H7X14789   1.058   3.649   9.515  2.0644 -0.3899 -0.3324
  136SAPE   H7Y14790   0.931   3.537   9.468 -0.0067  0.5744 -1.1784
  136SAPE   C3814791   1.110   3.525   9.345 -0.3997 -0.7750 -0.9948
  136SAPE   H8X14792   1.125   3.418   9.317 -1.2611 -0.7289 -1.6800
  136SAPE   H8Y14793   1.208   3.576   9.352 -1.1441  0.4916  0.6623
  136SAPE   C3914794   1.035   3.606   9.235  1.1029 -0.5397 -0.5614
  136SAPE   H9X14795   1.011   3.707   9.274 -1.6018  0.1788 -3.8238
  136SAPE   H9Y14796   0.940   3.557   9.205 -0.3839  2.5313 -1.1009
  136SAPE  C31014797   1.132   3.621   9.117 -0.3277 -0.4810 -0.1233
  136SAPE  H10X14798   1.134   3.526   9.060 -0.2939 -0.0421 -0.8579
  136SAPE  H10Y14799   1.240   3.633   9.144  0.1876  1.1059 -2.7477
  136SAPE  C31114800   1.090   3.737   9.024  0.6397 -0.1989  0.2372
  136SAPE  H11X14801   1.094   3.838   9.069  0.8657  0.4041 -1.1279
  136SAPE  H11Y14802   0.984   3.711   9.001  1.5076 -3.4196 -0.3899
  136SAPE  C31214803   1.185   3.737   8.902  0.4423 -0.1827  0.1666
  136SAPE  H12X14804   1.220   3.638   8.866  0.0688 -0.1239 -0.3618
  136SAPE  H12Y14805   1.281   3.787   8.930  1.5313 -1.6116 -0.9564
  136SAPE  C31314806   1.122   3.805   8.785 -0.0904  0.0304  0.1467
  136SAPE  H13X14807   1.076   3.902   8.816  0.3861  0.2797  0.0734
  136SAPE  H13Y14808   1.034   3.751   8.744  0.3280  0.4635 -1.3405
  136SAPE  C31414809   1.230   3.832   8.679 -0.1693  0.2955  0.3817
  136SAPE  H14X14810   1.329   3.825   8.729 -0.2814  1.1344  0.7228
  136SAPE  H14Y14811   1.216   3.934   8.637  1.0059  0.2130 -0.2195
  136SAPE  C31514812   1.224   3.735   8.563 -0.2382  0.0235 -0.1185
  136SAPE  H15X14813   1.117   3.745   8.535  0.4112 -1.3195 -3.3107
  136SAPE  H15Y14814   1.235   3.630   8.599  0.1428  0.2841  0.5344
  136SAPE  C31614815   1.326   3.765   8.452  0.3965  0.7092 -0.5654
  136SAPE  H16X14816   1.418   3.769   8.513  0.2152  0.0252 -0.2428
  136SAPE  H16Y14817   1.297   3.867   8.416  0.4256  0.3844 -1.5265
  136SAPE  C31714818   1.318   3.659   8.341 -0.9374 -0.1839  0.1323
  136SAPE  H17X14819   1.215   3.641   8.302 -1.0086  0.4895  0.0071
  136SAPE  H17Y14820   1.367   3.574   8.393 -1.1932  0.4476  1.4147
  136SAPE  C31814821   1.409   3.696   8.212 -0.3413  0.1234  0.4342
  136SAPE  H18X14822   1.515   3.687   8.244  0.0527  1.3599 -0.5012
  136SAPE  H18Y14823   1.379   3.801   8.189 -0.2143  0.1576  0.4255
  136SAPE  H18Z14824   1.390   3.630   8.125  0.2100  0.6491 -0.0876
  137SAPE     N14825   5.451   6.496  10.873 -0.4481 -0.3473  0.1457
  137SAPE   HN114826   5.411   6.497  10.777  0.2367  1.5015 -0.1400
  137SAPE   HN214827   5.384   6.460  10.944 -0.4522 -0.5229  0.0538
  137SAPE   HN314828   5.449   6.598  10.892 -1.3651 -0.2990 -0.1850
  137SAPE   C1214829   5.590   6.439  10.872  0.4444 -0.1187 -0.0031
  137SAPE  H12A14830   5.592   6.329  10.853 -1.7831 -0.1812 -0.0834
  137SAPE  H12B14831   5.639   6.475  10.965 -2.0139  0.4462  1.1223
  137SAPE   C1114832   5.662   6.488  10.746  0.7530 -0.1254 -0.6216
  137SAPE  H11A14833   5.619   6.442  10.655  0.2950  0.1290 -0.5352
  137SAPE  H11B14834   5.765   6.447  10.736  0.2237 -1.3275 -1.1404
  137SAPE     P14835   5.790   6.720  10.813 -0.0517  0.0806  0.1028
  137SAPE   O1314836   5.775   6.717  10.960  0.5021  0.0834 -0.4724
  137SAPE   O1414837   5.921   6.681  10.758  0.9461 -0.7255 -0.1330
  137SAPE   O1214838   5.680   6.632  10.739  0.7582  0.0379 -0.2646
  137SAPE   O1114839   5.764   6.868  10.765  0.3647 -0.0301 -0.2389
  137SAPE    C114840   5.658   6.912  10.682 -0.4508 -0.4484 -0.5085
  137SAPE    HA14841   5.570   6.843  10.682  1.1729 -2.5848  0.4204
  137SAPE    HB14842   5.625   7.016  10.703  1.8529  0.2695 -0.3133
  137SAPE    C214843   5.694   6.917  10.530  0.1918  0.6052  0.1594
  137SAPE    HS14844   5.609   6.971  10.483 -1.0068 -1.5191 -0.1579
  137SAPE   O2114845   5.702   6.777  10.481 -0.5709 -0.4692 -1.0285
  137SAPE   C2114846   5.581   6.731  10.453 -0.1826 -0.9043 -0.0092
  137SAPE   O2214847   5.479   6.787  10.486  0.1915  0.6654  0.6156
  137SAPE   C2214848   5.593   6.594  10.388  0.0551 -0.8734 -0.1188
  137SAPE   H2R14849   5.679   6.533  10.426  0.3134 -0.5140 -0.1288
  137SAPE   H2S14850   5.497   6.540  10.401 -1.1094  0.1649 -3.8770
  137SAPE    C314851   5.817   7.004  10.498 -0.1372 -0.1120 -0.3610
  137SAPE    HX14852   5.906   6.966  10.553  0.2467  1.8879  0.4409
  137SAPE    HY14853   5.803   7.111  10.523  0.7225  0.0547 -0.5687
  137SAPE   O3114854   5.851   7.008  10.353 -0.1559  0.6422  0.8666
  137SAPE   C3114855   5.918   6.901  10.299 -0.4344 -0.9668  0.4427
  137SAPE   O3214856   5.959   6.814  10.372 -0.1564 -0.1951 -0.0648
  137SAPE   C3214857   5.913   6.892  10.147 -0.2563 -0.5572 -0.4014
  137SAPE   H2X14858   5.990   6.964  10.111  0.1835 -0.5318  0.5901
  137SAPE   H2Y14859   5.814   6.924  10.108 -1.3870 -1.1744  1.9344
  137SAPE   C2314860   5.609   6.601  10.230  0.6433  0.3524 -0.5258
  137SAPE   H3R14861   5.640   6.498  10.202  1.1696  0.1237  0.8532
  137SAPE   H3S14862   5.699   6.661  10.207  0.3798  0.7772 -0.4463
  137SAPE   C2414863   5.489   6.643  10.155  0.6702 -0.0317  0.2052
  137SAPE   H4R14864   5.404   6.584  10.195  0.4720 -0.9107 -1.4332
  137SAPE   H4S14865   5.484   6.600  10.052  1.6287 -1.1075  0.5897
  137SAPE   C2514866   5.470   6.791  10.148  0.1012  0.2277  0.1186
  137SAPE   H5R14867   5.430   6.831  10.243  1.6053  0.7220  0.5511
  137SAPE   C2614868   5.481   6.879  10.050 -0.0201  0.6155  0.3642
  137SAPE   H6R14869   5.455   6.984  10.071  0.6420  0.9833 -0.6071
  137SAPE   C2714870   5.528   6.845   9.913  0.1783  0.5732 -0.3204
  137SAPE   H7R14871   5.574   6.746   9.895  2.8393  1.6569  0.2592
  137SAPE   H7S14872   5.606   6.923   9.899  2.0650 -1.0942  0.7390
  137SAPE   C2814873   5.408   6.877   9.825 -0.3398  0.1392 -0.0825
  137SAPE   H8R14874   5.320   6.928   9.866  0.1753 -1.6040  3.3770
  137SAPE   C2914875   5.423   6.872   9.693 -0.2601  0.1087  0.1317
  137SAPE   H9R14876   5.343   6.888   9.620 -0.6375 -0.4934  0.4063
  137SAPE  C21014877   5.554   6.835   9.623  0.0334  0.2124  0.4734
  137SAPE  H10R14878   5.633   6.802   9.694  1.3294  2.0413 -0.0778
  137SAPE  H10S14879   5.604   6.923   9.577 -2.1143 -0.2797 -3.0379
  137SAPE  C21114880   5.534   6.719   9.524  0.5320  0.7553  0.0826
  137SAPE  H11R14881   5.543   6.619   9.569  1.3791  0.0962 -1.4999
  137SAPE  C21214882   5.500   6.728   9.395 -0.1321 -0.1111 -0.2407
  137SAPE  H12R14883   5.496   6.633   9.339 -1.0149 -1.2564  1.7143
  137SAPE  C21314884   5.487   6.852   9.311  0.6849  0.2816  0.4432
  137SAPE  H13R14885   5.592   6.859   9.275 -0.1400  2.0172 -1.7785
  137SAPE  H13S14886   5.476   6.948   9.367  2.6600  1.7481 -1.5972
  137SAPE  C21414887   5.386   6.844   9.198  0.5043  0.0951  0.2255
  137SAPE  H14R14888   5.294   6.896   9.225 -0.0580  0.1828 -1.7573
  137SAPE  C21514889   5.400   6.795   9.074 -0.4910 -0.2480  0.1234
  137SAPE  H15R14890   5.312   6.797   9.009 -1.7271  0.6765  1.7699
  137SAPE  C21614891   5.529   6.732   9.025 -0.3477  0.2777  0.3925
  137SAPE  H16R14892   5.509   6.624   9.034  0.0292  0.2372  0.7601
  137SAPE  H16S14893   5.616   6.739   9.095  0.0082 -2.7074  0.2939
  137SAPE  C21714894   5.581   6.775   8.883 -0.2914 -0.0079 -0.1111
  137SAPE  H17R14895   5.670   6.712   8.865  0.7334  0.9157  1.6307
  137SAPE  H17S14896   5.608   6.883   8.887  3.1156 -0.8066 -0.3877
  137SAPE  C21814897   5.473   6.776   8.767 -0.2719 -0.2810  0.2513
  137SAPE  H18R14898   5.392   6.848   8.790  1.8239  1.8005  1.2192
  137SAPE  H18S14899   5.408   6.686   8.772 -2.0950  0.9776 -0.3131
  137SAPE  C21914900   5.525   6.784   8.627  0.6536 -0.7705  0.4098
  137SAPE  H19R14901   5.612   6.716   8.613 -0.5013 -2.3344  0.7204
  137SAPE  H19S14902   5.552   6.891   8.614  1.8916 -1.0762  0.4003
  137SAPE  C22014903   5.428   6.744   8.516 -0.1541 -0.4678  0.9323
  137SAPE  H20R14904   5.391   6.642   8.542  1.2311 -0.5193  2.8115
  137SAPE  H20S14905   5.477   6.742   8.416  2.2371 -1.9640  2.1121
  137SAPE  H20T14906   5.337   6.808   8.513 -0.4955 -0.8250  3.2640
  137SAPE   C3314907   5.955   6.754  10.097 -0.1995  0.2811 -0.5477
  137SAPE   H3X14908   5.924   6.657  10.141  0.7057  0.3605  0.2909
  137SAPE   H3Y14909   6.066   6.767  10.101 -0.4107  2.2574 -0.6942
  137SAPE   C3414910   5.935   6.735   9.949  1.0591 -0.3500 -0.1494
  137SAPE   H4X14911   5.835   6.692   9.931  0.6433  0.0332  1.2083
  137SAPE   H4Y14912   6.022   6.670   9.922  2.2646  1.5064 -0.8001
  137SAPE   C3514913   5.948   6.856   9.863 -0.5304 -0.3770  0.6311
  137SAPE   H5X14914   6.030   6.929   9.878  0.9629 -1.7799 -0.5549
  137SAPE   H5Y14915   5.852   6.906   9.890  0.1090  0.5353  1.2194
  137SAPE   C3614916   5.934   6.811   9.715  0.5642  0.6812 -0.0185
  137SAPE   H6X14917   5.869   6.878   9.654  0.1084  1.4872  1.3524
  137SAPE   H6Y14918   5.892   6.708   9.710 -0.0395  0.9939 -2.0305
  137SAPE   C3714919   6.072   6.802   9.637  0.4041 -0.1841  0.3532
  137SAPE   H7X14920   6.144   6.742   9.696  1.1588 -1.4098 -1.7717
  137SAPE   H7Y14921   6.105   6.908   9.642 -0.8168  0.2789 -1.1856
  137SAPE   C3814922   6.037   6.747   9.491  0.5744 -0.2858 -0.5235
  137SAPE   H8X14923   5.968   6.661   9.493  1.5293 -1.0355  0.5517
  137SAPE   H8Y14924   6.136   6.711   9.455 -0.1530 -2.8151 -0.0527
  137SAPE   C3914925   5.980   6.855   9.396  0.6549 -0.0006  0.6502
  137SAPE   H9X14926   6.043   6.946   9.406  1.2760 -0.3750  0.1676
  137SAPE   H9Y14927   5.882   6.887   9.437 -0.1758  3.0133 -3.4088
  137SAPE  C31014928   5.960   6.803   9.255  0.0222  0.0929  0.3341
  137SAPE  H10X14929   5.894   6.713   9.254 -0.3653  0.3800 -0.2019
  137SAPE  H10Y14930   6.056   6.770   9.211  1.0209  2.7595  0.4585
  137SAPE  C31114931   5.905   6.915   9.162  0.3231 -0.0538  0.2200
  137SAPE  H11X14932   5.964   7.008   9.175  1.3776 -0.7541  0.4755
  137SAPE  H11Y14933   5.803   6.941   9.199  0.8636 -0.5035  2.0841
  137SAPE  C31214934   5.908   6.892   9.017 -0.1540  0.0683 -0.7640
  137SAPE  H12X14935   5.856   6.976   8.966  1.2167  0.0370 -2.2646
  137SAPE  H12Y14936   5.834   6.810   9.012 -1.7623  1.5502 -1.7006
  137SAPE  C31314937   6.043   6.861   8.951  0.6596  0.3861 -0.6712
  137SAPE  H13X14938   6.089   6.775   9.005 -0.4890 -0.5050 -1.0970
  137SAPE  H13Y14939   6.100   6.955   8.962 -1.7835  1.7372  0.6930
  137SAPE  C31414940   6.025   6.821   8.803 -0.5154 -0.1895 -0.1163
  137SAPE  H14X14941   5.942   6.886   8.770 -1.6093 -1.7782 -0.5607
  137SAPE  H14Y14942   5.993   6.717   8.781  2.6301 -1.8399  2.5464
  137SAPE  C31514943   6.136   6.876   8.716 -0.5825 -0.0992  0.4024
  137SAPE  H15X14944   6.225   6.827   8.759  2.6847  2.8798 -2.6816
  137SAPE  H15Y14945   6.138   6.985   8.738  2.4603  0.4298 -2.2146
  137SAPE  C31614946   6.109   6.858   8.562  0.2130  0.1112 -0.1959
  137SAPE  H16X14947   6.071   6.756   8.539  1.0343  0.5874 -3.8298
  137SAPE  H16Y14948   6.206   6.885   8.517  0.1019 -1.0502 -1.1549
  137SAPE  C31714949   6.004   6.953   8.500  1.2463 -0.5041  0.1500
  137SAPE  H17X14950   6.039   6.974   8.396  0.8465  1.0548  0.3145
  137SAPE  H17Y14951   6.017   7.052   8.549 -1.1858  0.4377 -1.0230
  137SAPE  C31814952   5.856   6.921   8.506 -0.2322 -0.5376  0.2286
  137SAPE  H18X14953   5.814   6.915   8.609 -3.1284  2.8553 -0.6352
  137SAPE  H18Y14954   5.824   6.834   8.446  0.7385 -0.3771 -0.5356
  137SAPE  H18Z14955   5.797   7.005   8.464  0.5023 -0.8834 -1.5447
  138SAPE     N14956   2.624   0.813  10.697 -0.1334  0.3943 -0.5607
  138SAPE   HN114957   2.664   0.731  10.648  2.4228  1.9105 -1.0916
  138SAPE   HN214958   2.564   0.858  10.625 -0.3945 -1.4044 -1.4832
  138SAPE   HN314959   2.705   0.877  10.709  3.0191 -3.0643 -2.0429
  138SAPE   C1214960   2.552   0.779  10.829 -0.2478 -0.0398  0.3253
  138SAPE  H12A14961   2.632   0.746  10.899  0.6250  2.1287  0.3895
  138SAPE  H12B14962   2.497   0.688  10.797 -2.5885  1.3131  0.4139
  138SAPE   C1114963   2.475   0.887  10.886 -0.4177  0.1205 -0.1216
  138SAPE  H11A14964   2.530   0.978  10.918 -1.5606  1.0344 -0.7138
  138SAPE  H11B14965   2.434   0.836  10.976  1.6203  1.0205  1.3617
  138SAPE     P14966   2.234   0.971  10.848 -0.1576 -0.3604 -0.4489
  138SAPE   O1314967   2.171   0.878  10.949 -0.1261 -0.1491 -0.3627
  138SAPE   O1414968   2.241   1.120  10.879 -0.5983 -0.1512  0.3120
  138SAPE   O1214969   2.374   0.924  10.792 -0.3336 -0.3111  0.2702
  138SAPE   O1114970   2.138   0.952  10.723  0.3159 -0.4257  0.1291
  138SAPE    C114971   2.128   0.835  10.652  0.5778  0.2374  0.6755
  138SAPE    HA14972   2.123   0.742  10.713 -1.7525 -1.0556 -1.3659
  138SAPE    HB14973   2.036   0.847  10.590  0.2529  2.1998  1.5020
  138SAPE    C214974   2.255   0.822  10.549  0.8038  0.5019 -0.0399
  138SAPE    HS14975   2.345   0.804  10.612  1.4931  0.3695 -1.0427
  138SAPE   O2114976   2.264   0.952  10.482 -0.1650  0.0872  1.0967
  138SAPE   C2114977   2.388   0.983  10.453 -0.4343  0.4247  0.4658
  138SAPE   O2214978   2.487   0.916  10.481 -0.3775 -0.1206 -0.0510
  138SAPE   C2214979   2.397   1.114  10.382  0.1840 -0.2051  0.6014
  138SAPE   H2R14980   2.327   1.185  10.431 -2.1506 -0.1746 -2.6236
  138SAPE   H2S14981   2.500   1.155  10.394  0.7991 -1.5902  0.1874
  138SAPE    C314982   2.236   0.699  10.451 -0.3952 -0.8892 -0.4692
  138SAPE    HX14983   2.143   0.738  10.404 -2.8303 -2.6987  2.7097
  138SAPE    HY14984   2.210   0.602  10.500 -0.0140 -0.4351  0.6356
  138SAPE   O3114985   2.341   0.691  10.350 -0.3301 -0.0210  0.9420
  138SAPE   C3114986   2.447   0.622  10.401 -0.1432 -0.2102 -0.0555
  138SAPE   O3214987   2.454   0.598  10.523  0.0534 -0.5261 -1.0414
  138SAPE   C3214988   2.550   0.595  10.295  0.4640  0.0189  0.6110
  138SAPE   H2X14989   2.558   0.484  10.293  4.4479  0.2174  0.9848
  138SAPE   H2Y14990   2.645   0.640  10.330  0.3872  1.8790 -1.4335
  138SAPE   C2314991   2.367   1.126  10.221  0.0073 -0.1001  0.8674
  138SAPE   H3R14992   2.357   1.233  10.192  1.4306  0.3429  1.9722
  138SAPE   H3S14993   2.269   1.077  10.203  1.0098 -1.8764  0.1540
  138SAPE   C2414994   2.471   1.053  10.148 -0.1375  0.3719  0.2627
  138SAPE   H4R14995   2.505   0.957  10.190 -1.3250 -0.0804  0.2146
  138SAPE   H4S14996   2.566   1.110  10.137  0.0511  0.0074 -0.0036
  138SAPE   C2514997   2.420   1.021  10.009  0.0254  0.0529 -0.4490
  138SAPE   H5R14998   2.418   0.912   9.997  0.6557  0.2166 -2.1738
  138SAPE   C2614999   2.384   1.095   9.904  0.7988 -0.5641 -0.0259
  138SAPE   H6R15000   2.356   1.049   9.809  0.1428  0.3555 -0.2848
  138SAPE   C2715001   2.375   1.245   9.898  0.0054  0.1164  0.1037
  138SAPE   H7R15002   2.416   1.280   9.801  0.2984  0.7721  0.4638
  138SAPE   H7S15003   2.438   1.291   9.977  1.5188  0.1926 -1.1153
  138SAPE   C2815004   2.236   1.294   9.922 -0.4775 -0.0605  0.1476
  138SAPE   H8R15005   2.214   1.344  10.018 -1.9098 -0.6412  0.1393
  138SAPE   C2915006   2.132   1.308   9.837 -0.1672 -1.3877 -0.2170
  138SAPE   H9R15007   2.033   1.339   9.874  1.6170  0.6495  3.0975
  138SAPE  C21015008   2.136   1.273   9.692  0.1629  0.2097 -0.6394
  138SAPE  H10R15009   2.142   1.163   9.679  0.7505  0.2867 -1.0730
  138SAPE  H10S15010   2.232   1.304   9.645 -0.8198  2.1841 -1.3569
  138SAPE  C21115011   2.007   1.336   9.633 -0.2930 -0.5281  0.0823
  138SAPE  H11R15012   1.913   1.291   9.668 -0.9607 -0.0828 -1.0922
  138SAPE  C21215013   2.004   1.416   9.522 -0.4448 -0.3956  0.1642
  138SAPE  H12R15014   1.908   1.456   9.488  0.1099  0.5291 -0.3075
  138SAPE  C21315015   2.120   1.460   9.438  0.3783  0.0215  0.5747
  138SAPE  H13R15016   2.208   1.462   9.505 -0.4962  1.6292  1.7022
  138SAPE  H13S15017   2.097   1.562   9.402  0.5850  0.3070  1.2468
  138SAPE  C21415018   2.138   1.367   9.323  0.8248  0.3613 -0.4750
  138SAPE  H14R15019   2.201   1.282   9.354 -0.0292  0.5018  1.7365
  138SAPE  C21515020   2.088   1.373   9.202 -0.5725  0.1784  0.6345
  138SAPE  H15R15021   2.121   1.298   9.128 -1.1081 -1.3834  1.9496
  138SAPE  C21615022   2.005   1.493   9.154  0.4014  0.1992  0.6099
  138SAPE  H16R15023   2.054   1.531   9.062  0.3482  0.6107  0.7484
  138SAPE  H16S15024   2.004   1.569   9.235 -0.5188  0.4433  0.3789
  138SAPE  C21715025   1.862   1.447   9.137 -0.0097  0.4078  0.0653
  138SAPE  H17R15026   1.802   1.535   9.106  1.8260  1.6745  0.0381
  138SAPE  H17S15027   1.813   1.416   9.232  0.4444  1.3675  0.6212
  138SAPE  C21815028   1.824   1.343   9.026 -0.2938 -0.2462 -0.1235
  138SAPE  H18R15029   1.874   1.248   9.054 -0.5850 -0.0760  0.9754
  138SAPE  H18S15030   1.863   1.385   8.930 -1.8239  0.8644 -0.2842
  138SAPE  C21915031   1.672   1.326   9.010 -0.0066 -0.0792 -0.0879
  138SAPE  H19R15032   1.641   1.249   8.935  1.8533 -1.4877  0.5447
  138SAPE  H19S15033   1.624   1.421   8.978 -2.4503 -1.4688 -0.6981
  138SAPE  C22015034   1.601   1.286   9.140 -0.3465 -0.2800  0.3442
  138SAPE  H20R15035   1.508   1.225   9.134 -2.4837  3.0161 -0.9883
  138SAPE  H20S15036   1.587   1.373   9.207 -0.0689  1.2122 -1.5223
  138SAPE  H20T15037   1.668   1.219   9.199 -1.1657 -0.7311  0.7754
  138SAPE   C3315038   2.502   0.630  10.145 -0.1425  0.2683 -0.1475
  138SAPE   H3X15039   2.592   0.637  10.080  0.3086  1.8771  0.6173
  138SAPE   H3Y15040   2.469   0.736  10.147 -0.3147  0.2092  0.2213
  138SAPE   C3415041   2.398   0.528  10.093 -0.6307  0.5883 -0.4558
  138SAPE   H4X15042   2.298   0.560  10.129 -1.0784 -1.0804 -0.1599
  138SAPE   H4Y15043   2.410   0.426  10.135  2.1874 -0.1980 -3.0097
  138SAPE   C3515044   2.400   0.522   9.939  0.6414  0.1080 -0.4638
  138SAPE   H5X15045   2.501   0.497   9.900 -0.2998 -1.2718 -2.0785
  138SAPE   H5Y15046   2.376   0.622   9.896  0.6716  0.0717 -0.5652
  138SAPE   C3615047   2.299   0.426   9.889  0.5478 -0.3933 -1.0230
  138SAPE   H6X15048   2.198   0.441   9.933 -0.7513 -1.2752 -3.5956
  138SAPE   H6Y15049   2.323   0.324   9.924  1.1215  0.2925  0.5971
  138SAPE   C3715050   2.289   0.429   9.733  0.6283 -0.2018 -0.6349
  138SAPE   H7X15051   2.394   0.415   9.700  1.7753 -0.0326  2.6802
  138SAPE   H7Y15052   2.254   0.532   9.710  0.1257 -0.1784  0.2080
  138SAPE   C3815053   2.179   0.325   9.680 -0.0700 -0.1603 -0.5432
  138SAPE   H8X15054   2.079   0.347   9.723  0.2023 -0.2826  0.1698
  138SAPE   H8Y15055   2.208   0.223   9.713  0.1101 -0.1461 -0.6520
  138SAPE   C3915056   2.161   0.331   9.528  0.2502  1.0357 -0.0514
  138SAPE   H9X15057   2.078   0.259   9.510  0.2959  1.0822 -0.4616
  138SAPE   H9Y15058   2.242   0.287   9.467 -1.9472  1.4518 -3.4130
  138SAPE  C31015059   2.138   0.465   9.470 -0.4288  0.1460  0.6536
  138SAPE  H10X15060   2.219   0.541   9.480 -2.6312  2.6288  0.0311
  138SAPE  H10Y15061   2.054   0.515   9.523 -0.4079  0.2132  0.6235
  138SAPE  C31115062   2.111   0.460   9.314  0.1619 -0.8758 -0.3154
  138SAPE  H11X15063   2.175   0.378   9.273  2.2125  0.7467 -0.4489
  138SAPE  H11Y15064   2.143   0.550   9.258  3.1025 -1.4188  0.3990
  138SAPE  C31215065   1.963   0.427   9.274  0.4834  0.3454 -0.4414
  138SAPE  H12X15066   1.918   0.526   9.297  1.4782  0.7472 -0.2003
  138SAPE  H12Y15067   1.913   0.349   9.336  1.6512 -0.3209 -0.3318
  138SAPE  C31315068   1.962   0.388   9.129  0.8789  0.7611  0.3224
  138SAPE  H13X15069   1.986   0.280   9.130 -0.0094  0.4782 -2.8331
  138SAPE  H13Y15070   2.041   0.437   9.068 -0.0069 -0.5045 -1.9052
  138SAPE  C31415071   1.821   0.395   9.067 -0.3786 -0.4465  0.0361
  138SAPE  H14X15072   1.784   0.495   9.099  1.8953 -0.4168  2.7559
  138SAPE  H14Y15073   1.768   0.303   9.099  0.1329 -1.1411 -1.0987
  138SAPE  C31515074   1.827   0.384   8.909 -0.3098 -0.3943 -0.2376
  138SAPE  H15X15075   1.921   0.433   8.876 -0.1322 -0.4848  0.1280
  138SAPE  H15Y15076   1.749   0.451   8.866 -0.9030 -0.3463  0.8899
  138SAPE  C31615077   1.808   0.244   8.846 -0.6445  0.3655 -0.3229
  138SAPE  H16X15078   1.709   0.198   8.870  0.2624 -1.3341  0.2385
  138SAPE  H16Y15079   1.884   0.185   8.901 -0.2051  2.0038  0.8363
  138SAPE  C31715080   1.833   0.228   8.697  0.2725 -0.8726 -0.4375
  138SAPE  H17X15081   1.754   0.280   8.639 -0.3246  1.9103  2.6753
  138SAPE  H17Y15082   1.826   0.120   8.674 -1.8680 -0.8677  0.1131
  138SAPE  C31815083   1.969   0.272   8.640  0.5579  0.4734 -0.3871
  138SAPE  H18X15084   1.970   0.380   8.614  3.0624  0.3450 -0.9826
  138SAPE  H18Y15085   1.989   0.224   8.542  1.4526  1.5680 -0.7511
  138SAPE  H18Z15086   2.057   0.249   8.703 -0.8502 -2.6592  0.5221
  139SAPE     N15087   1.469   5.860  10.883  0.1534 -0.0876  0.4370
  139SAPE   HN115088   1.373   5.870  10.844 -0.5268 -1.9605  1.5793
  139SAPE   HN215089   1.514   5.781  10.833  0.7701 -0.5578  1.7082
  139SAPE   HN315090   1.477   5.833  10.983 -2.1920 -2.9673 -0.0754
  139SAPE   C1215091   1.546   5.984  10.852 -0.2854 -0.5305  0.1433
  139SAPE  H12A15092   1.641   5.967  10.907 -1.0927 -0.6061  1.5342
  139SAPE  H12B15093   1.482   6.068  10.885 -1.9949 -2.4569  1.9367
  139SAPE   C1115094   1.572   6.004  10.706  0.1461  0.0887  0.3048
  139SAPE  H11A15095   1.595   6.112  10.691  0.7049  0.3425  2.7904
  139SAPE  H11B15096   1.477   5.994  10.649  0.1280  0.4802  0.2692
  139SAPE     P15097   1.659   5.840  10.537  0.1159  0.1971 -0.1620
  139SAPE   O1315098   1.781   5.779  10.488  0.0137 -0.0003  0.1002
  139SAPE   O1415099   1.549   5.750  10.579 -0.2322 -0.0681 -0.1142
  139SAPE   O1215100   1.687   5.936  10.653  0.1524  0.1178 -0.3345
  139SAPE   O1115101   1.603   5.941  10.437  0.6423  0.1034  0.1786
  139SAPE    C115102   1.582   5.906  10.300 -0.1875  0.6110 -0.0091
  139SAPE    HA15103   1.573   5.798  10.280 -0.5265  1.0436 -2.3284
  139SAPE    HB15104   1.484   5.948  10.268  0.5207  3.5578  1.4605
  139SAPE    C215105   1.684   5.974  10.201 -0.1073  0.3737  0.1520
  139SAPE    HS15106   1.787   5.956  10.238  0.5677  2.9400 -0.4263
  139SAPE   O2115107   1.650   6.109  10.200 -0.9575  0.2549  0.2911
  139SAPE   C2115108   1.744   6.187  10.153 -0.5069 -0.1785 -0.2553
  139SAPE   O2215109   1.856   6.151  10.119 -0.1355 -0.6612 -0.8821
  139SAPE   C2215110   1.682   6.330  10.151 -0.4635  0.5993 -0.5109
  139SAPE   H2R15111   1.637   6.344  10.050 -1.7142 -0.4896 -0.1095
  139SAPE   H2S15112   1.597   6.346  10.221  1.2311  0.9390  1.5119
  139SAPE    C315113   1.681   5.925  10.056 -0.5023  0.0030 -0.3183
  139SAPE    HX15114   1.741   5.990   9.989 -0.8405 -0.6852 -1.2825
  139SAPE    HY15115   1.571   5.937  10.043 -0.6910 -1.5046 -0.1620
  139SAPE   O3115116   1.697   5.786  10.048 -0.2253  0.0098  0.5055
  139SAPE   C3115117   1.810   5.750   9.976  0.4120 -0.7814  0.4612
  139SAPE   O3215118   1.894   5.826   9.933  0.2232 -0.6495  0.2523
  139SAPE   C3215119   1.812   5.600   9.962 -0.4626  0.6532 -0.5534
  139SAPE   H2X15120   1.735   5.551   9.898 -1.3683  0.8354  0.3884
  139SAPE   H2Y15121   1.799   5.544  10.057  0.8984 -0.1253 -0.8144
  139SAPE   C2315122   1.793   6.425  10.197  0.4750 -0.2345  0.5180
  139SAPE   H3R15123   1.842   6.392  10.291 -0.3861  1.3564  1.5330
  139SAPE   H3S15124   1.744   6.520  10.226  1.2135  0.3923 -0.2645
  139SAPE   C2415125   1.894   6.447  10.080 -0.3507  0.1341  0.7942
  139SAPE   H4R15126   1.848   6.441   9.979  0.4171  1.4550  0.3604
  139SAPE   H4S15127   1.978   6.377  10.095  0.9549  1.3678 -0.6089
  139SAPE   C2515128   1.949   6.590  10.092  0.0857  0.7329 -0.1565
  139SAPE   H5R15129   1.964   6.617  10.198  1.4314 -1.5436  0.2591
  139SAPE   C2615130   1.993   6.674   9.996 -0.0010  0.1428 -0.6440
  139SAPE   H6R15131   2.036   6.772  10.022  0.2397 -0.1667  0.1360
  139SAPE   C2715132   2.002   6.628   9.850  0.1577  0.5949 -0.1309
  139SAPE   H7R15133   1.903   6.625   9.799  1.3655  1.1674 -2.5753
  139SAPE   H7S15134   2.018   6.519   9.857  0.0771  0.7182  2.6396
  139SAPE   C2815135   2.107   6.707   9.775  0.1121 -0.6625  0.2916
  139SAPE   H8R15136   2.208   6.712   9.818 -0.1361 -0.6087  0.8836
  139SAPE   C2915137   2.084   6.765   9.661  0.2859  0.5588  0.3397
  139SAPE   H9R15138   2.166   6.818   9.609 -0.1911  0.4233 -0.5681
  139SAPE  C21015139   1.956   6.770   9.582 -0.0523  0.3870  0.3115
  139SAPE  H10R15140   1.961   6.870   9.534  0.3201 -0.4706 -1.5003
  139SAPE  H10S15141   1.861   6.769   9.641  0.9903  0.9313  2.0223
  139SAPE  C21115142   1.967   6.667   9.467 -0.0557 -0.2177  0.3076
  139SAPE  H11R15143   1.952   6.564   9.503  3.1229 -0.7555  0.2212
  139SAPE  C21215144   2.008   6.679   9.337  0.7477 -1.2882 -0.2272
  139SAPE  H12R15145   2.012   6.589   9.275  0.7573 -1.8831  0.6357
  139SAPE  C21315146   2.042   6.819   9.267  0.5325  1.1122 -0.0652
  139SAPE  H13R15147   2.082   6.891   9.342 -1.2510  2.4100 -0.3070
  139SAPE  H13S15148   1.947   6.859   9.225  0.1649 -0.7736 -1.0859
  139SAPE  C21415149   2.132   6.807   9.144  0.1328  0.5853  0.0215
  139SAPE  H14R15150   2.238   6.821   9.169 -0.0210 -1.2999  1.8833
  139SAPE  C21515151   2.102   6.754   9.022  0.0828  0.2046  0.3308
  139SAPE  H15R15152   2.176   6.769   8.942 -3.1508  2.9366 -2.2422
  139SAPE  C21615153   1.962   6.714   8.983  0.5631  0.0804  0.0825
  139SAPE  H16R15154   1.912   6.793   8.923 -0.6139  0.6197  1.7651
  139SAPE  H16S15155   1.904   6.705   9.077  2.3384  0.4219  1.2458
  139SAPE  C21715156   1.964   6.579   8.906 -0.2822 -0.2545 -0.5755
  139SAPE  H17R15157   1.862   6.536   8.907 -0.6443  0.6077  1.0086
  139SAPE  H17S15158   2.033   6.506   8.956 -1.7347 -0.8100  0.6512
  139SAPE  C21815159   2.023   6.605   8.762 -0.1587 -0.3368  1.0082
  139SAPE  H18R15160   2.126   6.645   8.762 -0.3819  0.3216 -1.3380
  139SAPE  H18S15161   1.963   6.675   8.700 -3.0359 -2.1958  1.5611
  139SAPE  C21915162   2.033   6.464   8.695 -0.8014  0.0740 -0.0986
  139SAPE  H19R15163   1.932   6.421   8.680  0.7552 -3.1869 -1.5930
  139SAPE  H19S15164   2.100   6.399   8.754 -0.3717  1.9166  1.4941
  139SAPE  C22015165   2.094   6.456   8.555 -0.3645  0.5687  0.5606
  139SAPE  H20R15166   2.110   6.347   8.543  0.0753  0.8754 -1.7668
  139SAPE  H20S15167   2.191   6.511   8.557  0.7519 -1.3191 -0.1249
  139SAPE  H20T15168   2.032   6.485   8.468 -1.4032 -2.1747  0.3649
  139SAPE   C3315169   1.936   5.546   9.877 -0.1624  0.4424 -0.1075
  139SAPE   H3X15170   2.040   5.575   9.902 -0.1490  0.5436 -0.2840
  139SAPE   H3Y15171   1.924   5.594   9.778  1.1665  0.2943 -0.3365
  139SAPE   C3415172   1.926   5.396   9.849  0.5981  0.9686  0.4666
  139SAPE   H4X15173   1.822   5.356   9.859  1.2966 -0.8801  0.4272
  139SAPE   H4Y15174   1.997   5.341   9.914  1.5313 -1.6913 -2.6942
  139SAPE   C3515175   1.971   5.367   9.708 -0.0206  0.1886 -0.7472
  139SAPE   H5X15176   2.000   5.260   9.704 -1.2262 -0.1101 -2.0595
  139SAPE   H5Y15177   2.056   5.433   9.680  1.0036 -0.2791  1.1501
  139SAPE   C3615178   1.870   5.396   9.598  0.6737 -0.7797  0.0189
  139SAPE   H6X15179   1.848   5.504   9.601  2.4705 -0.3502 -1.3148
  139SAPE   H6Y15180   1.779   5.339   9.628  1.6633 -2.4526 -0.0671
  139SAPE   C3715181   1.925   5.365   9.461  0.2225  0.7268  0.3559
  139SAPE   H7X15182   1.938   5.255   9.464 -0.9304  0.5809 -0.0105
  139SAPE   H7Y15183   2.026   5.411   9.453 -0.2300  1.8155  0.7953
  139SAPE   C3815184   1.834   5.410   9.345 -0.0816 -0.8201  0.3950
  139SAPE   H8X15185   1.845   5.519   9.326  1.1255 -1.2019 -1.2245
  139SAPE   H8Y15186   1.729   5.391   9.375 -0.8646  1.6874 -0.5836
  139SAPE   C3915187   1.872   5.332   9.216  0.3515  0.0046  0.3864
  139SAPE   H9X15188   1.881   5.227   9.251  1.8261 -0.1365 -0.3809
  139SAPE   H9Y15189   1.973   5.352   9.176  0.2014  0.4225  0.2094
  139SAPE  C31015190   1.776   5.350   9.102 -0.3103 -0.2411  0.0463
  139SAPE  H10X15191   1.770   5.453   9.060 -0.4071 -0.9870 -1.8310
  139SAPE  H10Y15192   1.674   5.330   9.139  0.5634 -1.0122  2.0655
  139SAPE  C31115193   1.787   5.239   8.999 -0.0707 -0.1308  0.1309
  139SAPE  H11X15194   1.690   5.225   8.947  1.0897 -2.5245 -1.4679
  139SAPE  H11Y15195   1.807   5.143   9.050 -0.7088  0.5092  1.6129
  139SAPE  C31215196   1.892   5.260   8.887 -0.7048 -0.2870 -0.1247
  139SAPE  H12X15197   1.989   5.279   8.937 -0.8847  1.0544 -0.2742
  139SAPE  H12Y15198   1.871   5.350   8.824  1.7829 -0.4283 -1.2353
  139SAPE  C31315199   1.902   5.142   8.789 -0.6221  0.9764 -0.2898
  139SAPE  H13X15200   1.801   5.098   8.773  0.0736 -1.7532  2.4135
  139SAPE  H13Y15201   1.967   5.070   8.844  0.9966  0.3553 -2.9167
  139SAPE  C31415202   1.983   5.173   8.659  0.5319 -0.6744 -0.0467
  139SAPE  H14X15203   1.920   5.234   8.591 -0.7558 -1.1848  0.6667
  139SAPE  H14Y15204   1.998   5.071   8.617  1.8729 -0.1037 -0.9911
  139SAPE  C31515205   2.112   5.262   8.675  0.0297  0.2408 -0.4283
  139SAPE  H15X15206   2.183   5.204   8.739 -0.1383  0.4882 -0.0151
  139SAPE  H15Y15207   2.092   5.355   8.733  0.1002 -0.1010  0.1470
  139SAPE  C31615208   2.158   5.305   8.537  0.2054 -0.8208 -0.1760
  139SAPE  H16X15209   2.086   5.377   8.494 -0.7705 -1.2236  0.7497
  139SAPE  H16Y15210   2.253   5.363   8.541 -0.9911  1.2233 -0.2008
  139SAPE  C31715211   2.197   5.192   8.444 -0.0547 -0.4393 -0.3550
  139SAPE  H17X15212   2.102   5.145   8.410  0.9152 -2.2954 -0.5387
  139SAPE  H17Y15213   2.265   5.133   8.509 -0.0545  0.2173  0.2471
  139SAPE  C31815214   2.292   5.229   8.324  0.1126  0.2666 -0.3979
  139SAPE  H18X15215   2.375   5.286   8.370 -0.2451  0.1918  0.3589
  139SAPE  H18Y15216   2.239   5.285   8.244 -1.3058 -0.9015 -0.3082
  139SAPE  H18Z15217   2.332   5.142   8.268 -0.3422 -0.8112  0.9243
  140SAPE     N15218   4.971   3.891  10.888 -0.9143  0.5541  0.5151
  140SAPE   HN115219   4.928   3.985  10.885  0.7993  1.4296  2.2344
  140SAPE   HN215220   5.058   3.895  10.831  0.3471  2.0482  2.4683
  140SAPE   HN315221   4.911   3.826  10.833 -3.0438  2.5703  0.3670
  140SAPE   C1215222   5.000   3.850  11.026  0.0274  0.0865 -0.7552
  140SAPE  H12A15223   4.904   3.845  11.080 -0.2097 -3.2357 -1.3665
  140SAPE  H12B15224   5.061   3.936  11.063 -1.5921  0.8717  0.1270
  140SAPE   C1115225   5.056   3.713  11.037  0.9296 -0.8362  0.2994
  140SAPE  H11A15226   5.073   3.682  11.142  0.1990 -2.1663  0.0349
  140SAPE  H11B15227   5.154   3.715  10.986  0.8382  1.5740  0.1485
  140SAPE     P15228   5.023   3.472  10.942 -0.4573 -0.0776 -0.2105
  140SAPE   O1315229   5.102   3.422  11.059  0.5770 -0.8084 -0.3118
  140SAPE   O1415230   4.908   3.391  10.904  0.8472 -0.2664 -0.2752
  140SAPE   O1215231   4.963   3.614  10.975 -0.3369 -0.1763  0.0140
  140SAPE   O1115232   5.113   3.496  10.813  0.1463  0.3293 -0.0815
  140SAPE    C115233   5.075   3.561  10.691  0.5521 -0.0209  0.4867
  140SAPE    HA15234   5.040   3.662  10.718 -0.8902 -0.2613 -0.4521
  140SAPE    HB15235   5.165   3.583  10.630 -0.0689 -1.8222 -1.1241
  140SAPE    C215236   4.982   3.471  10.600  0.0034  0.5801 -0.5456
  140SAPE    HS15237   4.891   3.456  10.662 -1.0913  0.1001 -2.2366
  140SAPE   O2115238   5.057   3.349  10.573 -0.2113  0.1325  0.1382
  140SAPE   C2115239   4.990   3.240  10.578  0.4764 -0.3442  0.3290
  140SAPE   O2215240   4.867   3.221  10.580  0.0220  0.2474 -0.1837
  140SAPE   C2215241   5.102   3.139  10.586 -0.2020  0.4694  0.0688
  140SAPE   H2R15242   5.177   3.151  10.506 -2.1872  1.0149 -1.7455
  140SAPE   H2S15243   5.161   3.164  10.677  0.8740 -0.9174 -0.2307
  140SAPE    C315244   4.936   3.533  10.464 -0.4674  0.6067 -0.2768
  140SAPE    HX15245   5.031   3.573  10.422  1.0037  0.6462  2.9226
  140SAPE    HY15246   4.882   3.628  10.478 -0.6972  0.3115  0.9014
  140SAPE   O3115247   4.877   3.441  10.372 -0.5331 -0.2218 -0.5641
  140SAPE   C3115248   4.744   3.430  10.386 -0.7059 -0.1692  0.2509
  140SAPE   O3215249   4.682   3.494  10.467 -0.0165 -0.3923  0.1949
  140SAPE   C3215250   4.687   3.334  10.279  0.7674  0.0021 -0.6961
  140SAPE   H2X15251   4.645   3.239  10.318  0.1455 -0.3011 -2.0595
  140SAPE   H2Y15252   4.765   3.313  10.202  1.5750 -1.4623  0.4996
  140SAPE   C2315253   5.054   2.989  10.592  0.6655 -0.0633 -0.0268
  140SAPE   H3R15254   4.961   2.979  10.652  0.6259 -3.0258 -0.5302
  140SAPE   H3S15255   5.127   2.922  10.640  1.1965 -0.5179 -1.4272
  140SAPE   C2415256   5.022   2.931  10.453  0.4247  0.1114 -0.2758
  140SAPE   H4R15257   4.955   2.843  10.466  0.8660 -0.4076 -1.4370
  140SAPE   H4S15258   5.117   2.889  10.414 -0.7789 -3.7526  0.7608
  140SAPE   C2515259   4.961   3.022  10.352  0.5976 -0.3582  0.8245
  140SAPE   H5R15260   4.869   3.073  10.384  0.4207  0.1443 -0.4565
  140SAPE   C2615261   4.997   3.040  10.226 -0.1822  0.3295 -0.0237
  140SAPE   H6R15262   4.939   3.109  10.163  0.3373 -0.4633 -1.3765
  140SAPE   C2715263   5.108   2.964  10.160 -0.5855  0.1841  0.1467
  140SAPE   H7R15264   5.184   2.925  10.231 -0.2289  2.0167  0.7927
  140SAPE   H7S15265   5.162   3.034  10.094  3.3781 -0.6785  2.2828
  140SAPE   C2815266   5.059   2.840  10.095  0.4196  0.6135 -0.1578
  140SAPE   H8R15267   4.958   2.800  10.112  0.0341  2.4634  2.0460
  140SAPE   C2915268   5.130   2.771  10.007 -0.1781 -0.0940 -0.0341
  140SAPE   H9R15269   5.076   2.686   9.963 -0.7820  0.6287 -0.6986
  140SAPE  C21015270   5.268   2.812   9.945 -0.2767 -0.8408 -0.0626
  140SAPE  H10R15271   5.317   2.730   9.888  1.1921  0.4867 -0.7202
  140SAPE  H10S15272   5.339   2.833  10.028  0.8073 -2.4708 -0.5653
  140SAPE  C21115273   5.247   2.928   9.855  0.7242 -0.0851  0.4191
  140SAPE  H11R15274   5.190   3.012   9.897  2.7413  2.2782 -1.4307
  140SAPE  C21215275   5.271   2.940   9.719 -1.1290  0.4640 -0.0139
  140SAPE  H12R15276   5.249   3.034   9.667  0.5183  2.4622  2.7354
  140SAPE  C21315277   5.338   2.832   9.637  0.7438 -0.2482 -0.7129
  140SAPE  H13R15278   5.420   2.784   9.694  0.6722  1.6734  1.0650
  140SAPE  H13S15279   5.392   2.884   9.554  1.4097 -0.6638 -0.5409
  140SAPE  C21415280   5.252   2.721   9.581  0.6494  0.3545  0.1995
  140SAPE  H14R15281   5.226   2.653   9.663 -0.2705 -2.2872 -2.1956
  140SAPE  C21515282   5.212   2.683   9.454 -0.1652  1.3810 -0.1850
  140SAPE  H15R15283   5.181   2.578   9.445  0.5430  1.1449  0.1305
  140SAPE  C21615284   5.227   2.759   9.321 -0.2190  0.0399 -0.1229
  140SAPE  H16R15285   5.291   2.845   9.350  1.2981 -0.7682 -0.9797
  140SAPE  H16S15286   5.130   2.792   9.280 -0.6715  0.4431  1.2525
  140SAPE  C21715287   5.308   2.689   9.214  0.7172 -0.0451 -0.0466
  140SAPE  H17R15288   5.303   2.743   9.117 -1.9163 -1.1735 -0.5714
  140SAPE  H17S15289   5.269   2.587   9.191 -0.3081 -0.0445  1.6480
  140SAPE  C21815290   5.456   2.673   9.255  1.0988  0.7708  0.7031
  140SAPE  H18R15291   5.463   2.589   9.328 -0.0501 -0.9344 -1.0841
  140SAPE  H18S15292   5.498   2.772   9.281 -1.5857  1.9444  0.6512
  140SAPE  C21915293   5.534   2.631   9.127 -0.9749  0.6105 -0.1978
  140SAPE  H19R15294   5.638   2.664   9.148 -0.3708 -0.5578 -1.3401
  140SAPE  H19S15295   5.494   2.694   9.044  0.8473 -1.0503 -2.3942
  140SAPE  C22015296   5.526   2.483   9.104 -0.5606  0.3227  0.2155
  140SAPE  H20R15297   5.588   2.425   9.176 -1.5749 -1.0903 -0.0214
  140SAPE  H20S15298   5.572   2.468   9.005  0.7571 -0.7248  0.9690
  140SAPE  H20T15299   5.419   2.452   9.102 -0.9012  1.5691 -1.2596
  140SAPE   C3315300   4.573   3.410  10.200  0.2367  0.6068 -0.6867
  140SAPE   H3X15301   4.597   3.517  10.183 -0.4640  0.6577 -1.3425
  140SAPE   H3Y15302   4.482   3.420  10.262  0.6069  0.0219 -0.0351
  140SAPE   C3415303   4.542   3.351  10.066  0.4801  0.3526  0.4154
  140SAPE   H4X15304   4.441   3.389  10.039  0.9791  1.5007  0.1201
  140SAPE   H4Y15305   4.541   3.240  10.072  1.7657  0.2758 -0.4597
  140SAPE   C3515306   4.628   3.409   9.958  0.4179  0.7082  0.4877
  140SAPE   H5X15307   4.735   3.403   9.986  0.8845 -0.8765 -1.4881
  140SAPE   H5Y15308   4.594   3.514   9.967 -2.2919 -0.0223 -0.6401
  140SAPE   C3615309   4.604   3.349   9.819  0.2486  0.4314 -0.1080
  140SAPE   H6X15310   4.496   3.339   9.799 -0.0167  0.6407  1.1883
  140SAPE   H6Y15311   4.658   3.253   9.804 -0.4609  0.0215 -0.0183
  140SAPE   C3715312   4.639   3.445   9.693 -0.0268 -0.1290  0.1282
  140SAPE   H7X15313   4.749   3.445   9.682 -0.0678  2.6095 -0.5102
  140SAPE   H7Y15314   4.618   3.551   9.718  1.6184  0.1428  0.4320
  140SAPE   C3815315   4.583   3.390   9.565  0.3947  0.0027  0.5231
  140SAPE   H8X15316   4.473   3.387   9.561  0.4771 -1.2223 -1.1496
  140SAPE   H8Y15317   4.621   3.286   9.548  2.0907  0.5307  0.9503
  140SAPE   C3915318   4.650   3.460   9.449  0.9893  0.0861 -0.2199
  140SAPE   H9X15319   4.759   3.447   9.433  1.1347  1.2536 -0.2724
  140SAPE   H9Y15320   4.627   3.568   9.464 -1.5273 -0.5405  0.7063
  140SAPE  C31015321   4.583   3.416   9.317 -0.2498  0.0700  0.3330
  140SAPE  H10X15322   4.483   3.463   9.304  0.6856  2.0794  0.2245
  140SAPE  H10Y15323   4.566   3.306   9.317 -1.0962  0.1968 -0.9595
  140SAPE  C31115324   4.656   3.458   9.189 -0.2689  0.6020 -0.1451
  140SAPE  H11X15325   4.763   3.429   9.189 -0.2133  0.7480 -1.3732
  140SAPE  H11Y15326   4.638   3.567   9.171 -0.8473  0.7866  1.5118
  140SAPE  C31215327   4.614   3.389   9.059  0.2805 -0.1954 -0.0058
  140SAPE  H12X15328   4.633   3.279   9.066  1.1315 -0.0985 -0.6890
  140SAPE  H12Y15329   4.679   3.425   8.977  0.5504 -2.2600 -0.7409
  140SAPE  C31315330   4.460   3.405   9.012 -0.3311 -0.4672  0.5552
  140SAPE  H13X15331   4.427   3.506   8.978  2.0680 -0.0097 -0.5160
  140SAPE  H13Y15332   4.390   3.372   9.092  0.2295 -1.6449  0.5550
  140SAPE  C31415333   4.433   3.310   8.897 -0.4920  0.7401 -0.6924
  140SAPE  H14X15334   4.327   3.307   8.866 -0.4862  2.0147 -0.8385
  140SAPE  H14Y15335   4.458   3.206   8.928 -1.1905  0.2365 -1.7949
  140SAPE  C31515336   4.513   3.344   8.767 -0.1833 -0.6189 -0.3687
  140SAPE  H15X15337   4.616   3.344   8.807 -1.2118  2.0349  2.5181
  140SAPE  H15Y15338   4.492   3.445   8.726 -0.4463 -0.0582  1.1343
  140SAPE  C31615339   4.476   3.243   8.661  0.2983  0.0593  0.6888
  140SAPE  H16X15340   4.368   3.262   8.640  0.1229 -0.4333  1.1091
  140SAPE  H16Y15341   4.478   3.136   8.693  0.9311 -0.2213 -0.2967
  140SAPE  C31715342   4.552   3.236   8.522 -0.4213 -0.1603  0.2485
  140SAPE  H17X15343   4.659   3.214   8.540 -0.3866 -0.4964 -0.3722
  140SAPE  H17Y15344   4.544   3.342   8.490  2.0936 -0.0905 -0.2000
  140SAPE  C31815345   4.493   3.138   8.416  0.7357  0.4309 -0.1412
  140SAPE  H18X15346   4.492   3.036   8.461 -1.4957 -0.0365 -1.1826
  140SAPE  H18Y15347   4.556   3.138   8.324  0.2431 -2.0182 -0.5028
  140SAPE  H18Z15348   4.391   3.161   8.379  1.2843 -0.8694 -2.5273
  141SAPE     N15349   5.448   3.980  11.251 -0.0266  0.2232  0.4770
  141SAPE   HN115350   5.479   3.995  11.349  0.1973 -0.1294  0.4621
  141SAPE   HN215351   5.410   4.073  11.224  0.4371 -0.2282 -1.8773
  141SAPE   HN315352   5.371   3.910  11.252 -1.4171  1.7441  1.5508
  141SAPE   C1215353   5.570   3.943  11.163 -0.3411  0.4788 -0.5824
  141SAPE  H12A15354   5.570   3.832  11.168 -1.8653  0.5381  1.6399
  141SAPE  H12B15355   5.667   3.973  11.207 -0.7872  0.5804  0.3304
  141SAPE   C1115356   5.551   3.996  11.017  0.0426  0.8831  0.3645
  141SAPE  H11A15357   5.631   3.940  10.963 -0.3716 -3.2129  3.7156
  141SAPE  H11B15358   5.568   4.106  11.020  3.7940  0.4082 -0.6216
  141SAPE     P15359   5.382   3.858  10.877 -0.0080 -0.1404 -0.3432
  141SAPE   O1315360   5.410   3.733  10.951 -0.0807  0.3828  0.6147
  141SAPE   O1415361   5.238   3.866  10.825  0.1467 -0.9371 -0.1236
  141SAPE   O1215362   5.420   3.976  10.971  0.0599  0.3178 -0.0675
  141SAPE   O1115363   5.471   3.876  10.749 -0.3722  0.2155 -0.0602
  141SAPE    C115364   5.520   3.758  10.686 -0.0363 -0.5437  0.3074
  141SAPE    HA15365   5.552   3.675  10.753  0.3934 -0.6923 -0.0789
  141SAPE    HB15366   5.443   3.720  10.615 -0.0031  1.1502 -0.6520
  141SAPE    C215367   5.639   3.778  10.595  0.4382  0.6211  1.0079
  141SAPE    HS15368   5.727   3.801  10.658 -0.0180 -1.7582  2.5817
  141SAPE   O2115369   5.614   3.876  10.492  0.8863 -0.3489  0.1036
  141SAPE   C2115370   5.708   3.907  10.407 -0.9668 -0.4243  0.3709
  141SAPE   O2215371   5.817   3.862  10.402  0.3591  0.4647  0.4359
  141SAPE   C2215372   5.662   4.032  10.330 -0.5238 -0.2155 -0.3151
  141SAPE   H2R15373   5.577   4.089  10.375  0.4648  0.8697  0.1930
  141SAPE   H2S15374   5.745   4.103  10.351  0.3895 -0.7308 -2.1825
  141SAPE    C315375   5.669   3.636  10.531  0.3933  0.3969  0.2966
  141SAPE    HX15376   5.690   3.569  10.618 -0.0091  0.5566  0.5173
  141SAPE    HY15377   5.769   3.642  10.482 -0.1026  0.6157 -0.7046
  141SAPE   O3115378   5.568   3.588  10.439 -0.0838 -0.3011 -0.0728
  141SAPE   C3115379   5.520   3.467  10.461 -0.2215 -0.1149 -0.0969
  141SAPE   O3215380   5.594   3.382  10.514  0.4254  0.1176  0.2157
  141SAPE   C3215381   5.375   3.456  10.413  0.5645 -0.3040  0.0963
  141SAPE   H2X15382   5.350   3.552  10.363  0.5298 -0.4625 -0.1939
  141SAPE   H2Y15383   5.307   3.422  10.494  0.3692  1.6380  0.7721
  141SAPE   C2315384   5.640   4.010  10.181 -0.6698  0.7919  0.0957
  141SAPE   H3R15385   5.605   4.096  10.122 -0.0949  0.7212 -0.3457
  141SAPE   H3S15386   5.564   3.930  10.164  0.5931 -0.4178  0.0413
  141SAPE   C2415387   5.764   3.958  10.117 -0.5762  0.3219 -0.8805
  141SAPE   H4R15388   5.850   3.989  10.179 -1.5748 -1.5286  1.5333
  141SAPE   H4S15389   5.781   4.021  10.028 -0.2570  2.2453  0.5218
  141SAPE   C2515390   5.764   3.805  10.082 -0.4671  0.2116  1.3415
  141SAPE   H5R15391   5.825   3.744  10.150  1.7349  0.9005  0.0480
  141SAPE   C2615392   5.712   3.749   9.971  0.5598  0.4545 -0.3987
  141SAPE   H6R15393   5.719   3.639   9.959  2.2847  0.6408 -1.2459
  141SAPE   C2715394   5.630   3.825   9.869 -0.0315  0.2230 -0.1598
  141SAPE   H7R15395   5.592   3.923   9.906  1.3483  1.2824 -1.4757
  141SAPE   H7S15396   5.539   3.766   9.848 -0.0123 -1.0748  3.0427
  141SAPE   C2815397   5.716   3.862   9.752  0.9168 -0.1988 -0.8617
  141SAPE   H8R15398   5.771   3.957   9.764 -0.8905  0.6723  0.6611
  141SAPE   C2915399   5.727   3.789   9.639 -0.0066 -0.0214  0.9001
  141SAPE   H9R15400   5.800   3.822   9.563 -1.7371  0.4526 -0.6276
  141SAPE  C21015401   5.663   3.658   9.609  0.5418  0.3177  0.1051
  141SAPE  H10R15402   5.577   3.638   9.676 -0.1742  2.5531 -0.1288
  141SAPE  H10S15403   5.742   3.579   9.619  0.0330 -0.0251  1.4370
  141SAPE  C21115404   5.610   3.659   9.467  0.0104 -0.8364  0.2376
  141SAPE  H11R15405   5.679   3.689   9.386 -1.6036  0.7781 -0.5937
  141SAPE  C21215406   5.501   3.613   9.425  0.7869 -0.3731  0.1596
  141SAPE  H12R15407   5.480   3.621   9.317 -0.6585  3.9457  0.6505
  141SAPE  C21315408   5.385   3.540   9.503  0.1192 -0.1617  0.7621
  141SAPE  H13R15409   5.404   3.537   9.612 -1.4529 -1.3130  1.0307
  141SAPE  H13S15410   5.387   3.436   9.465 -0.4625 -0.5244  1.7043
  141SAPE  C21415411   5.249   3.604   9.477  0.1646  0.1494 -0.3673
  141SAPE  H14R15412   5.243   3.713   9.476 -0.3473  0.1204 -1.3980
  141SAPE  C21515413   5.132   3.541   9.450 -0.3634 -0.2756  0.6996
  141SAPE  H15R15414   5.041   3.602   9.447 -1.6253 -2.0887  1.2493
  141SAPE  C21615415   5.122   3.393   9.434 -0.0794 -0.2908 -0.1711
  141SAPE  H16R15416   5.206   3.352   9.374 -0.5177  0.5714 -1.4041
  141SAPE  H16S15417   5.024   3.384   9.380  1.3805  0.3907 -3.0514
  141SAPE  C21715418   5.121   3.321   9.571 -0.1227 -0.2272  0.6883
  141SAPE  H17R15419   5.193   3.366   9.642 -0.2952 -1.6066  1.7585
  141SAPE  H17S15420   5.146   3.212   9.568 -0.1558 -0.4120  4.7986
  141SAPE  C21815421   4.987   3.320   9.645  0.8600 -0.4178  0.0660
  141SAPE  H18R15422   4.914   3.267   9.578  0.9487  0.0777 -0.4257
  141SAPE  H18S15423   4.965   3.428   9.654  1.2715 -0.4663  1.7147
  141SAPE  C21915424   4.989   3.247   9.784 -0.6751 -0.3627  0.1231
  141SAPE  H19R15425   5.019   3.141   9.773 -2.0903 -0.8065  0.4752
  141SAPE  H19S15426   4.883   3.249   9.814 -0.7816 -0.2895 -0.2531
  141SAPE  C22015427   5.074   3.316   9.894  0.5888 -0.5955 -0.2268
  141SAPE  H20R15428   5.046   3.280   9.996 -0.0234  0.8696  0.1511
  141SAPE  H20S15429   5.060   3.427   9.897  1.4994 -0.4534 -1.0087
  141SAPE  H20T15430   5.177   3.281   9.876  0.6847  0.0727 -1.0015
  141SAPE   C3315431   5.362   3.357  10.291 -0.5990  0.4465 -0.4898
  141SAPE   H3X15432   5.260   3.350  10.249 -0.8838 -0.7658  0.3780
  141SAPE   H3Y15433   5.379   3.256  10.335 -0.7583  0.7427  0.2428
  141SAPE   C3415434   5.474   3.387  10.183  0.3599  0.1971  0.0263
  141SAPE   H4X15435   5.571   3.350  10.224  1.1854  1.5511 -0.6343
  141SAPE   H4Y15436   5.479   3.493  10.151  1.7983  0.2679  0.4403
  141SAPE   C3515437   5.451   3.310  10.052 -0.5984 -0.5872 -0.0929
  141SAPE   H5X15438   5.350   3.325  10.009  0.3404 -0.1416 -2.2348
  141SAPE   H5Y15439   5.456   3.203  10.080 -0.0830 -0.3703  0.6538
  141SAPE   C3615440   5.561   3.343   9.950 -0.2920  0.3600 -0.2236
  141SAPE   H6X15441   5.659   3.323   9.999 -0.5713  2.3891  1.2312
  141SAPE   H6Y15442   5.556   3.453   9.932  0.8339  0.4382 -0.1087
  141SAPE   C3715443   5.553   3.247   9.826  0.0171 -0.3815  0.7755
  141SAPE   H7X15444   5.454   3.256   9.775 -0.5721 -2.1388  1.5417
  141SAPE   H7Y15445   5.555   3.140   9.858 -0.6038 -0.3406  0.9657
  141SAPE   C3815446   5.665   3.270   9.722  0.1721 -1.0472  0.4557
  141SAPE   H8X15447   5.762   3.253   9.775  1.1270  2.5417  0.0546
  141SAPE   H8Y15448   5.677   3.372   9.679 -0.3891 -0.1014  2.4846
  141SAPE   C3915449   5.663   3.179   9.600  0.8240 -0.0414  0.9213
  141SAPE   H9X15450   5.619   3.080   9.623 -0.0025  0.4039  1.3217
  141SAPE   H9Y15451   5.769   3.157   9.575  1.2650  1.7203  1.1414
  141SAPE  C31015452   5.574   3.236   9.483  0.4746 -0.6392  0.1821
  141SAPE  H10X15453   5.603   3.342   9.470 -1.7446 -0.3230 -2.4548
  141SAPE  H10Y15454   5.467   3.218   9.507  1.1091 -2.2881  1.9662
  141SAPE  C31115455   5.593   3.161   9.355  0.5151  0.5312  0.2082
  141SAPE  H11X15456   5.587   3.051   9.368  1.1381  0.5966  1.1054
  141SAPE  H11Y15457   5.696   3.172   9.313  1.1833 -0.9020  1.4483
  141SAPE  C31215458   5.485   3.210   9.251  0.9546 -0.0710 -0.5228
  141SAPE  H12X15459   5.473   3.319   9.267 -2.2579 -0.7528  2.3632
  141SAPE  H12Y15460   5.389   3.157   9.269  2.5550 -3.2764 -1.0456
  141SAPE  C31315461   5.528   3.183   9.099 -0.6817  0.4362  0.9876
  141SAPE  H13X15462   5.581   3.087   9.116 -0.2905  0.0587 -2.1103
  141SAPE  H13Y15463   5.602   3.264   9.082 -0.3761  0.3516  1.8447
  141SAPE  C31415464   5.427   3.165   8.984 -0.1490  0.5984 -0.0209
  141SAPE  H14X15465   5.478   3.125   8.894  0.2772  0.9561  0.0599
  141SAPE  H14Y15466   5.383   3.262   8.954  2.2015  1.5667 -0.4561
  141SAPE  C31515467   5.302   3.075   9.013 -0.6185  0.2821 -0.7516
  141SAPE  H15X15468   5.219   3.132   9.060 -0.2243  0.9846 -0.9090
  141SAPE  H15Y15469   5.332   3.001   9.091  0.5145  0.8500 -0.6473
  141SAPE  C31615470   5.246   2.994   8.897  0.5651 -0.7999 -0.2768
  141SAPE  H16X15471   5.333   2.935   8.860  3.5844  2.8313  0.7182
  141SAPE  H16Y15472   5.224   3.058   8.809  0.7423 -1.5580 -0.8866
  141SAPE  C31715473   5.117   2.917   8.940  0.5218 -0.6660  1.0805
  141SAPE  H17X15474   5.041   2.994   8.964  0.3434 -0.5372  0.1170
  141SAPE  H17Y15475   5.151   2.859   9.029  0.0340 -0.9715  1.0649
  141SAPE  C31815476   5.056   2.817   8.834 -0.3446  0.6467 -1.0739
  141SAPE  H18X15477   5.018   2.862   8.739  0.5111  1.1597 -1.1727
  141SAPE  H18Y15478   4.979   2.748   8.874  1.2098 -0.3700  0.1873
  141SAPE  H18Z15479   5.140   2.750   8.806 -1.9154 -2.3150  0.9925
  142SAPE     N15480   5.792   2.113  11.088  0.1665 -0.0445 -0.4212
  142SAPE   HN115481   5.876   2.052  11.094 -0.2219 -0.7758 -2.2411
  142SAPE   HN215482   5.769   2.154  11.181 -1.7155 -2.3710  0.2207
  142SAPE   HN315483   5.715   2.048  11.062 -0.1574 -0.0972  0.6429
  142SAPE   C1215484   5.812   2.211  10.977 -0.1118  0.2774 -0.4670
  142SAPE  H12A15485   5.762   2.164  10.890  1.6396 -1.4311 -0.5801
  142SAPE  H12B15486   5.921   2.221  10.957  0.1829 -2.8230 -0.6627
  142SAPE   C1115487   5.725   2.337  10.996  0.6640  0.7072  0.0963
  142SAPE  H11A15488   5.623   2.295  11.013  1.6987 -1.6511  0.6107
  142SAPE  H11B15489   5.732   2.404  10.908 -2.8343 -0.4956 -1.2053
  142SAPE     P15490   5.654   2.516  11.168 -0.3297 -0.1332 -0.0356
  142SAPE   O1315491   5.544   2.455  11.250 -0.3401 -0.6047 -0.7474
  142SAPE   O1415492   5.732   2.630  11.231 -0.0574  0.4570 -0.6412
  142SAPE   O1215493   5.758   2.412  11.114 -0.4407  0.0741  0.2369
  142SAPE   O1115494   5.600   2.568  11.027 -0.8364  0.8620  0.2158
  142SAPE    C115495   5.520   2.688  11.018  0.1887 -0.8738 -0.2842
  142SAPE    HA15496   5.412   2.667  11.035  0.1475  0.9593  1.9647
  142SAPE    HB15497   5.551   2.764  11.093  1.2803  1.3335 -2.9079
  142SAPE    C215498   5.523   2.745  10.868  0.5503  0.0592 -0.1730
  142SAPE    HS15499   5.442   2.694  10.811 -0.6205  2.8998 -1.1352
  142SAPE   O2115500   5.652   2.739  10.808 -0.4310 -0.6465 -0.0132
  142SAPE   C2115501   5.669   2.629  10.744  0.7240 -0.1981  0.0696
  142SAPE   O2215502   5.585   2.549  10.703 -0.1438 -0.0882 -0.4200
  142SAPE   C2215503   5.812   2.613  10.711  0.1655  0.0894 -0.3936
  142SAPE   H2R15504   5.843   2.705  10.656 -1.5122  1.4590  0.9004
  142SAPE   H2S15505   5.871   2.603  10.804  2.9793  0.4121 -2.0907
  142SAPE    C315506   5.484   2.896  10.870 -0.5911 -0.0882  0.1987
  142SAPE    HX15507   5.570   2.944  10.921  2.0775 -4.1685 -0.2755
  142SAPE    HY15508   5.389   2.904  10.928 -1.2089  0.6797 -0.8983
  142SAPE   O3115509   5.450   2.939  10.732  0.0602  0.7403 -0.6782
  142SAPE   C3115510   5.554   2.986  10.665  0.2721 -0.7405  0.6209
  142SAPE   O3215511   5.668   3.007  10.704 -0.0269  0.5813  0.0160
  142SAPE   C3215512   5.509   3.037  10.529  0.3610 -0.4910 -0.1282
  142SAPE   H2X15513   5.593   3.086  10.476  0.8373 -2.0078 -0.8040
  142SAPE   H2Y15514   5.435   3.116  10.552 -0.4387 -1.3039  0.1050
  142SAPE   C2315515   5.846   2.489  10.618 -0.2195  0.3189  0.2048
  142SAPE   H3R15516   5.794   2.396  10.648  0.4942 -0.4160 -0.8079
  142SAPE   H3S15517   5.956   2.473  10.624 -0.6513 -4.0359 -1.4927
  142SAPE   C2415518   5.827   2.517  10.472  0.1203  0.3106 -0.8036
  142SAPE   H4R15519   5.717   2.522  10.454  0.2744  1.2203 -1.5015
  142SAPE   H4S15520   5.855   2.419  10.427  0.8132  1.1244 -2.1654
  142SAPE   C2515521   5.907   2.627  10.412  0.4213  0.1787 -0.0502
  142SAPE   H5R15522   5.872   2.725  10.449 -3.1167 -1.1454  0.2947
  142SAPE   C2615523   6.001   2.620  10.316 -0.0264  0.1296  0.4618
  142SAPE   H6R15524   6.040   2.715  10.278  2.1629 -0.9503 -0.1176
  142SAPE   C2715525   6.066   2.501  10.245  0.4802 -0.4386  0.0715
  142SAPE   H7R15526   6.097   2.431  10.325 -1.1035 -1.8044 -0.4803
  142SAPE   H7S15527   6.157   2.535  10.191  1.1723 -3.1346 -0.5447
  142SAPE   C2815528   5.967   2.431  10.153  0.8091 -0.5502  0.5596
  142SAPE   H8R15529   5.866   2.424  10.195  0.3992  0.4343 -0.2636
  142SAPE   C2915530   5.997   2.369  10.038 -0.0088 -0.2430 -0.4970
  142SAPE   H9R15531   5.923   2.306   9.986 -0.3058 -0.5125  0.2499
  142SAPE  C21015532   6.139   2.364   9.990  0.0198  0.1919 -0.2151
  142SAPE  H10R15533   6.162   2.257   9.970  0.0764  0.3740 -1.1329
  142SAPE  H10S15534   6.217   2.386  10.067  0.8004 -2.3073 -0.2603
  142SAPE  C21115535   6.178   2.440   9.862 -0.4264  0.0160 -0.0835
  142SAPE  H11R15536   6.090   2.497   9.828 -0.2637 -1.0858 -2.4502
  142SAPE  C21215537   6.287   2.421   9.783  0.0148 -0.2351 -0.3827
  142SAPE  H12R15538   6.299   2.467   9.684  0.4950 -0.1081 -0.2687
  142SAPE  C21315539   6.386   2.314   9.816 -0.2261 -0.2566  0.1017
  142SAPE  H13R15540   6.375   2.267   9.916 -0.1827 -0.3773  0.0508
  142SAPE  H13S15541   6.484   2.366   9.816  0.7068 -1.9496  0.0412
  142SAPE  C21415542   6.376   2.197   9.721  0.0554 -0.5452 -0.3084
  142SAPE  H14R15543   6.288   2.134   9.740 -0.9711  0.3040 -2.0995
  142SAPE  C21515544   6.466   2.162   9.622  0.2920  0.0085  0.2125
  142SAPE  H15R15545   6.446   2.072   9.561 -2.9117  1.2439 -0.6417
  142SAPE  C21615546   6.601   2.226   9.595  0.6437  0.0329 -0.1854
  142SAPE  H16R15547   6.682   2.149   9.593  1.6111  1.0733 -1.6699
  142SAPE  H16S15548   6.638   2.293   9.676 -0.7661 -0.7208  1.1130
  142SAPE  C21715549   6.589   2.300   9.457  0.0088  0.4705  0.3736
  142SAPE  H17R15550   6.673   2.372   9.444 -1.2691  1.9905  0.3683
  142SAPE  H17S15551   6.494   2.356   9.449 -0.1519  0.0798 -0.5693
  142SAPE  C21815552   6.606   2.206   9.335 -0.1979  0.3154  0.8849
  142SAPE  H18R15553   6.546   2.115   9.358 -0.8387  0.9365  1.7337
  142SAPE  H18S15554   6.713   2.178   9.327 -0.3238  0.7122 -2.5825
  142SAPE  C21915555   6.567   2.278   9.203  0.0840  0.1226 -0.3879
  142SAPE  H19R15556   6.636   2.366   9.202  0.6908 -0.3304  0.6620
  142SAPE  H19S15557   6.461   2.309   9.211 -0.0342 -0.2342 -0.5394
  142SAPE  C22015558   6.587   2.189   9.082 -0.1682  0.4648 -0.1544
  142SAPE  H20R15559   6.542   2.233   8.991 -0.2063  1.0574  0.1468
  142SAPE  H20S15560   6.526   2.098   9.103 -0.2481  0.2987 -1.0922
  142SAPE  H20T15561   6.691   2.150   9.074 -0.1457  0.3219  0.7466
  142SAPE   C3315562   5.425   2.944  10.445  0.5182 -0.3486  0.2932
  142SAPE   H3X15563   5.381   3.003  10.362 -1.3099 -0.2140  1.3404
  142SAPE   H3Y15564   5.342   2.909  10.509 -0.1160  0.9991  0.2338
  142SAPE   C3415565   5.503   2.817  10.398 -0.0884  0.2953 -0.0006
  142SAPE   H4X15566   5.436   2.748  10.342 -1.1637  0.4016  1.1304
  142SAPE   H4Y15567   5.523   2.758  10.490 -2.0171  0.4976  0.5740
  142SAPE   C3515568   5.625   2.855  10.315 -0.8283 -0.0893 -0.6337
  142SAPE   H5X15569   5.666   2.757  10.283  0.1576  0.1629 -0.1538
  142SAPE   H5Y15570   5.693   2.906  10.386 -2.2914  1.3557 -0.2399
  142SAPE   C3615571   5.607   2.961  10.201  0.2658  0.2539  0.7609
  142SAPE   H6X15572   5.592   3.062  10.245  0.9931  1.1146 -0.9152
  142SAPE   H6Y15573   5.516   2.936  10.142  0.8184 -2.4556  1.0096
  142SAPE   C3715574   5.723   2.959  10.096  0.0187  0.1188 -0.3409
  142SAPE   H7X15575   5.692   3.038  10.024 -0.4187 -0.8557 -1.2386
  142SAPE   H7Y15576   5.719   2.861  10.045 -2.0090 -1.4116  2.6439
  142SAPE   C3815577   5.864   2.981  10.152 -0.1485  0.5798 -0.4681
  142SAPE   H8X15578   5.888   2.909  10.233 -0.4116 -0.5445 -1.3788
  142SAPE   H8Y15579   5.863   3.077  10.209 -2.2399  1.9020 -2.6010
  142SAPE   C3915580   5.962   2.985  10.037  0.1353  0.0535  0.6422
  142SAPE   H9X15581   6.047   3.027  10.095  0.7061  1.2355 -1.0053
  142SAPE   H9Y15582   5.923   3.053   9.958  0.2043 -0.4547  0.1693
  142SAPE  C31015583   5.980   2.845   9.981 -0.6747 -0.3325 -0.3470
  142SAPE  H10X15584   5.883   2.791   9.969 -0.9886 -1.1009  4.6886
  142SAPE  H10Y15585   6.028   2.787  10.063 -1.4393 -0.4925 -0.0121
  142SAPE  C31115586   6.072   2.841   9.860 -1.1055  0.0830  0.2255
  142SAPE  H11X15587   6.110   2.737   9.865 -3.6933 -0.7929  3.0903
  142SAPE  H11Y15588   6.165   2.900   9.876 -1.2129  1.1476 -2.8092
  142SAPE  C31215589   5.998   2.869   9.728  0.0674  0.2868 -0.3612
  142SAPE  H12X15590   5.948   2.961   9.766 -0.0446 -1.2638  3.4927
  142SAPE  H12Y15591   5.935   2.787   9.688  0.2503 -1.2268  2.3624
  142SAPE  C31315592   6.094   2.908   9.619  0.1638  0.6967 -0.1885
  142SAPE  H13X15593   6.131   2.820   9.564  3.0415  1.7660 -0.0492
  142SAPE  H13Y15594   6.180   2.951   9.675  0.2552 -0.6567  0.7440
  142SAPE  C31415595   6.055   3.001   9.506 -0.1122  0.5777  0.1024
  142SAPE  H14X15596   6.141   3.024   9.439  0.1045  0.1400  0.2337
  142SAPE  H14Y15597   6.021   3.100   9.543 -0.8506  0.3151  0.1272
  142SAPE  C31515598   5.950   2.930   9.423 -0.9144  0.4401  0.6542
  142SAPE  H15X15599   5.852   2.949   9.473 -1.4065 -0.7781  0.1703
  142SAPE  H15Y15600   5.975   2.823   9.407  0.6574  0.6679  1.4954
  142SAPE  C31615601   5.919   2.984   9.284 -0.1335  1.1459  0.9603
  142SAPE  H16X15602   6.013   2.979   9.225 -1.2374  3.4319 -1.1326
  142SAPE  H16Y15603   5.884   3.090   9.283 -1.9491  0.5779 -1.3671
  142SAPE  C31715604   5.812   2.904   9.198  0.0285 -0.2545 -0.1054
  142SAPE  H17X15605   5.709   2.945   9.196  0.2872  0.3855 -0.7479
  142SAPE  H17Y15606   5.799   2.803   9.242 -0.4329 -0.2313 -0.1872
  142SAPE  C31815607   5.856   2.874   9.049  0.2356 -0.9026 -0.0036
  142SAPE  H18X15608   5.884   2.973   9.006 -0.2705 -0.4989  0.5961
  142SAPE  H18Y15609   5.780   2.820   8.989  0.8322  0.3988 -1.9916
  142SAPE  H18Z15610   5.952   2.817   9.051 -0.1541 -1.5548  0.1115
  143SAPE     N15611   1.141   2.493  11.078  0.2845 -0.3129  0.5928
  143SAPE   HN115612   1.089   2.539  11.155 -2.9306  2.3405 -2.9774
  143SAPE   HN215613   1.123   2.390  11.081  1.1471 -0.4972 -0.1642
  143SAPE   HN315614   1.244   2.509  11.069  0.1627  0.4959  0.6593
  143SAPE   C1215615   1.076   2.547  10.954 -0.2206 -0.2743  0.4104
  143SAPE  H12A15616   0.971   2.574  10.980 -0.3107  0.5610 -0.7855
  143SAPE  H12B15617   1.080   2.467  10.877 -0.5906  0.1616 -0.0614
  143SAPE   C1115618   1.147   2.676  10.905  0.0038  0.2765  1.2952
  143SAPE  H11A15619   1.112   2.697  10.802  1.7137 -1.3483  0.3564
  143SAPE  H11B15620   1.257   2.663  10.899  0.1222  2.0712 -1.0490
  143SAPE     P15621   0.993   2.877  10.982  0.2368 -0.0298 -0.3752
  143SAPE   O1315622   0.866   2.801  11.018 -0.8399 -0.0334 -0.3124
  143SAPE   O1415623   1.018   3.001  11.059  0.0352  0.1526 -0.5859
  143SAPE   O1215624   1.131   2.794  10.990  0.0488 -0.2770 -0.5505
  143SAPE   O1115625   0.984   2.905  10.831 -0.1232  0.0224 -0.3377
  143SAPE    C115626   1.069   2.999  10.767 -0.3232 -0.1195  0.2616
  143SAPE    HA15627   1.033   3.101  10.792 -0.2919 -0.2020  0.6397
  143SAPE    HB15628   1.175   2.982  10.796 -0.3345  1.8041  1.5490
  143SAPE    C215629   1.077   2.994  10.611  0.4723  0.0112  0.2708
  143SAPE    HS15630   1.161   3.058  10.578 -0.0045 -0.0149 -1.0179
  143SAPE   O2115631   0.950   3.036  10.561  0.0585 -0.6071  0.1085
  143SAPE   C2115632   0.946   3.101  10.445 -0.0541 -0.1225  0.5505
  143SAPE   O2215633   1.048   3.137  10.384  0.5102  0.1398  0.5793
  143SAPE   C2215634   0.802   3.113  10.379 -0.3890  0.0889  0.6203
  143SAPE   H2R15635   0.777   3.012  10.339  1.5687  0.5572 -1.9333
  143SAPE   H2S15636   0.732   3.143  10.460  0.4771  1.9287  0.6921
  143SAPE    C315637   1.110   2.844  10.574 -0.6201 -0.6837  0.2354
  143SAPE    HX15638   1.042   2.779  10.633  0.3012 -2.2172 -0.3490
  143SAPE    HY15639   1.213   2.819  10.608  0.3429 -0.4556 -2.3837
  143SAPE   O3115640   1.090   2.820  10.431 -0.2339  0.3460 -0.7595
  143SAPE   C3115641   1.191   2.852  10.351  0.6056  0.4610  0.0768
  143SAPE   O3215642   1.297   2.895  10.389  0.4681  0.3872 -0.4206
  143SAPE   C3215643   1.164   2.817  10.200  0.6328  0.2108 -0.4653
  143SAPE   H2X15644   1.054   2.813  10.188  0.2534  1.0900  2.3807
  143SAPE   H2Y15645   1.198   2.713  10.180 -1.5470 -0.6784  0.2797
  143SAPE   C2315646   0.792   3.215  10.264  0.0007 -0.6023  0.3957
  143SAPE   H3R15647   0.867   3.192  10.185  0.2649 -0.7843  0.7001
  143SAPE   H3S15648   0.792   3.318  10.305 -0.2022 -0.3263 -0.2944
  143SAPE   C2415649   0.660   3.203  10.183 -0.4966 -0.2248 -0.5891
  143SAPE   H4R15650   0.569   3.198  10.247  0.2475 -0.8218  0.4283
  143SAPE   H4S15651   0.658   3.111  10.121  0.1939  1.0326 -2.5244
  143SAPE   C2515652   0.646   3.323  10.087  1.8374  0.0099 -0.6816
  143SAPE   H5R15653   0.644   3.420  10.138  0.2691 -1.4846  2.2422
  143SAPE   C2615654   0.636   3.320   9.952 -0.2514  0.6532  0.2827
  143SAPE   H6R15655   0.603   3.411   9.899 -1.2146 -0.6161 -1.3729
  143SAPE   C2715656   0.644   3.197   9.860  0.2773  0.0129 -1.1324
  143SAPE   H7R15657   0.548   3.191   9.804 -0.0162 -1.0008 -0.5269
  143SAPE   H7S15658   0.649   3.109   9.927  0.8201  0.9552  0.0871
  143SAPE   C2815659   0.757   3.208   9.773  0.2283 -0.3031  0.2795
  143SAPE   H8R15660   0.855   3.199   9.821  1.1373  4.1157 -0.5542
  143SAPE   C2915661   0.759   3.238   9.639 -0.5818  0.5532 -0.3852
  143SAPE   H9R15662   0.858   3.223   9.593 -0.5403 -1.4794  0.3165
  143SAPE  C21015663   0.647   3.271   9.552 -0.1443  0.4001 -0.3888
  143SAPE  H10R15664   0.560   3.298   9.615  2.5959  1.2992  3.1485
  143SAPE  H10S15665   0.621   3.173   9.506  2.5501  0.7170 -2.7418
  143SAPE  C21115666   0.670   3.382   9.460 -0.4841 -0.3843 -0.5735
  143SAPE  H11R15667   0.718   3.470   9.506 -0.6227 -1.1873  1.1413
  143SAPE  C21215668   0.636   3.380   9.328 -0.3285 -0.2322  0.3492
  143SAPE  H12R15669   0.653   3.477   9.279  1.0779  0.7441  2.6589
  143SAPE  C21315670   0.554   3.265   9.259 -0.3362 -0.3435 -0.6594
  143SAPE  H13R15671   0.473   3.322   9.208  1.2606  0.9805 -1.7696
  143SAPE  H13S15672   0.507   3.198   9.334 -0.7204  0.2905 -0.3247
  143SAPE  C21415673   0.635   3.180   9.164  0.3454  0.7935 -0.2953
  143SAPE  H14R15674   0.668   3.089   9.215  0.8618  1.3417  0.3664
  143SAPE  C21515675   0.639   3.187   9.032  0.1657  0.4556 -0.5253
  143SAPE  H15R15676   0.711   3.120   8.983  3.5182  1.9330  2.1303
  143SAPE  C21615677   0.585   3.292   8.938 -0.0101  0.7963  0.2520
  143SAPE  H16R15678   0.486   3.322   8.978  0.1433  3.7228 -1.3814
  143SAPE  H16S15679   0.569   3.256   8.834 -3.1064  1.1561  0.5505
  143SAPE  C21715680   0.663   3.423   8.928 -0.1031 -0.0407  0.7021
  143SAPE  H17R15681   0.773   3.409   8.916  0.0239  1.4833  0.0150
  143SAPE  H17S15682   0.642   3.470   9.026  1.3819 -0.8493  1.4181
  143SAPE  C21815683   0.593   3.517   8.830 -0.0749 -0.2144 -0.0695
  143SAPE  H18R15684   0.483   3.528   8.834  0.0114  1.3512 -1.6417
  143SAPE  H18S15685   0.608   3.481   8.726 -1.1296 -0.8386 -0.0109
  143SAPE  C21915686   0.653   3.657   8.843  0.2896  0.1688 -0.2591
  143SAPE  H19R15687   0.628   3.707   8.938  0.3394  0.9818 -0.6725
  143SAPE  H19S15688   0.603   3.713   8.761  0.1699  2.1551  1.1556
  143SAPE  C22015689   0.804   3.667   8.806 -0.3969  0.3932  0.0511
  143SAPE  H20R15690   0.821   3.655   8.697 -2.1668 -1.0957 -0.0929
  143SAPE  H20S15691   0.873   3.595   8.855 -0.1996  0.3394 -0.3059
  143SAPE  H20T15692   0.847   3.765   8.834  0.1914  0.0374  0.4067
  143SAPE   C3315693   1.240   2.901  10.093 -0.7209 -0.0669 -0.5081
  143SAPE   H3X15694   1.349   2.882  10.099 -0.5715  0.9284 -0.0149
  143SAPE   H3Y15695   1.218   3.007  10.118 -0.1110 -0.3889  1.5056
  143SAPE   C3415696   1.172   2.874   9.960 -0.0986 -0.5755 -0.2788
  143SAPE   H4X15697   1.062   2.856   9.965  0.1312 -1.9946  0.0747
  143SAPE   H4Y15698   1.216   2.781   9.917 -0.5441 -1.2667  0.7570
  143SAPE   C3515699   1.194   2.983   9.862 -0.1948 -0.3130 -0.3687
  143SAPE   H5X15700   1.302   3.010   9.856 -0.9140  2.1887 -3.1612
  143SAPE   H5Y15701   1.138   3.071   9.899  0.0928 -0.0926 -0.4587
  143SAPE   C3615702   1.132   2.949   9.730  0.0963  0.4902  0.0526
  143SAPE   H6X15703   1.025   2.921   9.745 -0.9557  4.2499  0.1556
  143SAPE   H6Y15704   1.178   2.859   9.685  0.1989  0.4872  0.1596
  143SAPE   C3715705   1.145   3.056   9.627 -0.3599  0.0774 -0.3311
  143SAPE   H7X15706   1.235   3.120   9.641  0.0067 -0.6170  0.5255
  143SAPE   H7Y15707   1.060   3.127   9.638  0.3185  0.9540 -0.6694
  143SAPE   C3815708   1.138   3.017   9.486 -0.1261  0.0288 -0.3136
  143SAPE   H8X15709   1.074   2.928   9.466  0.4565 -0.1487 -1.4270
  143SAPE   H8Y15710   1.239   2.986   9.453  0.6402  0.1178  1.8459
  143SAPE   C3915711   1.103   3.124   9.386 -0.0868  0.4204 -0.4418
  143SAPE   H9X15712   1.184   3.200   9.390  1.7646 -1.5988  1.6361
  143SAPE   H9Y15713   1.003   3.171   9.398  0.5556  1.7601 -0.2214
  143SAPE  C31015714   1.090   3.077   9.236 -0.5554  0.1269  0.1591
  143SAPE  H10X15715   1.035   2.981   9.226  1.0775 -1.3747  4.5126
  143SAPE  H10Y15716   1.195   3.054   9.211 -1.2800  1.1549 -4.0643
  143SAPE  C31115717   1.047   3.180   9.138 -0.4705 -0.8593  0.4905
  143SAPE  H11X15718   1.092   3.278   9.162 -1.4300  0.2789 -2.1118
  143SAPE  H11Y15719   0.940   3.205   9.151  0.0830  3.7538 -2.6287
  143SAPE  C31215720   1.074   3.145   8.992  0.5663 -0.1888  0.2726
  143SAPE  H12X15721   1.025   3.049   8.964 -0.7458 -1.2931  5.8657
  143SAPE  H12Y15722   1.184   3.135   8.981  0.6654  2.0838 -1.1556
  143SAPE  C31315723   1.045   3.263   8.886  0.2096 -0.1432 -0.3083
  143SAPE  H13X15724   1.086   3.351   8.939  0.3974  0.2562 -1.1156
  143SAPE  H13Y15725   0.936   3.282   8.874  0.1154  0.9038  2.0357
  143SAPE  C31415726   1.110   3.246   8.747 -0.6008 -0.0543  0.0556
  143SAPE  H14X15727   1.050   3.170   8.692  2.1885 -1.2748 -1.4071
  143SAPE  H14Y15728   1.207   3.194   8.752 -1.0165 -0.7447  1.0872
  143SAPE  C31515729   1.128   3.380   8.672 -0.5993 -0.0155 -0.4651
  143SAPE  H15X15730   1.193   3.370   8.582 -0.3354  0.0983 -0.2882
  143SAPE  H15Y15731   1.172   3.457   8.739 -2.3457  0.6723 -0.1012
  143SAPE  C31615732   1.005   3.443   8.612  1.0998  0.0420 -0.1105
  143SAPE  H16X15733   1.029   3.546   8.579  1.4889  0.3136  1.0295
  143SAPE  H16Y15734   0.924   3.442   8.688  3.3449 -2.5837  2.3521
  143SAPE  C31715735   0.948   3.390   8.475  1.3332  0.8610 -0.1525
  143SAPE  H17X15736   0.927   3.281   8.480  1.8016  0.7631 -0.2828
  143SAPE  H17Y15737   1.022   3.409   8.394  0.0226 -0.6132 -1.7103
  143SAPE  C31815738   0.821   3.451   8.424 -0.0013  0.5974 -0.4182
  143SAPE  H18X15739   0.848   3.555   8.393  2.7421  0.0672  0.0724
  143SAPE  H18Y15740   0.742   3.457   8.502 -0.4573 -2.1853 -0.6306
  143SAPE  H18Z15741   0.784   3.398   8.333  0.0994  1.2980 -0.8672
  144SAPE     N15742   3.622   1.536  10.604  0.3167  0.0560 -0.5282
  144SAPE   HN115743   3.721   1.518  10.630  0.2302 -0.3625 -0.4768
  144SAPE   HN215744   3.619   1.590  10.516  2.4735 -0.6329 -1.0631
  144SAPE   HN315745   3.588   1.603  10.676 -1.6047  1.3716 -2.5978
  144SAPE   C1215746   3.540   1.414  10.601 -0.4757 -0.6140 -0.9214
  144SAPE  H12A15747   3.590   1.337  10.538  0.2736 -1.8307  1.1023
  144SAPE  H12B15748   3.444   1.431  10.546 -0.8664 -0.3571 -0.1709
  144SAPE   C1115749   3.501   1.366  10.748 -0.5288 -0.4962 -0.2571
  144SAPE  H11A15750   3.415   1.296  10.733 -1.1133  0.4850 -1.5417
  144SAPE  H11B15751   3.452   1.450  10.801  1.2425 -1.4591  3.0302
  144SAPE     P15752   3.666   1.171  10.809  0.4332  0.2416  0.0454
  144SAPE   O1315753   3.807   1.185  10.782  0.3394 -0.3245 -0.2335
  144SAPE   O1415754   3.622   1.100  10.934  0.2719 -0.4334  0.3216
  144SAPE   O1215755   3.610   1.323  10.819  0.0164  0.2946 -0.0120
  144SAPE   O1115756   3.566   1.107  10.698  0.3469  0.1142 -0.2697
  144SAPE    C115757   3.600   0.969  10.649 -0.6518 -0.5475  0.3079
  144SAPE    HA15758   3.611   0.900  10.735  1.0256  0.0368  0.5827
  144SAPE    HB15759   3.504   0.940  10.600 -1.3968  1.4792  0.5038
  144SAPE    C215760   3.713   0.964  10.551 -0.1528  0.6378 -0.0164
  144SAPE    HS15761   3.802   0.973  10.617  1.3560  1.1551 -2.0704
  144SAPE   O2115762   3.699   1.078  10.461  0.2646 -0.2355  0.2470
  144SAPE   C2115763   3.818   1.125  10.431  0.3057  0.2090  0.8664
  144SAPE   O2215764   3.925   1.101  10.484  0.1646  0.8944  0.4804
  144SAPE   C2215765   3.801   1.222  10.316 -0.1544  0.3069 -0.0127
  144SAPE   H2R15766   3.706   1.272  10.342  0.0164 -0.2995  1.8725
  144SAPE   H2S15767   3.882   1.297  10.329 -0.7261  0.9646 -0.2554
  144SAPE    C315768   3.717   0.845  10.465 -0.4132  0.6778  0.2583
  144SAPE    HX15769   3.627   0.828  10.403 -1.4509  0.7856  1.7092
  144SAPE    HY15770   3.715   0.756  10.531 -0.4620 -0.2603 -0.9834
  144SAPE   O3115771   3.834   0.838  10.378  0.7611  0.4854 -0.4580
  144SAPE   C3115772   3.941   0.770  10.415 -0.1354 -0.4105  0.5885
  144SAPE   O3215773   3.961   0.718  10.527 -0.5999 -0.0063  0.3145
  144SAPE   C3215774   4.048   0.765  10.302  0.5112 -0.1811 -0.4263
  144SAPE   H2X15775   4.133   0.709  10.347  0.3822  0.4576  0.6292
  144SAPE   H2Y15776   4.081   0.867  10.274  0.4031  0.1688  0.7206
  144SAPE   C2315777   3.818   1.152  10.182  0.1206 -0.2744  0.7989
  144SAPE   H3R15778   3.756   1.060  10.177  2.3284 -1.7710 -0.0791
  144SAPE   H3S15779   3.916   1.107  10.154 -0.5431 -0.5689 -1.1501
  144SAPE   C2415780   3.785   1.242  10.058 -0.1816 -0.0495 -0.1077
  144SAPE   H4R15781   3.674   1.241  10.063 -0.1369 -0.5408  0.9625
  144SAPE   H4S15782   3.817   1.189   9.966  2.2285  0.0454  0.6601
  144SAPE   C2515783   3.857   1.377  10.066 -0.7701 -0.1275  0.5563
  144SAPE   H5R15784   3.854   1.435  10.160 -1.2467 -2.4355  2.0291
  144SAPE   C2615785   3.915   1.432   9.957  0.4542  0.0085  0.4601
  144SAPE   H6R15786   3.951   1.536   9.967  1.0990  0.0006 -1.5545
  144SAPE   C2715787   3.924   1.384   9.811  0.3964 -0.8909  0.0666
  144SAPE   H7R15788   3.893   1.279   9.795 -0.6213 -0.2309 -2.4990
  144SAPE   H7S15789   4.028   1.402   9.776  0.1959  1.7024  0.7023
  144SAPE   C2815790   3.834   1.476   9.720 -0.6918 -0.1157  0.3774
  144SAPE   H8R15791   3.767   1.547   9.772 -1.8303 -1.3954  0.6976
  144SAPE   C2915792   3.837   1.475   9.589 -0.3924  0.3448  0.3829
  144SAPE   H9R15793   3.760   1.529   9.531 -0.9444  0.9863  1.6801
  144SAPE  C21015794   3.938   1.413   9.494 -0.3281  0.0996  0.0406
  144SAPE  H10R15795   3.878   1.335   9.443  1.7162 -1.3594 -0.2121
  144SAPE  H10S15796   4.010   1.347   9.548 -0.8405 -2.0294 -1.7838
  144SAPE  C21115797   4.010   1.515   9.410 -0.3099 -0.1506  0.0348
  144SAPE  H11R15798   4.089   1.572   9.461 -0.2793 -0.1353 -0.0277
  144SAPE  C21215799   3.984   1.542   9.280  0.5311  0.1824  0.1700
  144SAPE  H12R15800   4.024   1.639   9.245  0.3512  0.3801  0.5110
  144SAPE  C21315801   3.875   1.475   9.194 -0.3242  0.5716 -0.2320
  144SAPE  H13R15802   3.814   1.398   9.245 -1.2864  0.2797 -1.7854
  144SAPE  H13S15803   3.923   1.417   9.112  1.1314  0.5754  0.6005
  144SAPE  C21415804   3.789   1.572   9.119  0.4037 -0.3375  0.0200
  144SAPE  H14R15805   3.766   1.667   9.169 -1.0305 -0.5527 -0.1983
  144SAPE  C21515806   3.745   1.551   8.997  0.4088 -0.2244 -0.5018
  144SAPE  H15R15807   3.683   1.629   8.949 -0.9731 -0.4316  0.9108
  144SAPE  C21615808   3.764   1.433   8.911  0.2256 -0.5887 -0.4648
  144SAPE  H16R15809   3.767   1.342   8.976 -1.5966  0.9639  1.8704
  144SAPE  H16S15810   3.862   1.443   8.859  0.6483 -0.2486  0.3895
  144SAPE  C21715811   3.648   1.399   8.824  0.6365 -0.0365 -0.6243
  144SAPE  H17R15812   3.548   1.441   8.849  0.7705 -0.0245 -0.0974
  144SAPE  H17S15813   3.631   1.290   8.828  0.5626  0.0341  2.0388
  144SAPE  C21815814   3.680   1.439   8.683  0.3796  0.3954  0.3340
  144SAPE  H18R15815   3.774   1.384   8.663  0.5632  1.3352 -1.4612
  144SAPE  H18S15816   3.695   1.549   8.680 -2.1823  0.8426  2.0652
  144SAPE  C21915817   3.572   1.393   8.578 -0.0809 -0.6399 -0.4473
  144SAPE  H19R15818   3.537   1.290   8.599  2.6734 -1.1945  1.6524
  144SAPE  H19S15819   3.635   1.396   8.487  0.5048  2.3902 -0.0134
  144SAPE  C22015820   3.460   1.493   8.568 -0.1730 -0.2554 -0.1250
  144SAPE  H20R15821   3.516   1.588   8.554  2.5383 -1.7817 -0.1210
  144SAPE  H20S15822   3.394   1.489   8.658 -1.0510  1.2084 -0.6994
  144SAPE  H20T15823   3.393   1.469   8.483 -1.2506 -0.8551  0.8659
  144SAPE   C3315824   4.012   0.684  10.171 -0.4542  0.3541  0.5019
  144SAPE   H3X15825   3.910   0.713  10.137 -1.2922 -1.8600  1.0541
  144SAPE   H3Y15826   4.017   0.574  10.186  1.0582  0.3954  0.3071
  144SAPE   C3415827   4.113   0.710  10.059  0.4771  0.8315  0.2332
  144SAPE   H4X15828   4.109   0.621   9.993  1.2474 -0.8224  2.3496
  144SAPE   H4Y15829   4.218   0.730  10.088  0.1342  1.3934  1.1339
  144SAPE   C3515830   4.088   0.843   9.984 -0.0107  0.2917 -0.7113
  144SAPE   H5X15831   4.096   0.930  10.053  2.0588  0.1779 -0.7962
  144SAPE   H5Y15832   3.979   0.831   9.965  0.2173 -0.1044 -1.7879
  144SAPE   C3615833   4.159   0.864   9.850  0.2264  0.0591 -0.5807
  144SAPE   H6X15834   4.150   0.764   9.803  1.1527 -1.3109  2.0963
  144SAPE   H6Y15835   4.266   0.876   9.879  1.0541  0.2667 -3.5588
  144SAPE   C3715836   4.108   0.993   9.775  0.1054 -0.0566 -0.8543
  144SAPE   H7X15837   4.088   1.082   9.839  0.8362  0.9850 -2.0343
  144SAPE   H7Y15838   4.010   0.969   9.729 -0.2406 -1.0746  0.4114
  144SAPE   C3815839   4.199   1.048   9.659  0.2101 -0.3712  0.6778
  144SAPE   H8X15840   4.306   1.049   9.690  0.0844  1.6803  1.1572
  144SAPE   H8Y15841   4.170   1.150   9.626 -0.0440 -1.6533 -3.3756
  144SAPE   C3915842   4.198   0.954   9.540  0.5788 -0.2897 -0.6217
  144SAPE   H9X15843   4.190   0.854   9.586 -0.8954  0.0251 -0.1604
  144SAPE   H9Y15844   4.281   0.959   9.466 -1.1378 -0.3042 -2.6280
  144SAPE  C31015845   4.070   0.954   9.455  0.2124  0.7876  0.4331
  144SAPE  H10X15846   3.982   0.966   9.522 -1.2182  0.6330 -1.3652
  144SAPE  H10Y15847   4.065   0.857   9.401 -1.7109 -1.1719  3.9630
  144SAPE  C31115848   4.061   1.042   9.334  0.3689  0.7343 -0.1274
  144SAPE  H11X15849   4.120   1.002   9.248 -0.3042 -1.9686  0.6372
  144SAPE  H11Y15850   4.088   1.148   9.349 -0.9989  0.6654  3.1401
  144SAPE  C31215851   3.924   1.046   9.276  0.1305  0.1415 -0.0307
  144SAPE  H12X15852   3.910   1.142   9.223 -0.3243  0.2673  0.3170
  144SAPE  H12Y15853   3.848   1.047   9.357  1.1973  1.9780  0.9696
  144SAPE  C31315854   3.888   0.934   9.182 -0.0405 -0.1432  0.3352
  144SAPE  H13X15855   3.888   0.833   9.230 -0.1537 -0.2166  0.1848
  144SAPE  H13Y15856   3.966   0.930   9.103 -1.7444  2.2895 -1.5595
  144SAPE  C31415857   3.760   0.966   9.115 -0.3743  0.0624 -0.2732
  144SAPE  H14X15858   3.770   1.046   9.039 -2.8457 -0.5631 -1.3045
  144SAPE  H14Y15859   3.686   1.023   9.176 -1.8030 -2.0634  0.0342
  144SAPE  C31515860   3.701   0.856   9.021 -0.1434  0.4672 -0.3154
  144SAPE  H15X15861   3.688   0.759   9.075 -2.0106 -0.2039 -1.9004
  144SAPE  H15Y15862   3.773   0.833   8.940  1.4602 -1.6873  1.6294
  144SAPE  C31615863   3.562   0.906   8.976  0.1793  0.1595 -0.0653
  144SAPE  H16X15864   3.565   1.016   8.961  1.7776 -0.1432 -2.1899
  144SAPE  H16Y15865   3.498   0.883   9.064 -1.6438  0.0397 -1.4027
  144SAPE  C31715866   3.528   0.839   8.842 -0.2092 -0.2438 -0.7144
  144SAPE  H17X15867   3.565   0.893   8.752  1.5072 -1.1012 -0.5341
  144SAPE  H17Y15868   3.418   0.850   8.841 -0.3575 -1.7422 -2.3225
  144SAPE  C31815869   3.567   0.693   8.831  0.6938  0.6669  0.2435
  144SAPE  H18X15870   3.527   0.621   8.906  1.3956  0.4404  0.4091
  144SAPE  H18Y15871   3.677   0.675   8.823  0.7853  1.1504  0.4429
  144SAPE  H18Z15872   3.539   0.645   8.734  2.1894 -3.5039  1.7386
  145SAPE     N15873   0.417   2.620  11.014  0.2803  0.1792  0.3918
  145SAPE   HN115874   0.343   2.673  10.965 -1.0481 -1.9572  0.0002
  145SAPE   HN215875   0.504   2.629  10.958  0.2132 -1.2128  0.0226
  145SAPE   HN315876   0.392   2.519  11.023  0.6659 -0.1647 -2.1145
  145SAPE   C1215877   0.424   2.664  11.154  0.7708 -0.2151 -0.4500
  145SAPE  H12A15878   0.332   2.627  11.206  2.6434 -1.2745  2.2689
  145SAPE  H12B15879   0.433   2.774  11.158 -1.1998 -0.0314 -0.6519
  145SAPE   C1115880   0.548   2.603  11.224 -0.6555  0.0922 -0.5770
  145SAPE  H11A15881   0.568   2.644  11.325  0.8207 -1.7288 -0.1159
  145SAPE  H11B15882   0.637   2.631  11.164  0.4491  0.6593  1.2980
  145SAPE     P15883   0.656   2.369  11.246 -0.1028 -0.1811 -0.0767
  145SAPE   O1315884   0.762   2.431  11.323 -0.2586  0.6920 -0.0417
  145SAPE   O1415885   0.625   2.236  11.297 -0.9035  0.1965  0.0550
  145SAPE   O1215886   0.524   2.464  11.236  0.2366 -0.0298  0.1526
  145SAPE   O1115887   0.701   2.374  11.097 -1.1254 -0.4009  0.2264
  145SAPE    C115888   0.632   2.313  10.990 -0.4108  0.5698 -0.3767
  145SAPE    HA15889   0.596   2.210  11.013  1.4562 -0.5064 -2.1417
  145SAPE    HB15890   0.543   2.374  10.962 -0.5410 -1.4896 -4.8535
  145SAPE    C215891   0.717   2.308  10.861  0.3654  0.5222  0.3285
  145SAPE    HS15892   0.818   2.335  10.899  1.0100 -1.4214  0.0370
  145SAPE   O2115893   0.662   2.403  10.772 -0.9998 -0.7097 -0.0733
  145SAPE   C2115894   0.757   2.440  10.682  0.3589 -1.0426 -0.5841
  145SAPE   O2215895   0.876   2.429  10.690  0.0998  0.1071  0.6172
  145SAPE   C2215896   0.683   2.507  10.561  0.7436 -0.3683  0.1067
  145SAPE   H2R15897   0.575   2.484  10.564  0.9817 -1.3523  1.4099
  145SAPE   H2S15898   0.697   2.617  10.569  1.5191 -0.5108  0.7163
  145SAPE    C315899   0.713   2.165  10.793 -0.3460  0.1491  0.0785
  145SAPE    HX15900   0.606   2.143  10.771  0.2853  0.6958 -3.8503
  145SAPE    HY15901   0.727   2.085  10.869 -0.5857 -1.3912 -1.4759
  145SAPE   O3115902   0.800   2.142  10.684  0.1044  0.2080  0.0614
  145SAPE   C3115903   0.923   2.126  10.707 -0.2658  0.5483  0.1161
  145SAPE   O3215904   0.977   2.117  10.810  0.6707 -0.0659  0.0109
  145SAPE   C3215905   0.990   2.099  10.573 -0.2573 -0.1154 -1.1710
  145SAPE   H2X15906   1.098   2.080  10.590 -0.3972  1.2689  1.4838
  145SAPE   H2Y15907   0.975   2.183  10.502  2.7987  2.8197  1.5070
  145SAPE   C2315908   0.754   2.461  10.431  0.5955 -0.5515  0.6202
  145SAPE   H3R15909   0.730   2.354  10.414  1.7157 -0.7320  0.1343
  145SAPE   H3S15910   0.864   2.465  10.443  0.9848  1.5013 -2.8450
  145SAPE   C2415911   0.713   2.542  10.309 -0.1070 -0.9006  0.1656
  145SAPE   H4R15912   0.604   2.549  10.327 -0.1368  1.2467 -0.7788
  145SAPE   H4S15913   0.728   2.480  10.218 -0.1341 -1.3480  0.4597
  145SAPE   C2515914   0.775   2.681  10.301  0.2973  0.7120 -0.3197
  145SAPE   H5R15915   0.814   2.719  10.397  1.4989 -0.1271 -0.4510
  145SAPE   C2615916   0.776   2.764  10.192  0.2747 -0.6726  0.3794
  145SAPE   H6R15917   0.821   2.864  10.193 -1.9009  0.4137 -2.9556
  145SAPE   C2715918   0.710   2.730  10.059 -0.2737 -0.0470  0.1467
  145SAPE   H7R15919   0.697   2.621  10.043  0.5938  0.1172 -1.9324
  145SAPE   H7S15920   0.786   2.738   9.979  1.3990 -0.1187  1.7051
  145SAPE   C2815921   0.577   2.794  10.026 -0.0384  0.2336 -0.1741
  145SAPE   H8R15922   0.506   2.801  10.109  0.3023 -2.3199  0.3808
  145SAPE   C2915923   0.536   2.841   9.904 -0.3173  0.1704  0.3438
  145SAPE   H9R15924   0.441   2.896   9.893  0.0931  1.0311  1.0315
  145SAPE  C21015925   0.613   2.839   9.780 -0.5016 -0.7478 -0.0693
  145SAPE  H10R15926   0.719   2.864   9.800 -0.6559  0.9427 -1.1784
  145SAPE  H10S15927   0.588   2.935   9.729 -1.1985 -0.2837  1.1241
  145SAPE  C21115928   0.577   2.745   9.666 -0.7691 -0.5695 -0.1953
  145SAPE  H11R15929   0.482   2.690   9.671 -1.8121  1.3245  1.6666
  145SAPE  C21215930   0.647   2.720   9.553  1.1067 -0.6443 -0.0991
  145SAPE  H12R15931   0.607   2.637   9.493 -1.0769  0.0124  0.3888
  145SAPE  C21315932   0.771   2.796   9.507 -0.5461  0.4125 -0.3108
  145SAPE  H13R15933   0.848   2.717   9.492 -0.0194  1.3158 -2.5937
  145SAPE  H13S15934   0.816   2.856   9.589  0.3428  1.2746 -1.4089
  145SAPE  C21415935   0.753   2.880   9.384  0.1489  1.1517 -0.4615
  145SAPE  H14R15936   0.747   2.989   9.399 -3.3106  1.0944 -1.2135
  145SAPE  C21515937   0.736   2.842   9.258 -0.1352 -0.8006 -0.3293
  145SAPE  H15R15938   0.736   2.909   9.171  0.2744 -1.3847 -0.7901
  145SAPE  C21615939   0.735   2.699   9.219  0.4469 -0.2846  0.0282
  145SAPE  H16R15940   0.745   2.638   9.311 -1.3520 -0.8104 -0.0911
  145SAPE  H16S15941   0.820   2.670   9.154  1.0424  1.2530  0.0952
  145SAPE  C21715942   0.599   2.658   9.163  0.3960 -0.5730 -0.2023
  145SAPE  H17R15943   0.522   2.692   9.236  1.5645 -3.1332  2.3286
  145SAPE  H17S15944   0.595   2.548   9.176 -0.1879 -0.3031  2.1068
  145SAPE  C21815945   0.585   2.715   9.031 -0.0468  0.5968  0.1143
  145SAPE  H18R15946   0.671   2.678   8.972  0.6280  1.4253  0.5780
  145SAPE  H18S15947   0.599   2.825   9.035  1.6732  0.4521 -1.2530
  145SAPE  C21915948   0.449   2.683   8.964 -0.6251 -0.1976  0.1861
  145SAPE  H19R15949   0.371   2.716   9.036 -0.9798  0.0086 -0.2947
  145SAPE  H19S15950   0.435   2.574   8.950 -3.7472  0.4657 -2.2997
  145SAPE  C22015951   0.438   2.750   8.832 -0.0023 -0.6990 -0.2553
  145SAPE  H20R15952   0.495   2.695   8.754 -0.2715 -2.5985  0.8535
  145SAPE  H20S15953   0.487   2.848   8.845  0.6295 -1.3006  2.1078
  145SAPE  H20T15954   0.330   2.756   8.804 -0.3587 -2.0091  0.7953
  145SAPE   C3315955   0.932   1.973  10.502  0.1734 -1.3099  0.6148
  145SAPE   H3X15956   0.821   1.981  10.503  0.3582  2.3686 -0.8233
  145SAPE   H3Y15957   0.950   1.881  10.561  0.2281 -0.0357  2.6327
  145SAPE   C3415958   1.006   1.936  10.370 -0.0450 -0.4312 -0.0213
  145SAPE   H4X15959   0.958   1.844  10.331 -0.2839 -0.0114 -0.7187
  145SAPE   H4Y15960   1.112   1.902  10.378 -0.5584 -1.7196  1.4530
  145SAPE   C3515961   1.007   2.056  10.272 -0.0171  0.3371 -0.1937
  145SAPE   H5X15962   1.100   2.116  10.271  0.6790 -0.7133 -0.2676
  145SAPE   H5Y15963   0.925   2.126  10.298 -1.6747 -1.8720  0.7134
  145SAPE   C3615964   0.986   1.983  10.142 -0.1584 -0.1331 -0.1088
  145SAPE   H6X15965   0.883   1.944  10.133 -0.1971 -0.1077  0.2096
  145SAPE   H6Y15966   1.057   1.897  10.148 -1.6861 -1.3133  1.4919
  145SAPE   C3715967   1.019   2.073  10.023  1.0932  0.2227  0.3609
  145SAPE   H7X15968   1.118   2.120  10.035  1.9319 -0.8632 -1.9925
  145SAPE   H7Y15969   0.950   2.159  10.005 -0.3646 -0.6846  1.4665
  145SAPE   C3815970   1.041   1.995   9.892  0.7816 -0.8903  0.1507
  145SAPE   H8X15971   0.960   1.922   9.869  0.2174  0.3228 -1.8280
  145SAPE   H8Y15972   1.133   1.934   9.902  0.0277 -2.4108 -1.8855
  145SAPE   C3915973   1.038   2.094   9.766 -0.8244  0.1353  0.1741
  145SAPE   H9X15974   1.119   2.169   9.778 -0.4371 -0.4143  1.0468
  145SAPE   H9Y15975   0.937   2.141   9.766 -1.3099 -0.8971 -0.6373
  145SAPE  C31015976   1.067   2.029   9.634  0.1976 -0.2137 -0.2995
  145SAPE  H10X15977   0.993   1.946   9.631 -1.0030  0.8742 -1.7267
  145SAPE  H10Y15978   1.166   1.978   9.634 -0.4130 -1.4571  2.1462
  145SAPE  C31115979   1.068   2.119   9.508 -0.0450 -0.1590  0.1178
  145SAPE  H11X15980   1.157   2.184   9.507 -1.2977  1.5749 -0.8076
  145SAPE  H11Y15981   0.979   2.184   9.501  0.4476  0.5500  0.4484
  145SAPE  C31215982   1.055   2.031   9.378  0.0298 -0.0978  0.0219
  145SAPE  H12X15983   1.009   2.096   9.301 -0.7941 -0.0490  0.5520
  145SAPE  H12Y15984   0.990   1.941   9.391  1.3977 -0.6243  3.9493
  145SAPE  C31315985   1.186   1.980   9.314  0.2972  1.1836  1.0116
  145SAPE  H13X15986   1.234   1.895   9.368  0.9420  1.1444  0.3826
  145SAPE  H13Y15987   1.250   2.071   9.314  0.0507  1.3572  0.8423
  145SAPE  C31415988   1.165   1.941   9.164  0.1711  0.1160 -0.5592
  145SAPE  H14X15989   1.099   1.852   9.158  3.8829 -2.6433 -1.7566
  145SAPE  H14Y15990   1.263   1.909   9.123 -0.0893  0.9198 -1.8403
  145SAPE  C31515991   1.118   2.047   9.061 -0.1039 -0.6408 -0.0308
  145SAPE  H15X15992   1.186   2.134   9.048 -3.3384  2.5572  3.4584
  145SAPE  H15Y15993   1.011   2.073   9.072 -0.2750 -1.0066 -0.7744
  145SAPE  C31615994   1.113   1.987   8.917  0.5041  0.4976 -0.2343
  145SAPE  H16X15995   1.058   1.891   8.912 -1.1837  1.4047  0.4646
  145SAPE  H16Y15996   1.215   1.972   8.875  1.2069 -0.3387  1.7283
  145SAPE  C31715997   1.069   2.092   8.810 -0.2606  0.6903 -1.0039
  145SAPE  H17X15998   1.134   2.182   8.813 -0.1238  0.6496 -2.1881
  145SAPE  H17Y15999   0.970   2.131   8.840 -0.9412 -1.6397 -0.0888
  145SAPE  C31816000   1.055   2.031   8.669 -0.1171 -1.1377 -0.4325
  145SAPE  H18X16001   0.973   1.957   8.663 -1.4348  0.3709 -1.8247
  145SAPE  H18Y16002   1.146   1.986   8.625 -0.9114 -3.0652 -0.1153
  145SAPE  H18Z16003   1.030   2.109   8.593 -0.4445 -0.6883  0.1236
  146SAPE     N16004   5.874   1.180  10.810  0.6360  0.0305 -0.2744
  146SAPE   HN116005   5.824   1.254  10.757  0.6519  1.3743  1.5397
  146SAPE   HN216006   5.973   1.208  10.826 -0.0030  1.9327  0.5268
  146SAPE   HN316007   5.877   1.095  10.751  0.7647 -0.6785  0.7395
  146SAPE   C1216008   5.794   1.149  10.938 -0.7366 -0.4294 -0.8646
  146SAPE  H12A16009   5.817   1.221  11.019  0.2839 -0.4463 -1.1223
  146SAPE  H12B16010   5.840   1.053  10.970  2.0505  1.3615  0.6925
  146SAPE   C1116011   5.646   1.139  10.902  0.5212 -0.7867 -0.1568
  146SAPE  H11A16012   5.598   1.239  10.889  4.4478  1.2012 -0.3711
  146SAPE  H11B16013   5.593   1.096  10.989 -0.7315  1.9194  0.4846
  146SAPE     P16014   5.488   0.991  10.759 -0.3674 -0.4021 -0.3177
  146SAPE   O1316015   5.501   0.914  10.635 -0.0471 -0.0032 -0.3910
  146SAPE   O1416016   5.457   0.919  10.888  0.2468  0.3333  0.7772
  146SAPE   O1216017   5.619   1.072  10.777  0.4238  0.2529 -0.3505
  146SAPE   O1116018   5.380   1.103  10.738  0.4633  0.0284 -0.4516
  146SAPE    C116019   5.402   1.235  10.683 -0.5756  0.7280  0.5158
  146SAPE    HA16020   5.328   1.302  10.731 -1.7389  0.4406 -0.8609
  146SAPE    HB16021   5.509   1.268  10.687 -0.3117 -0.1510  0.7484
  146SAPE    C216022   5.360   1.235  10.531 -0.2315  0.3614 -0.3098
  146SAPE    HS16023   5.431   1.187  10.461  2.0825  3.0981  0.0888
  146SAPE   O2116024   5.339   1.362  10.478 -0.2193 -0.1014  0.1492
  146SAPE   C2116025   5.426   1.450  10.464  0.2063  0.7329  0.1714
  146SAPE   O2216026   5.541   1.451  10.508  0.3965 -0.3160  0.1302
  146SAPE   C2216027   5.372   1.559  10.375 -0.0223  0.1735  0.2160
  146SAPE   H2R16028   5.290   1.612  10.427 -0.1597 -0.3433  0.5394
  146SAPE   H2S16029   5.460   1.625  10.366 -0.2200  0.2201 -1.6931
  146SAPE    C316030   5.234   1.145  10.512 -0.2662 -1.1551  0.0665
  146SAPE    HX16031   5.163   1.168  10.594 -1.9069  0.5234 -1.8075
  146SAPE    HY16032   5.263   1.038  10.526  1.9461 -0.4218  1.4249
  146SAPE   O3116033   5.171   1.167  10.391  0.1505 -0.2369 -0.6500
  146SAPE   C3116034   5.194   1.083  10.291 -0.1126  0.5815  0.3434
  146SAPE   O3216035   5.271   0.984  10.302  0.7878 -0.7509  0.0794
  146SAPE   C3216036   5.153   1.136  10.157  0.0813 -0.1735 -0.2780
  146SAPE   H2X16037   5.168   1.246  10.158  0.1783 -0.1471 -2.3286
  146SAPE   H2Y16038   5.049   1.103  10.137 -0.2380  0.1944  0.7226
  146SAPE   C2316039   5.318   1.499  10.243 -0.0197  0.5375 -0.4639
  146SAPE   H3R16040   5.232   1.435  10.272 -0.7867  1.5783 -0.4182
  146SAPE   H3S16041   5.392   1.440  10.185 -0.9455  0.1615 -1.2841
  146SAPE   C2416042   5.284   1.610  10.136  0.3503 -0.0680 -0.2929
  146SAPE   H4R16043   5.185   1.653  10.160 -0.6601 -1.1233 -2.4418
  146SAPE   H4S16044   5.277   1.556  10.039  1.3429  0.4265 -0.6509
  146SAPE   C2516045   5.398   1.714  10.121 -0.5997 -0.0420 -0.5269
  146SAPE   H5R16046   5.418   1.777  10.209 -1.0126 -1.9655  0.9833
  146SAPE   C2616047   5.477   1.727  10.013  0.2139 -0.1211 -0.0293
  146SAPE   H6R16048   5.551   1.809  10.013  0.4645 -0.3471 -0.2154
  146SAPE   C2716049   5.474   1.649   9.886  0.3719  0.2380  0.4407
  146SAPE   H7R16050   5.420   1.554   9.904  2.0142 -0.9686 -0.8156
  146SAPE   H7S16051   5.574   1.616   9.851 -1.8345 -2.3881 -3.7303
  146SAPE   C2816052   5.395   1.714   9.774 -0.3438  0.4619  0.1693
  146SAPE   H8R16053   5.288   1.718   9.798 -0.4030 -0.2648  0.0342
  146SAPE   C2916054   5.446   1.744   9.655 -0.4138 -0.2831  1.1517
  146SAPE   H9R16055   5.384   1.784   9.573 -2.4926 -2.2658  1.6833
  146SAPE  C21016056   5.594   1.734   9.620  0.3409 -0.0588 -0.0611
  146SAPE  H10R16057   5.621   1.626   9.627  1.4544  0.3821  3.3189
  146SAPE  H10S16058   5.654   1.768   9.707  0.8416 -0.2436 -0.3337
  146SAPE  C21116059   5.642   1.790   9.488  0.4430  0.5899 -0.0957
  146SAPE  H11R16060   5.683   1.892   9.497 -0.8190  0.9990  1.1058
  146SAPE  C21216061   5.626   1.740   9.365 -0.2974 -0.2445 -0.3775
  146SAPE  H12R16062   5.659   1.795   9.276  2.1583 -0.8621  0.1234
  146SAPE  C21316063   5.564   1.605   9.339 -0.0871  0.1362 -0.2788
  146SAPE  H13R16064   5.567   1.536   9.425  1.1216 -0.9122 -1.1467
  146SAPE  H13S16065   5.625   1.561   9.257  1.9948  0.3750  1.1147
  146SAPE  C21416066   5.421   1.603   9.285 -0.0279 -0.1109 -0.3683
  146SAPE  H14R16067   5.352   1.591   9.370  1.7454 -0.5670  1.0443
  146SAPE  C21516068   5.382   1.615   9.158  0.0544  0.1158 -0.7184
  146SAPE  H15R16069   5.273   1.613   9.146 -0.2393  1.5775  1.4198
  146SAPE  C21616070   5.461   1.638   9.035 -0.1134 -0.0324  0.0992
  146SAPE  H16R16071   5.502   1.740   9.027  3.3379 -1.5032 -2.3297
  146SAPE  H16S16072   5.385   1.632   8.954  0.5339  1.8048 -0.6544
  146SAPE  C21716073   5.577   1.545   9.003  0.0081 -0.1163 -0.4085
  146SAPE  H17R16074   5.560   1.444   9.047  0.8562 -0.2521 -0.3842
  146SAPE  H17S16075   5.672   1.589   9.040 -0.6948  1.9246 -0.9706
  146SAPE  C21816076   5.599   1.530   8.848 -0.3277 -0.0039  0.0881
  146SAPE  H18R16077   5.629   1.629   8.808  2.2116 -0.4619  0.7278
  146SAPE  H18S16078   5.510   1.484   8.800 -0.7546 -1.6120  2.2938
  146SAPE  C21916079   5.711   1.427   8.815 -0.4037 -0.1740 -0.4515
  146SAPE  H19R16080   5.798   1.448   8.881 -0.9553 -0.8380  0.5017
  146SAPE  H19S16081   5.731   1.451   8.708  0.0122  1.1576 -0.0813
  146SAPE  C22016082   5.672   1.277   8.837 -0.0884  0.5655 -0.6104
  146SAPE  H20R16083   5.589   1.254   8.766  1.2168 -2.1300 -1.3286
  146SAPE  H20S16084   5.629   1.258   8.937 -0.1486  3.8041  0.0257
  146SAPE  H20T16085   5.754   1.204   8.819 -1.2546 -0.8069 -0.4271
  146SAPE   C3316086   5.253   1.093  10.043  0.7364 -0.0382 -0.2209
  146SAPE   H3X16087   5.248   0.982  10.035  1.3939  0.0711 -2.3812
  146SAPE   H3Y16088   5.360   1.114  10.063  1.2399 -2.1258 -0.5626
  146SAPE   C3416089   5.203   1.139   9.901  0.2310  0.5951  0.0279
  146SAPE   H4X16090   5.093   1.133   9.885  0.3132  1.0206 -0.6831
  146SAPE   H4Y16091   5.252   1.059   9.841 -0.1327 -0.8057  1.5452
  146SAPE   C3516092   5.233   1.282   9.863 -0.3328 -0.2516 -0.9440
  146SAPE   H5X16093   5.312   1.325   9.929 -0.2544 -1.5131 -0.1860
  146SAPE   H5Y16094   5.134   1.326   9.885 -0.2804 -0.2234 -0.7672
  146SAPE   C3616095   5.278   1.303   9.721  0.2361 -0.5309 -0.0728
  146SAPE   H6X16096   5.386   1.280   9.713 -0.1238 -1.9416 -1.0125
  146SAPE   H6Y16097   5.284   1.413   9.705  0.5591 -0.3398  1.2612
  146SAPE   C3716098   5.191   1.234   9.613 -0.2699 -0.1767 -0.4437
  146SAPE   H7X16099   5.084   1.262   9.621 -0.4716 -1.2823  0.9409
  146SAPE   H7Y16100   5.188   1.126   9.639 -0.2750  0.4977  2.6583
  146SAPE   C3816101   5.252   1.264   9.481  0.1832 -0.0711 -0.8290
  146SAPE   H8X16102   5.356   1.227   9.486  0.8795  2.0434  1.4011
  146SAPE   H8Y16103   5.262   1.374   9.472  0.4766 -0.0625 -0.4386
  146SAPE   C3916104   5.169   1.223   9.362 -0.4844 -0.1428  0.3166
  146SAPE   H9X16105   5.065   1.261   9.376 -1.9553 -3.3724 -1.2991
  146SAPE   H9Y16106   5.169   1.112   9.357  1.5585 -0.2020  1.4422
  146SAPE  C31016107   5.228   1.268   9.224 -0.4384  0.4101  0.1841
  146SAPE  H10X16108   5.332   1.229   9.231 -1.6371 -3.3942 -1.4897
  146SAPE  H10Y16109   5.218   1.378   9.218  1.9757  0.6773  0.5050
  146SAPE  C31116110   5.181   1.196   9.101  0.1763  0.6594 -0.4240
  146SAPE  H11X16111   5.071   1.208   9.087 -0.2546 -1.6900  0.6028
  146SAPE  H11Y16112   5.188   1.086   9.116 -0.0141  0.7199  0.1464
  146SAPE  C31216113   5.258   1.235   8.968 -0.0463  0.1401 -0.2127
  146SAPE  H12X16114   5.369   1.238   8.978 -0.0417  2.1745 -0.7982
  146SAPE  H12Y16115   5.224   1.339   8.951 -2.4540 -0.8355 -1.6483
  146SAPE  C31316116   5.223   1.148   8.856  0.2459 -0.0938 -0.7346
  146SAPE  H13X16117   5.114   1.125   8.854  0.6352 -2.7732  3.0884
  146SAPE  H13Y16118   5.270   1.049   8.875 -1.1204 -0.4659  0.9564
  146SAPE  C31416119   5.266   1.204   8.723 -0.1145  0.9818  0.3503
  146SAPE  H14X16120   5.372   1.235   8.723 -0.3976  1.9716  0.7613
  146SAPE  H14Y16121   5.198   1.292   8.710  0.3821  1.2916 -0.1653
  146SAPE  C31516122   5.231   1.112   8.596 -0.3879  0.3697  0.2472
  146SAPE  H15X16123   5.222   1.182   8.511  0.2672 -1.2000 -1.1555
  146SAPE  H15Y16124   5.131   1.064   8.610 -0.8454  0.8384 -1.3570
  146SAPE  C31616125   5.338   1.001   8.556 -0.0195  0.0131  0.0478
  146SAPE  H16X16126   5.312   0.991   8.448 -0.2299 -1.8085  0.2529
  146SAPE  H16Y16127   5.309   0.904   8.601  0.1209 -0.4292 -0.7950
  146SAPE  C31716128   5.484   1.028   8.597  0.4457 -0.5135  0.2241
  146SAPE  H17X16129   5.540   0.933   8.613  1.9187  0.5441  1.5263
  146SAPE  H17Y16130   5.483   1.074   8.698 -2.4168  1.9137 -0.8606
  146SAPE  C31816131   5.557   1.124   8.496  0.3858  0.5729 -0.5577
  146SAPE  H18X16132   5.661   1.137   8.533 -0.6351 -0.0907  2.7877
  146SAPE  H18Y16133   5.508   1.224   8.494 -1.2028 -0.1964 -1.7449
  146SAPE  H18Z16134   5.542   1.076   8.397 -0.0334  0.1906 -0.3117
  147SAPE     N16135   3.562   5.521   6.170  0.2396  0.8402  0.5621
  147SAPE   HN116136   3.614   5.591   6.114  0.1626  0.4011 -0.0743
  147SAPE   HN216137   3.533   5.575   6.253 -0.5232  1.3066  0.0010
  147SAPE   HN316138   3.630   5.445   6.188  1.6780  1.4634 -1.9925
  147SAPE   C1216139   3.442   5.474   6.085 -0.0339  0.5540 -0.4503
  147SAPE  H12A16140   3.486   5.445   5.987  0.3689 -2.1437  0.4835
  147SAPE  H12B16141   3.369   5.557   6.071 -1.1922 -0.7080 -2.0587
  147SAPE   C1116142   3.370   5.349   6.146  0.1010  0.2759 -0.5367
  147SAPE  H11A16143   3.442   5.270   6.175  2.2251  1.5808 -2.1348
  147SAPE  H11B16144   3.309   5.319   6.058 -0.9840 -3.6294  1.4016
  147SAPE     P16145   3.234   5.299   6.366 -0.6014  0.0963 -0.0518
  147SAPE   O1316146   3.180   5.369   6.479  0.0865 -0.8227 -0.3853
  147SAPE   O1416147   3.143   5.206   6.294  0.1306 -0.2257 -0.0522
  147SAPE   O1216148   3.297   5.402   6.260  0.3904 -0.4998  0.4033
  147SAPE   O1116149   3.365   5.223   6.409 -0.1576 -0.2856  0.2787
  147SAPE    C116150   3.479   5.290   6.465  0.0890 -0.0728  0.1567
  147SAPE    HA16151   3.550   5.312   6.383  0.5970  2.0415  1.1123
  147SAPE    HB16152   3.450   5.392   6.498 -0.7638 -0.2124 -0.1501
  147SAPE    C216153   3.534   5.214   6.592  0.1107 -0.3196 -1.0120
  147SAPE    HS16154   3.554   5.109   6.564 -0.3099  0.0323 -2.7275
  147SAPE   O2116155   3.429   5.232   6.696  0.0524  0.6450 -0.1380
  147SAPE   C2116156   3.330   5.153   6.686  0.4563  0.6601  0.0058
  147SAPE   O2216157   3.313   5.044   6.626 -0.5233 -0.1375  0.2026
  147SAPE   C2216158   3.218   5.209   6.779  0.2249 -0.2882  0.3018
  147SAPE   H2R16159   3.239   5.201   6.887  0.9321  2.3308  0.3932
  147SAPE   H2S16160   3.216   5.320   6.768 -0.6964 -0.0968  2.2708
  147SAPE    C316161   3.671   5.277   6.629  1.0096 -0.0077  0.0291
  147SAPE    HX16162   3.659   5.387   6.637 -2.4045 -0.1844 -1.5299
  147SAPE    HY16163   3.748   5.254   6.553  1.3595  0.3537  0.2745
  147SAPE   O3116164   3.717   5.228   6.756 -0.1115 -0.3588 -0.1151
  147SAPE   C3116165   3.668   5.274   6.869 -0.0834  0.1045  0.0887
  147SAPE   O3216166   3.593   5.371   6.881 -0.5549  0.0614 -0.5808
  147SAPE   C3216167   3.713   5.198   6.986 -1.0114  0.2517  0.9925
  147SAPE   H2X16168   3.822   5.181   6.990 -0.9406  0.9146  2.2007
  147SAPE   H2Y16169   3.665   5.098   6.981  0.9600 -0.6599 -0.0858
  147SAPE   C2316170   3.077   5.164   6.731 -0.3277 -0.2446 -0.0268
  147SAPE   H3R16171   3.062   5.054   6.739 -2.3963 -0.0535 -0.9747
  147SAPE   H3S16172   3.058   5.191   6.625 -0.0170  1.4895  0.3381
  147SAPE   C2416173   2.962   5.231   6.811 -0.4852 -0.1514  0.0548
  147SAPE   H4R16174   2.864   5.202   6.767 -0.7418  0.5413  0.1532
  147SAPE   H4S16175   2.981   5.337   6.784  0.3753 -0.7195 -1.6652
  147SAPE   C2516176   2.971   5.199   6.965 -0.4483  0.0428 -0.1422
  147SAPE   H5R16177   2.981   5.091   6.982 -1.6402 -0.2661 -1.3016
  147SAPE   C2616178   2.970   5.290   7.061 -0.9488 -1.0066 -0.6078
  147SAPE   H6R16179   2.966   5.258   7.166  0.1411  0.1440 -0.1974
  147SAPE   C2716180   2.933   5.436   7.042 -0.1759 -0.4445  0.1715
  147SAPE   H7R16181   2.961   5.478   6.943  0.9505 -0.7771  0.3451
  147SAPE   H7S16182   2.994   5.494   7.115 -0.5774 -1.5174  1.3793
  147SAPE   C2816183   2.786   5.464   7.052  0.1415 -0.0765  0.3134
  147SAPE   H8R16184   2.726   5.410   6.977  0.5103 -0.2576  0.1493
  147SAPE   C2916185   2.731   5.539   7.155  0.1855  0.9839 -0.2957
  147SAPE   H9R16186   2.622   5.527   7.169 -0.3033  4.3797 -0.7082
  147SAPE  C21016187   2.799   5.611   7.264  0.0839 -0.2794  0.0994
  147SAPE  H10R16188   2.905   5.620   7.234 -0.1931 -1.6119 -1.3363
  147SAPE  H10S16189   2.802   5.559   7.362 -0.0200  0.3618  0.4482
  147SAPE  C21116190   2.733   5.752   7.280 -0.1237  0.3793  0.0788
  147SAPE  H11R16191   2.740   5.820   7.193 -0.5825  0.0938 -0.1808
  147SAPE  C21216192   2.674   5.802   7.388 -0.1373 -0.2243 -0.1383
  147SAPE  H12R16193   2.648   5.909   7.382  1.2497  0.0097 -2.4702
  147SAPE  C21316194   2.646   5.737   7.518  0.5485 -0.2187  0.1660
  147SAPE  H13R16195   2.645   5.811   7.601  1.5336 -0.4178  0.3713
  147SAPE  H13S16196   2.727   5.662   7.531 -0.0206 -0.6765  1.1491
  147SAPE  C21416197   2.505   5.677   7.529  0.1017  0.0880 -0.7382
  147SAPE  H14R16198   2.456   5.680   7.431  0.2455  0.1539 -0.8087
  147SAPE  C21516199   2.447   5.630   7.638 -0.9110  1.1233  0.1632
  147SAPE  H15R16200   2.344   5.593   7.621  0.3589 -1.3854 -2.4517
  147SAPE  C21616201   2.509   5.625   7.774  0.0586 -0.7013  0.4091
  147SAPE  H16R16202   2.431   5.634   7.852  0.3803 -1.0759  0.7782
  147SAPE  H16S16203   2.579   5.711   7.781 -1.5730  0.6267  0.7422
  147SAPE  C21716204   2.598   5.493   7.801 -0.5503 -0.3178  0.6652
  147SAPE  H17R16205   2.691   5.497   7.740 -0.3715 -0.4020  0.9280
  147SAPE  H17S16206   2.542   5.400   7.781 -0.3160 -0.5836  1.2184
  147SAPE  C21816207   2.656   5.481   7.947 -0.0956 -0.2867 -0.5396
  147SAPE  H18R16208   2.698   5.578   7.979 -2.4033  0.3156  0.7158
  147SAPE  H18S16209   2.752   5.425   7.935  1.8240  3.2184 -2.3471
  147SAPE  C21916210   2.569   5.418   8.054  0.0187 -0.6817  0.4219
  147SAPE  H19R16211   2.468   5.448   8.019 -0.2045 -1.3901  0.4543
  147SAPE  H19S16212   2.580   5.476   8.148 -3.0641 -0.8321  0.9200
  147SAPE  C22016213   2.596   5.267   8.058 -0.5521  0.4607 -0.7588
  147SAPE  H20R16214   2.537   5.233   8.146  1.0499  1.8489  0.9122
  147SAPE  H20S16215   2.699   5.236   8.088 -0.0515  2.0117 -0.8176
  147SAPE  H20T16216   2.568   5.223   7.961 -0.7158  1.2852 -1.0958
  147SAPE   C3316217   3.660   5.269   7.115 -0.2252 -0.8510  0.2247
  147SAPE   H3X16218   3.552   5.288   7.105 -0.0824  1.1358  1.9984
  147SAPE   H3Y16219   3.710   5.367   7.130 -0.6583 -0.4143 -1.1297
  147SAPE   C3416220   3.695   5.185   7.241 -0.1836 -0.3660 -0.3000
  147SAPE   H4X16221   3.797   5.223   7.263  0.1730 -0.7059 -1.3245
  147SAPE   H4Y16222   3.692   5.078   7.211  1.0232 -0.2584 -0.8160
  147SAPE   C3516223   3.593   5.199   7.346 -0.5683 -1.2412 -0.4415
  147SAPE   H5X16224   3.608   5.128   7.430  1.0827 -1.0077 -0.5261
  147SAPE   H5Y16225   3.494   5.162   7.310 -1.1634  0.7237 -0.9189
  147SAPE   C3616226   3.575   5.340   7.409 -0.4021  0.3031  0.1931
  147SAPE   H6X16227   3.541   5.403   7.323  0.8754 -1.7194 -1.8663
  147SAPE   H6Y16228   3.674   5.382   7.437 -0.1630  0.5501 -0.9894
  147SAPE   C3716229   3.484   5.344   7.525 -1.1318  0.1624  0.1850
  147SAPE   H7X16230   3.482   5.447   7.567  1.6242  1.2940 -2.2204
  147SAPE   H7Y16231   3.510   5.283   7.614 -2.4462 -1.4644 -0.5231
  147SAPE   C3816232   3.338   5.314   7.481  0.3911 -0.1575 -0.1171
  147SAPE   H8X16233   3.333   5.226   7.413  1.9023  0.2754 -0.8093
  147SAPE   H8Y16234   3.314   5.404   7.420  0.3050  0.6777  1.1408
  147SAPE   C3916235   3.232   5.290   7.596 -0.9808  0.1728 -0.5387
  147SAPE   H9X16236   3.230   5.393   7.639  0.7308 -0.1608  0.3850
  147SAPE   H9Y16237   3.266   5.216   7.671  0.3110  0.9968 -0.2969
  147SAPE  C31016238   3.102   5.237   7.537 -0.2520 -0.1847 -0.5886
  147SAPE  H10X16239   3.117   5.134   7.497 -2.0415 -0.7547  0.1557
  147SAPE  H10Y16240   3.080   5.301   7.449 -2.4932 -0.1705 -0.0351
  147SAPE  C31116241   2.980   5.245   7.637  0.3058 -0.4583 -0.0866
  147SAPE  H11X16242   2.962   5.347   7.677 -1.6133 -1.3381  1.3734
  147SAPE  H11Y16243   3.019   5.185   7.721  0.8597 -0.3817 -0.2893
  147SAPE  C31216244   2.846   5.201   7.580  0.1568 -0.4070 -0.3411
  147SAPE  H12X16245   2.780   5.186   7.668 -0.5652 -1.8286 -1.1104
  147SAPE  H12Y16246   2.848   5.099   7.536 -3.0743 -0.1264 -1.2721
  147SAPE  C31316247   2.764   5.295   7.485 -0.3310 -0.2831 -0.0064
  147SAPE  H13X16248   2.817   5.281   7.389 -1.6861 -3.5028 -0.3546
  147SAPE  H13Y16249   2.774   5.400   7.520  2.5869  0.4607 -2.8910
  147SAPE  C31416250   2.614   5.257   7.483 -0.6661  0.5787 -0.1410
  147SAPE  H14X16251   2.572   5.319   7.401 -0.1061 -0.2757 -1.0868
  147SAPE  H14Y16252   2.554   5.281   7.573 -1.4632  0.5543 -0.6613
  147SAPE  C31516253   2.600   5.105   7.434 -0.2749 -0.6723 -0.0955
  147SAPE  H15X16254   2.493   5.079   7.439 -0.0268 -2.1793 -2.0865
  147SAPE  H15Y16255   2.657   5.042   7.505  1.6311  0.3825 -0.6367
  147SAPE  C31616256   2.647   5.101   7.293 -0.2034 -0.1074  0.2059
  147SAPE  H16X16257   2.758   5.102   7.288 -0.1576  0.1508  1.1831
  147SAPE  H16Y16258   2.593   5.176   7.231  0.1560  1.2299  1.4750
  147SAPE  C31716259   2.616   4.962   7.219  0.1940  0.2795 -1.2256
  147SAPE  H17X16260   2.514   4.963   7.175 -0.0989  1.6154 -0.5617
  147SAPE  H17Y16261   2.615   4.884   7.297 -1.0905  1.5315  0.0350
  147SAPE  C31816262   2.723   4.933   7.114  0.0854  0.0621 -0.3751
  147SAPE  H18X16263   2.829   4.943   7.147 -0.4094  0.3767  1.1869
  147SAPE  H18Y16264   2.720   5.000   7.026  0.3207 -0.0340 -0.4568
  147SAPE  H18Z16265   2.704   4.830   7.077  2.8337 -1.8280  3.0879
  148SAPE     N16266   2.129   3.659   6.372 -0.5854  0.2622 -0.1024
  148SAPE   HN116267   2.207   3.693   6.312 -0.0091  0.6465  0.8435
  148SAPE   HN216268   2.181   3.579   6.414  0.6883  1.6158  0.9652
  148SAPE   HN316269   2.048   3.624   6.317  0.3479 -2.6836  0.2683
  148SAPE   C1216270   2.101   3.757   6.476  0.4261 -0.2644  0.4152
  148SAPE  H12A16271   2.045   3.834   6.419  2.4338 -0.0797 -1.3682
  148SAPE  H12B16272   2.200   3.794   6.511  1.8465  0.5846 -4.0925
  148SAPE   C1116273   2.020   3.682   6.581 -0.0302  0.3135 -0.0921
  148SAPE  H11A16274   1.955   3.753   6.635  0.7274  2.6807 -2.2101
  148SAPE  H11B16275   2.084   3.616   6.643 -0.1365  1.0833  0.8372
  148SAPE     P16276   1.838   3.485   6.610  0.0567  0.1146  0.0751
  148SAPE   O1316277   1.702   3.525   6.641 -0.2759 -0.3194  0.2772
  148SAPE   O1416278   1.855   3.355   6.545  0.4525  0.1657 -0.0433
  148SAPE   O1216279   1.920   3.594   6.523 -0.3161  0.1866 -0.3070
  148SAPE   O1116280   1.916   3.493   6.744  0.0677  0.1441 -0.3656
  148SAPE    C116281   1.884   3.548   6.872  0.0422  0.2222  0.0551
  148SAPE    HA16282   1.775   3.567   6.868 -0.0006 -0.0042  0.1678
  148SAPE    HB16283   1.897   3.483   6.961  0.5463  1.6151  1.0325
  148SAPE    C216284   1.970   3.671   6.913 -0.0104 -0.0263 -0.2875
  148SAPE    HS16285   1.973   3.745   6.830  0.0841  0.7370  0.3984
  148SAPE   O2116286   2.100   3.620   6.957  0.0046  0.7997 -0.2000
  148SAPE   C2116287   2.192   3.717   6.972  0.3138 -0.1470  0.2503
  148SAPE   O2216288   2.169   3.831   6.939 -0.2214  0.0995 -0.1630
  148SAPE   C2216289   2.320   3.653   7.021 -0.0979 -1.3155 -0.2359
  148SAPE   H2R16290   2.302   3.569   7.092  0.2667 -0.3279  1.0448
  148SAPE   H2S16291   2.380   3.616   6.935 -0.6563 -1.0367 -0.7454
  148SAPE    C316292   1.886   3.749   7.018  0.9271  0.3195 -0.3524
  148SAPE    HX16293   1.781   3.715   7.014  0.6265  1.3033 -0.9345
  148SAPE    HY16294   1.883   3.853   6.980  1.2009 -0.0562 -1.4179
  148SAPE   O3116295   1.950   3.742   7.147  0.1367 -0.2347 -0.3189
  148SAPE   C3116296   1.883   3.798   7.245  0.3101  0.5884 -0.2202
  148SAPE   O3216297   1.774   3.847   7.235  0.3702  0.1468  0.4514
  148SAPE   C3216298   1.958   3.788   7.378  0.1848 -0.1073  0.5328
  148SAPE   H2X16299   2.000   3.891   7.385 -0.2825  0.0101  1.7039
  148SAPE   H2Y16300   2.044   3.718   7.375 -0.8528 -1.3903  0.5532
  148SAPE   C2316301   2.402   3.764   7.086  0.1205  0.2748  0.0339
  148SAPE   H3R16302   2.411   3.832   6.998 -2.4113  0.8619  0.1808
  148SAPE   H3S16303   2.503   3.733   7.120 -0.2517 -1.0953 -0.1148
  148SAPE   C2416304   2.339   3.834   7.211  0.3778 -0.1882  0.3463
  148SAPE   H4R16305   2.251   3.898   7.186 -0.5242 -1.4478  0.2463
  148SAPE   H4S16306   2.419   3.905   7.239  0.4493 -0.5362  1.0341
  148SAPE   C2516307   2.314   3.742   7.334  0.9804 -0.0484 -0.4733
  148SAPE   H5R16308   2.287   3.637   7.313 -0.4644  0.5732 -1.8531
  148SAPE   C2616309   2.333   3.765   7.465 -0.7181 -0.2791 -0.4485
  148SAPE   H6R16310   2.304   3.693   7.542  2.5031 -1.3726 -0.2136
  148SAPE   C2716311   2.378   3.896   7.532 -0.6516 -0.1593  0.7324
  148SAPE   H7R16312   2.405   3.964   7.449  0.1941  0.6593  1.6551
  148SAPE   H7S16313   2.480   3.867   7.566  0.2103 -0.3078 -1.8656
  148SAPE   C2816314   2.292   3.964   7.637 -0.5956 -0.3220 -0.2087
  148SAPE   H8R16315   2.255   4.061   7.602 -3.6186 -1.2377  0.3075
  148SAPE   C2916316   2.275   3.933   7.768  0.4505  0.1629  0.6569
  148SAPE   H9R16317   2.212   3.997   7.831  1.0214 -0.1946  1.6047
  148SAPE  C21016318   2.346   3.817   7.831 -0.0078  0.1856  0.3541
  148SAPE  H10R16319   2.367   3.741   7.753  0.9019  0.2123  0.5638
  148SAPE  H10S16320   2.280   3.761   7.901 -0.0063 -1.2622 -0.7758
  148SAPE  C21116321   2.482   3.851   7.897  0.4759  0.0302 -0.4050
  148SAPE  H11R16322   2.503   3.953   7.931  0.7494 -0.1950  0.1157
  148SAPE  C21216323   2.570   3.753   7.941 -0.4467  0.1482  0.3376
  148SAPE  H12R16324   2.661   3.772   8.000 -0.4295 -0.4410  0.5037
  148SAPE  C21316325   2.547   3.604   7.925 -0.5707  0.3346  0.5793
  148SAPE  H13R16326   2.444   3.587   7.886  0.6278 -0.5781 -2.2714
  148SAPE  H13S16327   2.558   3.548   8.021 -3.0877 -0.8419  0.2192
  148SAPE  C21416328   2.646   3.540   7.829 -0.3131 -0.0303 -0.5056
  148SAPE  H14R16329   2.751   3.564   7.851 -0.9256  1.4548  0.9766
  148SAPE  C21516330   2.607   3.451   7.733 -0.3014  0.0153 -0.4287
  148SAPE  H15R16331   2.689   3.398   7.681 -1.4081 -0.9607 -1.1947
  148SAPE  C21616332   2.467   3.405   7.704  0.5757 -0.4138 -0.8957
  148SAPE  H16R16333   2.409   3.475   7.640  0.4558 -0.6685 -1.0671
  148SAPE  H16S16334   2.411   3.389   7.799  2.3828 -2.4428 -0.1208
  148SAPE  C21716335   2.468   3.266   7.636  1.0033  0.1480 -0.4756
  148SAPE  H17R16336   2.362   3.233   7.624  0.7515  0.3533  1.1482
  148SAPE  H17S16337   2.502   3.195   7.714  1.4626  1.8342  0.8879
  148SAPE  C21816338   2.549   3.252   7.501 -0.1627 -0.2149 -0.9315
  148SAPE  H18R16339   2.539   3.146   7.470  0.0504 -0.8853  1.2122
  148SAPE  H18S16340   2.654   3.266   7.535  0.4421 -0.9366 -2.4806
  148SAPE  C21916341   2.511   3.356   7.396  0.0984  0.4073 -0.6707
  148SAPE  H19R16342   2.563   3.451   7.421  1.6901 -0.7832  0.7694
  148SAPE  H19S16343   2.401   3.372   7.400  0.1777  1.2260 -1.6891
  148SAPE  C22016344   2.553   3.327   7.252 -0.8766  0.2495  0.2339
  148SAPE  H20R16345   2.551   3.428   7.204 -0.4975  1.2469  2.2804
  148SAPE  H20S16346   2.492   3.256   7.193 -1.7236  0.9805  0.2297
  148SAPE  H20T16347   2.655   3.283   7.251 -0.0950  2.0135  0.1335
  148SAPE   C3316348   1.859   3.773   7.497  0.6746  1.0607  0.8959
  148SAPE   H3X16349   1.832   3.666   7.512 -1.3975  0.8945 -3.0986
  148SAPE   H3Y16350   1.766   3.830   7.475  0.4439  0.1093 -0.6630
  148SAPE   C3416351   1.917   3.836   7.619  0.1368 -0.2766  0.3332
  148SAPE   H4X16352   1.948   3.942   7.608 -2.1464  0.1538 -2.7014
  148SAPE   H4Y16353   2.005   3.784   7.663  0.6130  1.3595  1.3303
  148SAPE   C3516354   1.812   3.844   7.729 -0.0560  0.4821 -0.3376
  148SAPE   H5X16355   1.791   3.745   7.773 -0.0018  0.8843  0.6034
  148SAPE   H5Y16356   1.730   3.909   7.692  1.4706  2.3832 -0.5143
  148SAPE   C3616357   1.868   3.920   7.855 -0.1860  0.0626  0.1896
  148SAPE   H6X16358   1.919   4.011   7.817  2.2019 -1.1819  0.2738
  148SAPE   H6Y16359   1.952   3.857   7.892  0.8998 -0.9788 -3.8076
  148SAPE   C3716360   1.767   3.950   7.964 -0.2016  0.5099 -0.2025
  148SAPE   H7X16361   1.693   3.868   7.971  0.1386  0.2862  1.0034
  148SAPE   H7Y16362   1.709   4.036   7.925 -1.7481 -0.3971  0.0684
  148SAPE   C3816363   1.829   3.986   8.096 -0.3355 -0.5066 -0.3235
  148SAPE   H8X16364   1.897   4.071   8.075 -3.0894  2.0669  0.8126
  148SAPE   H8Y16365   1.898   3.903   8.122  0.0329 -0.8937 -2.4794
  148SAPE   C3916366   1.727   4.008   8.204 -0.3702 -0.4443 -0.4302
  148SAPE   H9X16367   1.640   3.961   8.154 -0.2043 -1.7923  0.5171
  148SAPE   H9Y16368   1.696   4.113   8.224 -0.5900 -0.8097  1.2190
  148SAPE  C31016369   1.750   3.946   8.344  0.4403 -0.8506  0.0460
  148SAPE  H10X16370   1.790   3.843   8.334  0.1442 -1.0770  1.1186
  148SAPE  H10Y16371   1.657   3.940   8.405  1.2728 -0.7481  1.3498
  148SAPE  C31116372   1.867   4.011   8.421  0.1113  0.0088 -0.0643
  148SAPE  H11X16373   1.859   4.121   8.436  2.0536  0.3843 -1.4553
  148SAPE  H11Y16374   1.961   4.006   8.361 -1.0067 -0.3241 -1.8228
  148SAPE  C31216375   1.885   3.953   8.561 -0.9471 -0.6271  0.1922
  148SAPE  H12X16376   1.919   3.847   8.555 -2.8554 -1.1950 -1.3810
  148SAPE  H12Y16377   1.790   3.955   8.618  0.6885  2.6922  3.0008
  148SAPE  C31316378   1.983   4.027   8.655  0.0020  0.0732 -0.3428
  148SAPE  H13X16379   2.083   4.029   8.606 -0.1722 -0.5017 -0.7300
  148SAPE  H13Y16380   2.000   3.961   8.743  0.8205  1.0766  0.2591
  148SAPE  C31416381   1.941   4.168   8.691  0.2203 -0.9700  0.3493
  148SAPE  H14X16382   1.833   4.171   8.714  0.5552  1.1962  1.8146
  148SAPE  H14Y16383   1.953   4.224   8.595  2.1666 -0.7904  0.6675
  148SAPE  C31516384   2.033   4.231   8.804  0.5029  0.3682 -0.2935
  148SAPE  H15X16385   2.134   4.230   8.757  0.3941  1.4461 -0.5525
  148SAPE  H15Y16386   2.032   4.165   8.894  2.4130  1.6521  0.6990
  148SAPE  C31616387   2.000   4.382   8.838 -0.9573 -0.1921 -0.0585
  148SAPE  H16X16388   2.068   4.405   8.922  1.2114  0.9858 -2.0805
  148SAPE  H16Y16389   1.902   4.394   8.890  0.3279  1.3528  2.0569
  148SAPE  C31716390   2.022   4.485   8.727  0.1246 -0.3730 -0.0026
  148SAPE  H17X16391   2.012   4.593   8.751 -0.6577 -0.3251 -0.5351
  148SAPE  H17Y16392   1.945   4.450   8.655  1.4918 -1.5427 -0.9412
  148SAPE  C31816393   2.163   4.484   8.667 -0.0203 -0.5645 -0.1802
  148SAPE  H18X16394   2.191   4.571   8.603  0.1045  0.6228  1.4405
  148SAPE  H18Y16395   2.178   4.389   8.612 -0.3949  0.0961 -1.4433
  148SAPE  H18Z16396   2.231   4.481   8.755 -1.1208 -0.6279  0.6816
  149SAPE     N16397   2.202   4.564   6.458 -0.4489 -0.3693  0.1558
  149SAPE   HN116398   2.142   4.632   6.508 -1.3510 -0.6633 -0.5191
  149SAPE   HN216399   2.189   4.477   6.514  0.5676  0.6597  2.0437
  149SAPE   HN316400   2.301   4.597   6.463 -0.7622  0.7843 -0.9885
  149SAPE   C1216401   2.139   4.521   6.324  0.3145 -0.2377 -0.0587
  149SAPE  H12A16402   2.218   4.473   6.261  0.0828 -0.5766 -0.0947
  149SAPE  H12B16403   2.095   4.609   6.274 -1.2231 -0.9772 -0.0352
  149SAPE   C1116404   2.023   4.418   6.347  0.0544  0.2052 -0.0506
  149SAPE  H11A16405   2.069   4.318   6.364  0.5940  0.4713  0.0641
  149SAPE  H11B16406   1.972   4.413   6.248  1.8585 -0.1972 -0.9921
  149SAPE     P16407   1.812   4.377   6.485 -0.2491 -0.0488 -0.0254
  149SAPE   O1316408   1.746   4.351   6.358 -0.1010 -0.9267  0.2916
  149SAPE   O1416409   1.856   4.260   6.568  0.1599 -0.4637  0.5404
  149SAPE   O1216410   1.938   4.459   6.452 -0.3194  0.2380 -0.0170
  149SAPE   O1116411   1.719   4.467   6.573 -0.1686  0.1764 -0.2192
  149SAPE    C116412   1.733   4.598   6.623 -0.3468 -0.1928 -0.9030
  149SAPE    HA16413   1.827   4.639   6.581  1.1746 -0.1644  2.3439
  149SAPE    HB16414   1.643   4.659   6.602 -0.7803 -0.4642  0.1394
  149SAPE    C216415   1.760   4.610   6.777  0.5772 -0.8828 -0.2284
  149SAPE    HS16416   1.851   4.673   6.788 -0.7372  0.8240  1.3061
  149SAPE   O2116417   1.760   4.483   6.851  0.7559  0.1283  0.0978
  149SAPE   C2116418   1.885   4.424   6.878 -0.0602 -0.6024 -0.6744
  149SAPE   O2216419   1.994   4.468   6.841  0.1805 -0.4991  0.0424
  149SAPE   C2216420   1.861   4.321   6.988  0.2100 -0.3879  0.0429
  149SAPE   H2R16421   1.792   4.364   7.064 -1.0696  0.3903 -1.5409
  149SAPE   H2S16422   1.807   4.238   6.939  0.6034 -0.7292  0.1901
  149SAPE    C316423   1.651   4.709   6.834  0.2803  0.2458  0.2128
  149SAPE    HX16424   1.550   4.664   6.829 -0.9354  2.7435  0.9838
  149SAPE    HY16425   1.650   4.807   6.781  1.6127  1.3783  2.2155
  149SAPE   O3116426   1.679   4.743   6.973 -0.5067  0.0350  0.2536
  149SAPE   C3116427   1.626   4.662   7.067  0.5602 -0.1452 -0.3237
  149SAPE   O3216428   1.538   4.583   7.052  0.1526  0.8067  0.6423
  149SAPE   C3216429   1.696   4.700   7.198 -0.5729  0.1686 -0.5545
  149SAPE   H2X16430   1.622   4.744   7.268 -0.9832  0.6211 -1.2755
  149SAPE   H2Y16431   1.767   4.785   7.188  0.3550 -0.7395 -1.8440
  149SAPE   C2316432   2.002   4.273   7.047  0.4680 -0.6086 -0.6690
  149SAPE   H3R16433   2.046   4.363   7.095  0.4016 -1.6612  1.4520
  149SAPE   H3S16434   2.063   4.236   6.961 -1.8552 -0.2833 -2.4981
  149SAPE   C2416435   1.968   4.173   7.163  0.0382  0.2512 -0.2940
  149SAPE   H4R16436   1.915   4.089   7.113  0.8032  0.6857 -1.8524
  149SAPE   H4S16437   1.888   4.215   7.228 -1.0311 -0.1146 -1.3426
  149SAPE   C2516438   2.096   4.122   7.230  0.1211 -0.1593 -0.6071
  149SAPE   H5R16439   2.154   4.057   7.163 -1.3483 -0.1438 -1.8950
  149SAPE   C2616440   2.125   4.132   7.362 -0.1870  0.2477  0.0764
  149SAPE   H6R16441   2.228   4.103   7.386  0.3022  1.6978 -0.2115
  149SAPE   C2716442   2.043   4.213   7.462 -0.1394  0.0432 -0.1144
  149SAPE   H7R16443   2.042   4.155   7.557  1.6431  1.4632  0.8013
  149SAPE   H7S16444   1.939   4.224   7.424 -0.4573  0.6671  0.9048
  149SAPE   C2816445   2.107   4.348   7.486 -0.5267  0.6203  0.4597
  149SAPE   H8R16446   2.113   4.413   7.397  4.4336 -0.0422  0.1754
  149SAPE   C2916447   2.188   4.387   7.586 -1.0786 -0.5587 -0.0447
  149SAPE   H9R16448   2.223   4.491   7.582  1.3353 -1.4025 -1.3185
  149SAPE  C21016449   2.221   4.313   7.708  0.2238  0.3177 -0.7249
  149SAPE  H10R16450   2.313   4.251   7.692  1.2169  1.5727 -0.0065
  149SAPE  H10S16451   2.143   4.235   7.723  2.9041 -2.5238 -0.9030
  149SAPE  C21116452   2.259   4.397   7.826 -0.7445  0.1637  0.2075
  149SAPE  H11R16453   2.335   4.473   7.799  2.2103 -2.5838  0.4634
  149SAPE  C21216454   2.222   4.376   7.957 -0.6004 -0.5317  0.6761
  149SAPE  H12R16455   2.268   4.446   8.028  0.3712  2.5483 -2.7722
  149SAPE  C21316456   2.133   4.267   8.006  0.6252 -0.2051 -0.1823
  149SAPE  H13R16457   2.183   4.172   8.035  0.6891  0.1522  0.8981
  149SAPE  H13S16458   2.060   4.231   7.930 -1.7545 -0.5050  2.1850
  149SAPE  C21416459   2.045   4.312   8.127  0.5025 -1.0332 -0.3041
  149SAPE  H14R16460   1.955   4.370   8.102  1.6356  1.3946  1.0994
  149SAPE  C21516461   2.087   4.295   8.255  1.0636  0.2121  0.8438
  149SAPE  H15R16462   2.033   4.345   8.337  0.5756 -0.3672  0.8781
  149SAPE  C21616463   2.213   4.227   8.303 -0.1700 -0.5726  0.4296
  149SAPE  H16R16464   2.234   4.296   8.388  0.8280 -0.3765  0.0233
  149SAPE  H16S16465   2.296   4.253   8.235  0.0441  0.4733  1.0765
  149SAPE  C21716466   2.225   4.084   8.359 -0.0507 -0.0991  0.1621
  149SAPE  H17R16467   2.136   4.064   8.422 -0.1724  0.3227  0.1244
  149SAPE  H17S16468   2.320   4.081   8.417  1.3931 -0.9009 -2.1802
  149SAPE  C21816469   2.243   3.982   8.250 -0.0840 -0.2256  0.2150
  149SAPE  H18R16470   2.347   3.998   8.213 -0.8566  1.6803 -1.2356
  149SAPE  H18S16471   2.183   4.003   8.159 -0.1476 -1.6187 -0.0678
  149SAPE  C21916472   2.213   3.838   8.296 -0.6266  0.2465 -0.6887
  149SAPE  H19R16473   2.105   3.822   8.318 -0.7452 -1.3533 -2.2885
  149SAPE  H19S16474   2.254   3.819   8.397  0.4563  0.7776 -1.0288
  149SAPE  C22016475   2.267   3.728   8.206  0.5750  0.2201 -0.5794
  149SAPE  H20R16476   2.251   3.629   8.254  2.0474  0.5533  0.6770
  149SAPE  H20S16477   2.377   3.742   8.192  0.6965  3.5834  2.7818
  149SAPE  H20T16478   2.214   3.741   8.110  0.7532  0.3381 -0.6623
  149SAPE   C3316479   1.783   4.586   7.258 -0.3525  0.8130 -0.2152
  149SAPE   H3X16480   1.866   4.643   7.305  1.0003  1.1065 -2.9088
  149SAPE   H3Y16481   1.834   4.545   7.169 -1.5782 -0.9627 -0.1363
  149SAPE   C3416482   1.718   4.475   7.353 -0.1315  1.5089  0.5641
  149SAPE   H4X16483   1.799   4.401   7.369 -0.2202  2.0992  4.2361
  149SAPE   H4Y16484   1.642   4.431   7.286  1.1425 -0.6222  0.4793
  149SAPE   C3516485   1.653   4.539   7.478 -0.0649 -0.4675  0.6106
  149SAPE   H5X16486   1.569   4.603   7.443  1.5567  1.6438  0.4854
  149SAPE   H5Y16487   1.733   4.601   7.523  0.4318 -0.4113 -0.3428
  149SAPE   C3616488   1.607   4.433   7.576  0.3676  0.0428  0.8308
  149SAPE   H6X16489   1.548   4.359   7.518 -1.5851  1.0226  1.5036
  149SAPE   H6Y16490   1.532   4.480   7.644  0.4487 -0.9684  1.6387
  149SAPE   C3716491   1.717   4.365   7.654  0.3268  0.0720 -0.2271
  149SAPE   H7X16492   1.800   4.438   7.666 -0.0214  0.6360 -1.1736
  149SAPE   H7Y16493   1.755   4.275   7.600  1.5026  0.6018 -0.2908
  149SAPE   C3816494   1.674   4.310   7.790 -0.9927 -0.0329 -0.0039
  149SAPE   H8X16495   1.763   4.254   7.826 -0.4977  0.9890  0.3852
  149SAPE   H8Y16496   1.595   4.234   7.777  0.3730 -1.4084 -0.4495
  149SAPE   C3916497   1.652   4.414   7.904  0.4559  0.1299 -0.5892
  149SAPE   H9X16498   1.553   4.456   7.878  0.2058  1.3504  2.1511
  149SAPE   H9Y16499   1.733   4.490   7.898  0.2556  0.2695 -1.5245
  149SAPE  C31016500   1.648   4.344   8.044 -0.2759  0.4438 -0.6598
  149SAPE  H10X16501   1.748   4.301   8.069 -0.4939  0.3715  0.1223
  149SAPE  H10Y16502   1.592   4.249   8.029 -0.9545  0.4547  1.6283
  149SAPE  C31116503   1.599   4.442   8.147 -0.2287  0.4946  0.0088
  149SAPE  H11X16504   1.491   4.459   8.124 -0.1282  0.7560 -0.2623
  149SAPE  H11Y16505   1.659   4.533   8.127  0.1955  0.0804 -0.5913
  149SAPE  C31216506   1.618   4.389   8.294  0.4714  0.1195 -0.0720
  149SAPE  H12X16507   1.722   4.350   8.302  0.5857  0.2376 -0.9187
  149SAPE  H12Y16508   1.540   4.311   8.306 -0.9733  1.6131  0.4828
  149SAPE  C31316509   1.594   4.495   8.403 -0.3687 -0.0452  0.0460
  149SAPE  H13X16510   1.500   4.548   8.380 -0.7000 -1.0267 -0.8648
  149SAPE  H13Y16511   1.675   4.571   8.399 -0.8469  0.4854  0.3507
  149SAPE  C31416512   1.614   4.457   8.552  0.4723  0.3592  0.0672
  149SAPE  H14X16513   1.678   4.372   8.583 -2.2328 -0.9145  2.4833
  149SAPE  H14Y16514   1.516   4.412   8.580  0.4671  1.3047  1.6369
  149SAPE  C31516515   1.622   4.584   8.644  0.4930  0.0394  0.6281
  149SAPE  H15X16516   1.539   4.650   8.609  0.1183 -1.4755 -1.3899
  149SAPE  H15Y16517   1.717   4.636   8.617  1.2536 -0.7028  1.8129
  149SAPE  C31616518   1.607   4.560   8.794  0.3319 -0.0037 -0.5123
  149SAPE  H16X16519   1.700   4.511   8.830  0.4996 -0.0115 -0.9633
  149SAPE  H16Y16520   1.524   4.493   8.823  0.7620  0.0724  0.9220
  149SAPE  C31716521   1.609   4.686   8.876 -0.4465 -0.2163  0.6338
  149SAPE  H17X16522   1.603   4.670   8.986  0.4442 -0.7795  0.6094
  149SAPE  H17Y16523   1.518   4.738   8.840 -0.8744 -2.8818 -2.3299
  149SAPE  C31816524   1.723   4.788   8.840 -0.1807  0.1400  0.1077
  149SAPE  H18X16525   1.722   4.872   8.913 -1.2884  1.0088 -0.8758
  149SAPE  H18Y16526   1.718   4.835   8.739  0.4909  0.8620  0.4007
  149SAPE  H18Z16527   1.823   4.741   8.846  0.0744  0.0326 -3.8167
  150SAPE     N16528   1.165   5.485   6.141  0.3197  0.6363  0.4416
  150SAPE   HN116529   1.223   5.437   6.214 -2.1043 -0.4123  1.7335
  150SAPE   HN216530   1.066   5.454   6.146  0.6955 -0.4909  1.4137
  150SAPE   HN316531   1.194   5.449   6.048 -1.7339  0.7196 -0.2577
  150SAPE   C1216532   1.160   5.636   6.153 -0.2232  0.1195  0.2256
  150SAPE  H12A16533   1.221   5.688   6.076  1.3890  0.0847  1.4520
  150SAPE  H12B16534   1.201   5.664   6.252 -0.7473  0.0845  0.4536
  150SAPE   C1116535   1.009   5.679   6.119 -0.6452  0.0250 -0.1191
  150SAPE  H11A16536   0.974   5.634   6.024 -0.0037 -1.2609  0.2359
  150SAPE  H11B16537   1.007   5.790   6.114  3.8478  0.1112 -2.3079
  150SAPE     P16538   0.788   5.658   6.277 -0.3649  0.2250 -0.1060
  150SAPE   O1316539   0.722   5.736   6.173  0.0679 -0.4524  0.3158
  150SAPE   O1416540   0.732   5.525   6.307  0.5136 -0.4343  0.7978
  150SAPE   O1216541   0.938   5.627   6.234 -0.4280  0.5631 -0.4948
  150SAPE   O1116542   0.798   5.740   6.408 -0.3111 -0.4656 -0.3415
  150SAPE    C116543   0.880   5.716   6.524 -0.0676  0.0209 -0.1649
  150SAPE    HA16544   0.823   5.660   6.602 -0.2220  2.3037  1.4016
  150SAPE    HB16545   0.963   5.646   6.502  1.0065  1.2266  0.0116
  150SAPE    C216546   0.931   5.849   6.599  0.2041  0.7494  0.3291
  150SAPE    HS16547   0.976   5.816   6.696 -0.6652  2.1584  1.2276
  150SAPE   O2116548   0.828   5.938   6.624 -0.5056  0.0953 -0.4737
  150SAPE   C2116549   0.742   5.909   6.714  0.3090 -0.4347  0.6531
  150SAPE   O2216550   0.730   5.795   6.759  0.5406 -0.0998 -0.1956
  150SAPE   C2216551   0.649   6.029   6.740 -0.5090 -0.5294  0.1856
  150SAPE   H2R16552   0.718   6.113   6.759 -2.5201  1.9936 -3.1672
  150SAPE   H2S16553   0.597   6.045   6.643  1.1535 -0.3168 -0.6775
  150SAPE    C316554   1.041   5.913   6.514 -0.1512 -0.0965  0.7132
  150SAPE    HX16555   1.005   5.957   6.419 -1.9849  1.0728  1.8923
  150SAPE    HY16556   1.111   5.835   6.478  0.7910  0.8834  0.4078
  150SAPE   O3116557   1.123   6.001   6.597 -0.1666  0.3983 -0.1718
  150SAPE   C3116558   1.108   6.135   6.568 -0.2702  0.1550  0.3181
  150SAPE   O3216559   1.038   6.172   6.478  0.0880 -0.4893  0.1406
  150SAPE   C3216560   1.168   6.216   6.688  0.8161  0.7450  0.0573
  150SAPE   H2X16561   1.200   6.316   6.652 -0.5697  0.3641 -2.4018
  150SAPE   H2Y16562   1.248   6.154   6.733 -0.1817 -1.0494 -0.5673
  150SAPE   C2316563   0.541   6.010   6.850 -0.0958  0.2101 -0.7168
  150SAPE   H3R16564   0.498   5.908   6.860  2.2469 -0.7078  0.3597
  150SAPE   H3S16565   0.452   6.069   6.819  0.3494 -0.1493 -2.7366
  150SAPE   C2416566   0.597   6.060   6.983 -0.4112 -0.1047  0.4616
  150SAPE   H4R16567   0.660   6.151   6.971  0.3653 -0.7743 -0.6065
  150SAPE   H4S16568   0.656   5.982   7.035 -1.1587 -0.6877  0.4485
  150SAPE   C2516569   0.479   6.087   7.078 -1.1770 -0.2601 -0.5922
  150SAPE   H5R16570   0.390   6.140   7.040 -1.3161 -0.0992 -0.0506
  150SAPE   C2616571   0.480   6.062   7.210 -1.1773 -0.6555  0.5818
  150SAPE   H6R16572   0.392   6.092   7.268 -2.0653 -0.7342 -0.7153
  150SAPE   C2716573   0.603   6.002   7.284  0.5571  0.1146  1.2943
  150SAPE   H7R16574   0.674   5.955   7.213  0.0383  0.2663  0.6711
  150SAPE   H7S16575   0.567   5.907   7.331 -1.6486 -0.3915 -1.2731
  150SAPE   C2816576   0.658   6.093   7.390  0.2931  0.0212 -0.2260
  150SAPE   H8R16577   0.735   6.164   7.355 -1.9957  2.6608 -0.0574
  150SAPE   C2916578   0.619   6.119   7.521 -0.2334  0.3262  0.7472
  150SAPE   H9R16579   0.664   6.202   7.577 -1.2324  0.7537  0.9177
  150SAPE  C21016580   0.505   6.036   7.585  0.4745  0.1585  0.5012
  150SAPE  H10R16581   0.454   5.958   7.525 -1.5605  0.5047  1.7309
  150SAPE  H10S16582   0.420   6.106   7.593 -1.3676 -2.0915  0.9951
  150SAPE  C21116583   0.554   5.985   7.723  0.5466 -0.2452 -0.4045
  150SAPE  H11R16584   0.588   5.882   7.709  3.9167  0.6049  1.0932
  150SAPE  C21216585   0.559   6.051   7.841  0.2744  0.1552  0.4038
  150SAPE  H12R16586   0.600   5.996   7.927  0.6058 -0.8608 -0.3913
  150SAPE  C21316587   0.521   6.190   7.867  0.0650 -0.0080 -0.4305
  150SAPE  H13R16588   0.412   6.210   7.873  0.5298  1.9623  1.8534
  150SAPE  H13S16589   0.551   6.264   7.790  0.6900  0.8178  0.5971
  150SAPE  C21416590   0.589   6.238   7.997 -0.0573 -0.3479  0.0045
  150SAPE  H14R16591   0.686   6.281   7.970  0.2651 -2.3453 -2.2096
  150SAPE  C21516592   0.555   6.231   8.126  0.8165  0.3283  0.4504
  150SAPE  H15R16593   0.620   6.264   8.209  1.2631  0.7667 -0.0630
  150SAPE  C21616594   0.425   6.172   8.171 -0.8325 -0.0301 -0.5398
  150SAPE  H16R16595   0.351   6.152   8.091 -0.1184 -1.3587 -0.8750
  150SAPE  H16S16596   0.362   6.241   8.233 -0.0094 -0.9874  1.4004
  150SAPE  C21716597   0.437   6.040   8.251  0.1750  0.0905  0.0555
  150SAPE  H17R16598   0.511   6.048   8.334  0.0275 -2.0869  0.4109
  150SAPE  H17S16599   0.473   5.968   8.176  0.7601  2.4684 -2.0298
  150SAPE  C21816600   0.300   5.999   8.316 -0.0762 -0.1079 -0.8765
  150SAPE  H18R16601   0.215   6.002   8.245 -1.8752  0.9257  1.2495
  150SAPE  H18S16602   0.278   6.074   8.395 -2.3935 -2.2069  0.5293
  150SAPE  C21916603   0.294   5.857   8.372  0.0954  0.4968 -0.4261
  150SAPE  H19R16604   0.363   5.845   8.458  0.2062 -1.7032 -0.8028
  150SAPE  H19S16605   0.332   5.782   8.300  0.8780  0.5293 -0.0447
  150SAPE  C22016606   0.155   5.816   8.420 -0.4057 -0.0063  0.2386
  150SAPE  H20R16607   0.076   5.843   8.346 -0.5265 -0.4049  0.2191
  150SAPE  H20S16608   0.129   5.869   8.514 -3.4449  1.9258 -1.5823
  150SAPE  H20T16609   0.155   5.706   8.437  0.3744 -0.2898 -1.5143
  150SAPE   C3316610   1.071   6.239   6.802  0.3595 -0.7362 -0.5327
  150SAPE   H3X16611   1.060   6.156   6.875  0.2857  0.7116  1.1448
  150SAPE   H3Y16612   0.972   6.252   6.753  0.2598 -1.7802 -0.6278
  150SAPE   C3416613   1.104   6.375   6.878 -0.3185  0.1591  0.8903
  150SAPE   H4X16614   1.070   6.459   6.814 -0.5421 -1.1341 -0.7149
  150SAPE   H4Y16615   1.214   6.378   6.888 -0.1225  0.2687 -1.1678
  150SAPE   C3516616   1.044   6.393   7.014 -0.3112 -0.4277 -0.1095
  150SAPE   H5X16617   1.103   6.471   7.066  0.0890  0.7795 -2.3036
  150SAPE   H5Y16618   1.056   6.301   7.074  0.2430 -0.8039 -0.7930
  150SAPE   C3616619   0.903   6.444   6.993 -0.1743  0.0495  0.5992
  150SAPE   H6X16620   0.840   6.373   6.936  1.0542 -1.7312  1.4304
  150SAPE   H6Y16621   0.909   6.540   6.937 -2.3772 -1.1302 -1.7576
  150SAPE   C3716622   0.823   6.476   7.122  0.5741  0.8003  0.2502
  150SAPE   H7X16623   0.789   6.385   7.176  0.2766  2.4548  2.9396
  150SAPE   H7Y16624   0.739   6.545   7.101  1.7808  1.6302 -2.0655
  150SAPE   C3816625   0.911   6.513   7.242 -0.4511  0.3084 -0.0101
  150SAPE   H8X16626   0.982   6.594   7.214  1.4584 -1.2424  0.1917
  150SAPE   H8Y16627   0.981   6.432   7.272 -2.8019 -0.9769  2.1423
  150SAPE   C3916628   0.816   6.541   7.363  0.4819  0.3376  0.0656
  150SAPE   H9X16629   0.743   6.458   7.359  0.2110  0.4122  3.0003
  150SAPE   H9Y16630   0.760   6.634   7.338  0.8221  0.4123 -0.4451
  150SAPE  C31016631   0.901   6.547   7.497  0.2279 -0.5047 -0.5667
  150SAPE  H10X16632   0.952   6.646   7.495 -1.4955  0.4047 -1.0428
  150SAPE  H10Y16633   0.980   6.469   7.497  1.5796  0.7971  1.6535
  150SAPE  C31116634   0.828   6.528   7.633  0.9494 -0.5589  0.1623
  150SAPE  H11X16635   0.787   6.425   7.640 -1.3277  0.2672 -0.4007
  150SAPE  H11Y16636   0.744   6.600   7.647  2.3291  1.5777 -2.1443
  150SAPE  C31216637   0.914   6.549   7.757  0.6671  0.0421  0.0334
  150SAPE  H12X16638   0.958   6.651   7.747  0.4137  0.1552  0.0817
  150SAPE  H12Y16639   1.001   6.480   7.769  1.1977  0.9461  1.5376
  150SAPE  C31316640   0.839   6.528   7.888  0.3974 -0.3595 -0.2118
  150SAPE  H13X16641   0.792   6.429   7.868  1.2181 -1.4737  2.9992
  150SAPE  H13Y16642   0.750   6.594   7.893  0.6199  0.0954 -2.0849
  150SAPE  C31416643   0.921   6.527   8.016  0.6515 -0.6409  0.8227
  150SAPE  H14X16644   0.948   6.635   8.022 -0.4416 -0.3152 -0.0188
  150SAPE  H14Y16645   1.014   6.471   7.990 -0.1085 -2.0805  1.1487
  150SAPE  C31516646   0.851   6.465   8.134  1.2042  0.5068  0.2928
  150SAPE  H15X16647   0.801   6.373   8.100  1.2253  0.4707  0.3610
  150SAPE  H15Y16648   0.769   6.532   8.168 -0.3579 -1.3816  0.3068
  150SAPE  C31616649   0.937   6.420   8.251  0.6075  0.3859 -0.8185
  150SAPE  H16X16650   1.017   6.345   8.233  1.0673  0.4142  1.0907
  150SAPE  H16Y16651   0.861   6.370   8.315 -2.0119  0.9149 -3.3844
  150SAPE  C31716652   0.989   6.535   8.320 -0.8170 -0.3440 -0.4257
  150SAPE  H17X16653   0.898   6.597   8.331 -0.6306 -0.1090 -0.1853
  150SAPE  H17Y16654   1.071   6.583   8.261 -1.3929 -0.4537 -1.3253
  150SAPE  C31816655   1.047   6.488   8.454 -0.1623 -0.3487 -0.6146
  150SAPE  H18X16656   1.148   6.442   8.450  1.0689  2.2205 -0.1537
  150SAPE  H18Y16657   0.979   6.411   8.496  0.7087  0.6516  2.8532
  150SAPE  H18Z16658   1.041   6.564   8.535 -0.5332 -0.3011 -0.6815
  151SAPE     N16659   2.941   3.515   5.991 -0.3778  0.1119 -0.2291
  151SAPE   HN116660   3.010   3.444   5.958  1.2697 -0.3706  3.9540
  151SAPE   HN216661   2.869   3.461   6.043 -1.4844  1.4665 -0.3262
  151SAPE   HN316662   2.883   3.559   5.917 -4.2703 -0.5937  2.2583
  151SAPE   C1216663   3.015   3.609   6.082  0.5949 -0.0194  0.2163
  151SAPE  H12A16664   2.950   3.698   6.071  1.7200  0.6751 -0.8578
  151SAPE  H12B16665   3.113   3.617   6.031 -1.3633  1.5857 -3.5326
  151SAPE   C1116666   3.016   3.568   6.230 -0.2160 -0.5960  0.6051
  151SAPE  H11A16667   3.076   3.644   6.285  0.3921  1.0891 -2.2890
  151SAPE  H11B16668   3.073   3.474   6.235 -0.2500 -0.6001  0.9357
  151SAPE     P16669   2.840   3.479   6.401 -0.1378  0.2173  0.2599
  151SAPE   O1316670   2.705   3.523   6.444  0.3420 -0.7853  0.0426
  151SAPE   O1416671   2.849   3.335   6.369 -0.7618 -0.1869  0.2986
  151SAPE   O1216672   2.877   3.572   6.273 -0.3522  0.5748 -0.0056
  151SAPE   O1116673   2.953   3.526   6.503 -0.4565 -0.2292 -0.4700
  151SAPE    C116674   2.928   3.645   6.580 -0.1125 -0.7902 -0.2177
  151SAPE    HA16675   2.921   3.730   6.510 -3.1609 -1.0687 -0.3160
  151SAPE    HB16676   2.833   3.631   6.636  0.4863 -3.0100  0.3269
  151SAPE    C216677   3.046   3.664   6.675 -0.1837  0.3910 -0.2522
  151SAPE    HS16678   3.141   3.658   6.619 -0.3012  0.5961 -0.4726
  151SAPE   O2116679   3.043   3.556   6.772 -0.2566  0.2857 -0.4496
  151SAPE   C2116680   3.116   3.453   6.743 -0.5740 -0.1015 -0.4472
  151SAPE   O2216681   3.173   3.424   6.638  0.1814 -0.2146 -0.6818
  151SAPE   C2216682   3.131   3.361   6.862  0.6980  0.7832  0.2797
  151SAPE   H2R16683   3.156   3.421   6.952 -0.4191 -1.4804  2.1526
  151SAPE   H2S16684   3.040   3.303   6.887  2.0457 -0.0567  3.4856
  151SAPE    C316685   3.036   3.804   6.742  0.1280 -0.1422 -0.2334
  151SAPE    HX16686   2.935   3.823   6.783 -1.0176 -0.9259 -2.6387
  151SAPE    HY16687   3.052   3.880   6.662  1.1850 -1.8274 -1.6626
  151SAPE   O3116688   3.134   3.814   6.853  0.5445 -0.2276 -0.1766
  151SAPE   C3116689   3.244   3.878   6.825 -0.1874  0.0730  0.6031
  151SAPE   O3216690   3.273   3.916   6.708 -0.4623 -0.6619 -0.3278
  151SAPE   C3216691   3.342   3.887   6.945 -0.6696 -0.3294  0.2328
  151SAPE   H2X16692   3.341   3.988   6.992  2.6403  0.0913 -0.4716
  151SAPE   H2Y16693   3.448   3.879   6.913 -0.9786  1.0774 -1.1642
  151SAPE   C2316694   3.244   3.251   6.842 -0.3757 -0.5869 -0.0617
  151SAPE   H3R16695   3.331   3.288   6.784 -1.8872  1.6298 -0.9884
  151SAPE   H3S16696   3.200   3.166   6.786 -2.1333  0.8867 -1.0003
  151SAPE   C2416697   3.293   3.191   6.979 -1.1579 -0.2174  0.0102
  151SAPE   H4R16698   3.367   3.117   6.941 -0.3606  0.1861  0.7738
  151SAPE   H4S16699   3.198   3.147   7.017  0.5947 -2.5992  1.8406
  151SAPE   C2516700   3.357   3.297   7.070  0.9693  0.6149  0.2372
  151SAPE   H5R16701   3.429   3.367   7.025  2.2983  0.6784  2.4226
  151SAPE   C2616702   3.332   3.308   7.200 -0.3638  0.4641  0.1802
  151SAPE   H6R16703   3.388   3.384   7.257 -0.7615 -0.1690  1.4292
  151SAPE   C2716704   3.233   3.219   7.273 -0.0320  0.1236  0.0584
  151SAPE   H7R16705   3.262   3.202   7.379 -0.7985 -0.6051  0.1598
  151SAPE   H7S16706   3.216   3.122   7.223  3.0198 -1.6377  2.2611
  151SAPE   C2816707   3.096   3.284   7.272  0.1404 -0.3007 -0.5962
  151SAPE   H8R16708   3.067   3.316   7.171 -0.7130  0.6958 -0.0354
  151SAPE   C2916709   3.013   3.319   7.370  0.4532 -0.0048 -0.1190
  151SAPE   H9R16710   2.909   3.346   7.346 -0.0542 -1.7161  0.0917
  151SAPE  C21016711   3.026   3.301   7.521  0.0308 -0.0389  0.2838
  151SAPE  H10R16712   3.130   3.262   7.535  0.2557  0.2090 -0.6743
  151SAPE  H10S16713   2.953   3.224   7.554  0.1268  0.1390  0.9191
  151SAPE  C21116714   3.015   3.436   7.598  0.3396  0.5092  0.0843
  151SAPE  H11R16715   3.017   3.525   7.532 -2.0707  0.8250  0.3887
  151SAPE  C21216716   3.019   3.454   7.733 -0.4998 -0.4562 -0.6814
  151SAPE  H12R16717   2.996   3.550   7.782  0.2816 -0.8051  0.4030
  151SAPE  C21316718   3.006   3.330   7.824 -0.4108 -0.5790  0.0565
  151SAPE  H13R16719   3.024   3.237   7.766 -1.4070  0.4185 -1.8761
  151SAPE  H13S16720   2.900   3.325   7.855 -0.2231 -1.6834  0.5409
  151SAPE  C21416721   3.093   3.340   7.948 -0.0101  0.5234  0.2909
  151SAPE  H14R16722   3.198   3.311   7.928 -0.3788 -0.6582  0.0013
  151SAPE  C21516723   3.058   3.393   8.074 -0.4504 -0.7867  0.0417
  151SAPE  H15R16724   3.128   3.392   8.158  0.2407  0.0478 -0.5272
  151SAPE  C21616725   2.923   3.444   8.113 -0.2949 -1.0783 -0.0619
  151SAPE  H16R16726   2.878   3.377   8.190 -1.2995  0.1892  0.4758
  151SAPE  H16S16727   2.852   3.438   8.028 -0.7243  0.2180  0.1880
  151SAPE  C21716728   2.924   3.586   8.168  0.1227  0.6290 -0.0273
  151SAPE  H17R16729   2.951   3.644   8.078 -1.5291 -1.2752 -1.7953
  151SAPE  H17S16730   2.997   3.609   8.248  0.3284 -1.4057  0.3955
  151SAPE  C21816731   2.793   3.645   8.221 -0.0909  0.3709 -0.1439
  151SAPE  H18R16732   2.760   3.589   8.311 -1.9069  0.0709 -0.9813
  151SAPE  H18S16733   2.711   3.635   8.146  0.1720 -2.1203 -0.1354
  151SAPE  C21916734   2.795   3.790   8.268 -0.1724 -0.0319 -0.1101
  151SAPE  H19R16735   2.692   3.817   8.299 -0.5279 -1.5286  0.0340
  151SAPE  H19S16736   2.817   3.861   8.185 -2.2743  1.1265  0.2954
  151SAPE  C22016737   2.890   3.821   8.383  0.2781 -0.6749 -0.7331
  151SAPE  H20R16738   2.996   3.801   8.355 -0.1196 -0.6461 -2.2814
  151SAPE  H20S16739   2.876   3.926   8.416 -1.4419 -1.7105  2.0084
  151SAPE  H20T16740   2.858   3.764   8.473 -0.3609  0.6683 -0.0931
  151SAPE   C3316741   3.288   3.796   7.060 -0.4958 -0.2247 -0.0295
  151SAPE   H3X16742   3.252   3.701   7.015 -2.2953 -0.0018  0.8849
  151SAPE   H3Y16743   3.203   3.850   7.107  1.8233  1.8811  1.9158
  151SAPE   C3416744   3.397   3.752   7.159  0.5728  0.5324 -0.1817
  151SAPE   H4X16745   3.447   3.843   7.197 -2.1977  3.2556 -2.6885
  151SAPE   H4Y16746   3.471   3.694   7.100 -0.8720  0.1927 -1.7159
  151SAPE   C3516747   3.346   3.673   7.279  0.4849 -0.4154  0.2016
  151SAPE   H5X16748   3.411   3.585   7.298  0.8494 -0.5860 -1.6779
  151SAPE   H5Y16749   3.254   3.623   7.241  2.0819 -1.2663 -2.7959
  151SAPE   C3616750   3.347   3.764   7.400  0.3230  0.2243  0.4359
  151SAPE   H6X16751   3.288   3.856   7.375 -1.7523 -1.1968  0.0034
  151SAPE   H6Y16752   3.453   3.792   7.416  1.0102 -2.1045 -0.0069
  151SAPE   C3716753   3.292   3.694   7.527  0.5391  0.2504 -0.7143
  151SAPE   H7X16754   3.322   3.587   7.532 -0.9112 -0.1652 -0.8327
  151SAPE   H7Y16755   3.182   3.685   7.520  0.2072  2.1010  1.5144
  151SAPE   C3816756   3.339   3.757   7.661  0.1922 -0.3464  0.4551
  151SAPE   H8X16757   3.275   3.847   7.676 -0.2248 -0.4100 -0.8621
  151SAPE   H8Y16758   3.439   3.801   7.643  0.2512 -1.0980 -1.2229
  151SAPE   C3916759   3.357   3.665   7.781  0.0302  0.2413 -0.5588
  151SAPE   H9X16760   3.438   3.595   7.752 -0.4542 -0.7189  0.3721
  151SAPE   H9Y16761   3.266   3.612   7.816  1.9928 -1.1173  2.6934
  151SAPE  C31016762   3.418   3.739   7.898  0.8307  0.5433 -0.7141
  151SAPE  H10X16763   3.356   3.828   7.922  3.5547  1.5634  2.9061
  151SAPE  H10Y16764   3.521   3.765   7.864  2.5907 -1.9414  2.4402
  151SAPE  C31116765   3.419   3.647   8.023 -0.0921 -0.1668  0.0630
  151SAPE  H11X16766   3.494   3.568   8.001 -0.2600  0.0596 -1.3643
  151SAPE  H11Y16767   3.322   3.594   8.028 -1.0574  1.3569 -1.8300
  151SAPE  C31216768   3.445   3.719   8.158 -0.5511 -0.0968  0.1069
  151SAPE  H12X16769   3.501   3.813   8.139  2.0620 -1.9177 -1.5431
  151SAPE  H12Y16770   3.522   3.652   8.203 -0.9878 -0.5807  0.1451
  151SAPE  C31316771   3.327   3.738   8.245  0.1739 -0.2124 -0.4768
  151SAPE  H13X16772   3.271   3.643   8.261 -0.7027  0.3811 -0.0191
  151SAPE  H13Y16773   3.258   3.800   8.185  1.3764  0.4652 -1.1789
  151SAPE  C31416774   3.353   3.818   8.374 -0.2007 -0.2620  0.0555
  151SAPE  H14X16775   3.257   3.841   8.425  0.1167 -0.6149  0.8190
  151SAPE  H14Y16776   3.417   3.906   8.349 -0.7128  0.3113  0.7369
  151SAPE  C31516777   3.423   3.724   8.471  0.3705 -0.2433 -0.2363
  151SAPE  H15X16778   3.499   3.668   8.412  3.0312  1.2592  1.6385
  151SAPE  H15Y16779   3.354   3.651   8.519 -0.0650  0.4624  0.2027
  151SAPE  C31616780   3.505   3.791   8.583  0.3726  0.0721  0.0552
  151SAPE  H16X16781   3.436   3.861   8.635  0.3362 -0.4850  0.7615
  151SAPE  H16Y16782   3.579   3.852   8.527 -1.1449 -1.4215 -3.7367
  151SAPE  C31716783   3.569   3.689   8.676  0.7100  0.0584 -0.5724
  151SAPE  H17X16784   3.661   3.654   8.624  0.8741 -2.7062  1.4601
  151SAPE  H17Y16785   3.505   3.599   8.688  1.4603 -0.7121 -2.2814
  151SAPE  C31816786   3.612   3.728   8.817 -0.1132  0.5690  0.5834
  151SAPE  H18X16787   3.518   3.741   8.874 -1.0557  0.1174 -0.8212
  151SAPE  H18Y16788   3.670   3.822   8.830 -1.0877  0.9519  2.3484
  151SAPE  H18Z16789   3.662   3.643   8.867 -0.3088  1.5597  2.4883
  152SAPE     N16790   0.648   6.392   5.881 -0.0751 -0.0936  0.0024
  152SAPE   HN116791   0.546   6.405   5.873  0.4528  3.6790 -1.9101
  152SAPE   HN216792   0.681   6.491   5.880  0.2264 -0.1979 -0.8097
  152SAPE   HN316793   0.674   6.351   5.788 -2.2531 -0.8921 -0.2648
  152SAPE   C1216794   0.696   6.311   5.998 -0.1573 -0.3594  0.3394
  152SAPE  H12A16795   0.807   6.315   6.002 -0.1759  2.1481 -0.6536
  152SAPE  H12B16796   0.679   6.204   5.975 -3.1226  0.0737  0.3789
  152SAPE   C1116797   0.638   6.359   6.129  0.0422 -0.0559  0.7080
  152SAPE  H11A16798   0.666   6.298   6.217  2.6683 -0.9827 -0.6919
  152SAPE  H11B16799   0.528   6.365   6.124  0.1035 -0.3152 -1.6339
  152SAPE     P16800   0.776   6.530   6.270 -0.1045 -0.1707  0.0067
  152SAPE   O1316801   0.879   6.425   6.279  0.5209  0.5554 -0.0099
  152SAPE   O1416802   0.817   6.672   6.253  0.5493  0.8282  0.4290
  152SAPE   O1216803   0.673   6.491   6.156  0.6040  0.1596 -0.3244
  152SAPE   O1116804   0.686   6.525   6.400 -0.6118 -0.6637  0.0907
  152SAPE    C116805   0.554   6.578   6.396  0.5812 -0.4433  0.2441
  152SAPE    HA16806   0.554   6.686   6.369 -1.4846 -0.5492 -0.2832
  152SAPE    HB16807   0.494   6.527   6.317 -1.8099 -0.2694  1.8908
  152SAPE    C216808   0.493   6.580   6.537 -0.0730 -0.5519 -0.2903
  152SAPE    HS16809   0.401   6.639   6.523  1.0518  1.3477  0.1298
  152SAPE   O2116810   0.580   6.644   6.629 -0.0973  0.5103  0.0368
  152SAPE   C2116811   0.562   6.774   6.632 -1.1245 -0.5321 -0.4151
  152SAPE   O2216812   0.508   6.850   6.550 -0.2585  0.5364 -0.3078
  152SAPE   C2216813   0.637   6.828   6.759 -0.3701 -0.3575 -0.0270
  152SAPE   H2R16814   0.716   6.756   6.790 -1.4966 -1.2932  0.7109
  152SAPE   H2S16815   0.685   6.926   6.738  0.9185 -0.5402  2.0049
  152SAPE    C316816   0.457   6.433   6.589 -0.3467 -0.4989 -0.0188
  152SAPE    HX16817   0.536   6.360   6.560  0.0802 -0.5220  1.1851
  152SAPE    HY16818   0.373   6.397   6.527  1.2509  0.6139 -2.9582
  152SAPE   O3116819   0.428   6.430   6.723 -0.5679  0.3952  0.3854
  152SAPE   C3116820   0.532   6.403   6.802 -0.1980  0.7264 -0.3377
  152SAPE   O3216821   0.646   6.370   6.768  0.0411 -0.3363  0.6161
  152SAPE   C3216822   0.489   6.425   6.954  0.5704  0.1966  0.1497
  152SAPE   H2X16823   0.525   6.528   6.973  2.8005 -0.8302  1.6353
  152SAPE   H2Y16824   0.556   6.347   6.995 -0.9710 -2.3535 -1.9891
  152SAPE   C2316825   0.540   6.848   6.878 -0.1598 -0.3670  0.5110
  152SAPE   H3R16826   0.511   6.748   6.917  1.6004 -1.2625 -0.4778
  152SAPE   H3S16827   0.449   6.900   6.840  2.5694  2.9605 -1.7643
  152SAPE   C2416828   0.596   6.925   6.999  0.3229 -0.5190 -0.8615
  152SAPE   H4R16829   0.694   6.885   7.033  2.0298  3.7353 -0.5092
  152SAPE   H4S16830   0.525   6.931   7.084 -0.0384  1.9568 -1.3018
  152SAPE   C2516831   0.605   7.070   6.954  0.3377  0.3809  0.1100
  152SAPE   H5R16832   0.572   7.090   6.851  0.6646 -0.2291 -0.1161
  152SAPE   C2616833   0.667   7.163   7.022  0.1491  0.2617  0.1705
  152SAPE   H6R16834   0.682   7.262   6.976 -0.8099  0.5617  0.4960
  152SAPE   C2716835   0.723   7.145   7.163 -0.0811 -0.2795  0.5021
  152SAPE   H7R16836   0.805   7.070   7.169 -1.8311 -2.3205 -0.0828
  152SAPE   H7S16837   0.643   7.092   7.220 -0.3278 -0.1366  0.2867
  152SAPE   C2816838   0.744   7.280   7.232 -0.5071 -0.0061 -0.5733
  152SAPE   H8R16839   0.768   7.358   7.159  2.5255 -1.0154 -0.7201
  152SAPE   C2916840   0.760   7.307   7.365  0.1852  0.0705  0.1679
  152SAPE   H9R16841   0.760   7.411   7.402 -2.7075 -0.0208  0.5267
  152SAPE  C21016842   0.750   7.196   7.470  0.0263  0.0439  0.5959
  152SAPE  H10R16843   0.838   7.130   7.458  0.2054  0.0451  1.8747
  152SAPE  H10S16844   0.667   7.129   7.437  0.3441  0.6143 -1.4332
  152SAPE  C21116845   0.745   7.249   7.608 -0.0430  0.3562 -1.1520
  152SAPE  H11R16846   0.826   7.319   7.633  1.1690 -1.4504  0.1316
  152SAPE  C21216847   0.671   7.195   7.708 -0.3218 -0.3115 -0.4177
  152SAPE  H12R16848   0.675   7.232   7.812 -1.0247 -0.3291 -0.3782
  152SAPE  C21316849   0.581   7.071   7.695 -0.0807  0.2184  0.1895
  152SAPE  H13R16850   0.536   7.064   7.594  1.3303  1.5970 -0.5616
  152SAPE  H13S16851   0.488   7.083   7.755 -1.8720  1.7926 -2.7520
  152SAPE  C21416852   0.665   6.946   7.724 -0.0096 -0.4756  0.3239
  152SAPE  H14R16853   0.719   6.902   7.639 -0.9640  1.0263 -1.1001
  152SAPE  C21516854   0.683   6.899   7.850 -0.2616 -0.9135  0.3820
  152SAPE  H15R16855   0.753   6.813   7.858  0.0216 -0.6796  0.4225
  152SAPE  C21616856   0.615   6.949   7.979 -0.5914  0.0238  0.4346
  152SAPE  H16R16857   0.505   6.937   7.965 -0.4758 -1.4196  0.6693
  152SAPE  H16S16858   0.627   7.057   7.999 -0.8302  0.4535 -1.5788
  152SAPE  C21716859   0.651   6.856   8.099  0.4947 -0.2776 -0.4845
  152SAPE  H17R16860   0.762   6.863   8.102  0.5101 -0.9451  0.9400
  152SAPE  H17S16861   0.616   6.751   8.083  0.6001 -0.2956 -0.5920
  152SAPE  C21816862   0.608   6.903   8.237 -0.7494  0.2038 -0.1291
  152SAPE  H18R16863   0.505   6.871   8.263 -0.1272 -1.7961 -0.0126
  152SAPE  H18S16864   0.610   7.014   8.244  0.3756  0.1367  0.7526
  152SAPE  C21916865   0.691   6.847   8.348 -0.1562 -0.3242 -0.0629
  152SAPE  H19R16866   0.800   6.865   8.342 -0.9518  4.0716 -4.4696
  152SAPE  H19S16867   0.683   6.736   8.352  0.7516 -0.3950 -0.0407
  152SAPE  C22016868   0.640   6.892   8.487  0.7181 -0.5595  0.4974
  152SAPE  H20R16869   0.692   6.842   8.571  0.0102  1.6874  2.3259
  152SAPE  H20S16870   0.533   6.869   8.509 -0.0296  1.8559 -0.3898
  152SAPE  H20T16871   0.665   6.998   8.511 -0.2116  0.1583 -1.5666
  152SAPE   C3316872   0.335   6.423   6.976  0.0142  0.2140  0.1163
  152SAPE   H3X16873   0.294   6.330   6.930  2.6027 -1.1048  0.3807
  152SAPE   H3Y16874   0.284   6.503   6.919 -0.1724  0.3872  0.5266
  152SAPE   C3416875   0.300   6.438   7.128 -1.2954  0.5861  0.0404
  152SAPE   H4X16876   0.363   6.367   7.185 -0.2897  2.9178  1.8908
  152SAPE   H4Y16877   0.193   6.408   7.138 -1.4142  0.9643 -0.0903
  152SAPE   C3516878   0.320   6.580   7.177 -0.1374  0.2763 -0.2315
  152SAPE   H5X16879   0.266   6.661   7.123 -2.0498 -1.1357 -0.4816
  152SAPE   H5Y16880   0.424   6.608   7.150 -0.2634  0.8423 -0.1400
  152SAPE   C3616881   0.290   6.591   7.331 -0.3275  0.4033  0.1133
  152SAPE   H6X16882   0.194   6.544   7.360 -0.2040 -0.1245 -0.3159
  152SAPE   H6Y16883   0.281   6.700   7.349 -0.7456 -0.1288  3.2819
  152SAPE   C3716884   0.408   6.538   7.418 -0.0365 -0.7221  0.4079
  152SAPE   H7X16885   0.495   6.603   7.394  0.5760 -1.5717  0.3019
  152SAPE   H7Y16886   0.431   6.433   7.392  0.4506 -1.2879  2.9865
  152SAPE   C3816887   0.380   6.542   7.566 -0.6651 -0.0942 -0.3156
  152SAPE   H8X16888   0.474   6.511   7.617  0.2827  0.8401 -1.4865
  152SAPE   H8Y16889   0.300   6.472   7.597 -1.3601  0.4126 -0.9463
  152SAPE   C3916890   0.336   6.684   7.622  0.1665 -0.3261  0.3044
  152SAPE   H9X16891   0.233   6.702   7.584 -0.0430 -0.1554  0.9389
  152SAPE   H9Y16892   0.411   6.756   7.581  1.0575 -2.1714 -1.3820
  152SAPE  C31016893   0.368   6.694   7.769 -0.6649 -0.3515 -0.0814
  152SAPE  H10X16894   0.349   6.795   7.811 -2.2315 -0.8068  0.3346
  152SAPE  H10Y16895   0.478   6.680   7.774 -0.8649 -1.4140  1.6992
  152SAPE  C31116896   0.293   6.591   7.857 -0.2736 -0.2196 -0.1832
  152SAPE  H11X16897   0.340   6.492   7.838  0.9759  0.4630 -0.6827
  152SAPE  H11Y16898   0.183   6.580   7.841 -0.1472 -0.6923 -0.7782
  152SAPE  C31216899   0.321   6.620   8.006 -1.1687  0.7281 -0.9050
  152SAPE  H12X16900   0.268   6.716   8.025  0.8751  1.8247 -0.5689
  152SAPE  H12Y16901   0.426   6.643   8.032 -0.6617 -1.2302 -1.2077
  152SAPE  C31316902   0.264   6.510   8.092  0.4389  0.3105 -0.6064
  152SAPE  H13X16903   0.301   6.413   8.052  0.9965  0.5798 -0.7468
  152SAPE  H13Y16904   0.153   6.502   8.090  0.3359  1.4607  0.2716
  152SAPE  C31416905   0.310   6.517   8.237 -1.0065  0.0528 -0.5031
  152SAPE  H14X16906   0.420   6.512   8.246 -1.2183 -1.7651  1.3132
  152SAPE  H14Y16907   0.268   6.426   8.285 -2.1266 -0.2225 -1.9486
  152SAPE  C31516908   0.244   6.620   8.331  0.0056  0.3871 -0.5416
  152SAPE  H15X16909   0.136   6.603   8.348  0.5921 -0.8458  2.0207
  152SAPE  H15Y16910   0.232   6.717   8.277 -0.2959 -0.2365 -1.6219
  152SAPE  C31616911   0.318   6.644   8.468 -0.1979  0.0770  0.5068
  152SAPE  H16X16912   0.408   6.701   8.434 -0.5522  1.6146  2.0614
  152SAPE  H16Y16913   0.359   6.554   8.518  1.4019  0.5326  0.0489
  152SAPE  C31716914   0.245   6.736   8.558  0.0309 -0.4333 -0.1655
  152SAPE  H17X16915   0.143   6.701   8.585 -0.0884  0.8693  1.0526
  152SAPE  H17Y16916   0.235   6.831   8.502  3.2222  0.4778  0.7239
  152SAPE  C31816917   0.316   6.772   8.690  0.4761  0.0506  0.1224
  152SAPE  H18X16918   0.258   6.848   8.747 -2.5025 -2.7629  1.0185
  152SAPE  H18Y16919   0.413   6.818   8.664  0.9693 -0.0931  1.6768
  152SAPE  H18Z16920   0.330   6.683   8.756 -0.3751  0.5930  1.0542
  153SAPE     N16921   4.572   6.265   6.001  0.3325 -0.2181  0.1375
  153SAPE   HN116922   4.562   6.362   5.963  3.3497 -1.7032 -4.8822
  153SAPE   HN216923   4.608   6.206   5.924 -2.1020 -0.8817 -0.5302
  153SAPE   HN316924   4.477   6.232   6.026  1.1495 -2.2105  0.6876
  153SAPE   C1216925   4.656   6.255   6.122 -0.1557 -0.0899  0.8811
  153SAPE  H12A16926   4.763   6.256   6.094  0.0284  0.3280  1.5880
  153SAPE  H12B16927   4.649   6.153   6.167  0.3203 -0.2886  0.5103
  153SAPE   C1116928   4.606   6.350   6.229 -0.2403 -0.4333  0.2645
  153SAPE  H11A16929   4.654   6.445   6.198 -0.2022 -0.0499  1.5042
  153SAPE  H11B16930   4.661   6.328   6.323  1.9731 -0.5849 -1.0227
  153SAPE     P16931   4.391   6.291   6.370 -0.0857  0.4813 -0.1253
  153SAPE   O1316932   4.246   6.313   6.363  0.3554  0.4593 -0.3631
  153SAPE   O1416933   4.437   6.151   6.367 -0.0935 -0.2628  0.3678
  153SAPE   O1216934   4.468   6.363   6.247  0.0861 -0.3594 -0.0138
  153SAPE   O1116935   4.454   6.371   6.491  0.0976 -0.1869 -0.4689
  153SAPE    C116936   4.441   6.515   6.499  0.3929  0.0462  0.6598
  153SAPE    HA16937   4.534   6.560   6.457  1.2532 -1.8696  0.4794
  153SAPE    HB16938   4.365   6.556   6.429  1.6120 -1.8586 -1.8608
  153SAPE    C216939   4.399   6.557   6.637 -0.0707  0.1962 -0.5605
  153SAPE    HS16940   4.365   6.663   6.636  0.1885  0.3436  1.8538
  153SAPE   O2116941   4.516   6.547   6.720 -1.1211 -0.3804 -0.3897
  153SAPE   C2116942   4.625   6.617   6.712 -0.4668  0.1800  0.2255
  153SAPE   O2216943   4.652   6.711   6.637  0.5345 -0.1137  0.0961
  153SAPE   C2216944   4.730   6.567   6.825  0.0332  0.1401 -0.4791
  153SAPE   H2R16945   4.771   6.472   6.783  0.2448  0.1264 -0.2431
  153SAPE   H2S16946   4.807   6.645   6.810 -0.4220  0.3472 -1.7910
  153SAPE    C316947   4.270   6.478   6.680  0.1702  0.7370  0.4378
  153SAPE    HX16948   4.297   6.370   6.683 -1.0644  0.4059 -0.2201
  153SAPE    HY16949   4.196   6.488   6.598 -0.9545 -0.8961  1.2270
  153SAPE   O3116950   4.228   6.525   6.809 -0.0921  0.6047  0.6934
  153SAPE   C3116951   4.103   6.562   6.818 -0.9369  0.9354  0.3741
  153SAPE   O3216952   4.019   6.548   6.729 -0.3676  0.6953 -0.4066
  153SAPE   C3216953   4.079   6.616   6.955 -0.6162 -0.4091 -0.0084
  153SAPE   H2X16954   4.164   6.680   6.990  1.2350 -2.2657 -0.9655
  153SAPE   H2Y16955   4.090   6.529   7.023  2.3544 -0.3814 -0.3656
  153SAPE   C2316956   4.688   6.573   6.975 -0.5944 -0.0104  0.6848
  153SAPE   H3R16957   4.778   6.540   7.032  1.1527  0.3310 -1.7987
  153SAPE   H3S16958   4.600   6.509   6.998 -0.1624  0.3676  3.5082
  153SAPE   C2416959   4.645   6.714   7.022 -0.0857 -0.3866 -0.4630
  153SAPE   H4R16960   4.559   6.755   6.965 -1.0996 -1.6111  0.1800
  153SAPE   H4S16961   4.725   6.787   6.995 -1.6454  0.0674 -4.2796
  153SAPE   C2516962   4.617   6.711   7.172 -0.1586 -0.1411  0.1014
  153SAPE   H5R16963   4.688   6.659   7.237  0.2256 -1.5750 -1.4286
  153SAPE   C2616964   4.502   6.754   7.231 -0.2228 -0.0940 -0.4974
  153SAPE   H6R16965   4.503   6.768   7.340  0.9518 -0.9951 -0.3837
  153SAPE   C2716966   4.381   6.816   7.156  0.2068 -0.3821 -0.0330
  153SAPE   H7R16967   4.341   6.749   7.077  1.9728 -2.1232  0.4860
  153SAPE   H7S16968   4.421   6.905   7.103 -3.2782  0.6285 -1.0967
  153SAPE   C2816969   4.268   6.839   7.257 -0.3168 -0.2743  0.2487
  153SAPE   H8R16970   4.199   6.755   7.273  0.8769 -1.1383  0.9552
  153SAPE   C2916971   4.246   6.963   7.307 -0.3064  0.2343  0.0600
  153SAPE   H9R16972   4.169   6.987   7.382  1.7309  0.5235  2.1062
  153SAPE  C21016973   4.333   7.084   7.292  0.2436  0.6420 -0.0866
  153SAPE  H10R16974   4.353   7.112   7.186  2.3827  3.3935  0.9789
  153SAPE  H10S16975   4.432   7.059   7.335  0.5687  0.0031 -1.1740
  153SAPE  C21116976   4.276   7.202   7.372 -0.3157 -0.5410 -1.2527
  153SAPE  H11R16977   4.249   7.298   7.326 -0.0442  0.1521  0.0003
  153SAPE  C21216978   4.272   7.215   7.502  0.3043 -0.7190 -0.6582
  153SAPE  H12R16979   4.236   7.313   7.536 -1.5827 -1.2177 -1.1577
  153SAPE  C21316980   4.322   7.113   7.604 -0.3938 -0.8089  0.7978
  153SAPE  H13R16981   4.403   7.161   7.664 -0.1414 -0.0118 -0.1701
  153SAPE  H13S16982   4.387   7.042   7.547  1.3115 -0.8849  2.7766
  153SAPE  C21416983   4.209   7.040   7.679  0.3147 -0.0880 -0.0711
  153SAPE  H14R16984   4.142   7.113   7.725  0.7048  1.2305 -1.5718
  153SAPE  C21516985   4.188   6.910   7.705 -0.0734 -0.8048  0.4213
  153SAPE  H15R16986   4.111   6.875   7.775 -1.8578  0.3270 -0.9495
  153SAPE  C21616987   4.269   6.796   7.656 -0.3327 -0.4988  0.0883
  153SAPE  H16R16988   4.296   6.802   7.548  0.4065 -0.7769  0.2534
  153SAPE  H16S16989   4.204   6.706   7.650 -0.1581 -0.6250  0.0738
  153SAPE  C21716990   4.395   6.766   7.741 -0.1574 -0.6363 -0.3736
  153SAPE  H17R16991   4.366   6.734   7.843  0.7867 -0.9558 -0.2098
  153SAPE  H17S16992   4.443   6.866   7.747  0.1234 -0.7887 -0.0939
  153SAPE  C21816993   4.496   6.670   7.690  0.0681  0.1082  0.9012
  153SAPE  H18R16994   4.567   6.654   7.774  1.7455 -1.2884 -0.7327
  153SAPE  H18S16995   4.553   6.718   7.607  0.9041 -0.3620  1.1908
  153SAPE  C21916996   4.439   6.527   7.656 -0.3081  0.1148 -0.2784
  153SAPE  H19R16997   4.361   6.526   7.578  1.0814 -2.0354 -1.6973
  153SAPE  H19S16998   4.384   6.475   7.738  0.8880 -0.9442 -0.1202
  153SAPE  C22016999   4.556   6.442   7.611 -0.5093 -0.0067 -0.1642
  153SAPE  H20R17000   4.616   6.499   7.537 -0.6838 -0.6047 -0.7692
  153SAPE  H20S17001   4.519   6.350   7.562  0.1794  0.7048 -2.0840
  153SAPE  H20T17002   4.623   6.423   7.697  0.8562 -0.4726 -1.3209
  153SAPE   C3317003   3.943   6.690   6.977  0.5912  0.3991 -0.0313
  153SAPE   H3X17004   3.858   6.629   6.939  1.1851  1.0018 -2.4056
  153SAPE   H3Y17005   3.941   6.784   6.918  0.1235  0.5076  0.1560
  153SAPE   C3417006   3.924   6.727   7.126  0.1956 -0.2125  0.5882
  153SAPE   H4X17007   3.827   6.778   7.149  1.1975  2.3221 -0.5317
  153SAPE   H4Y17008   3.997   6.806   7.155 -0.3573  0.0313  1.3258
  153SAPE   C3517009   3.951   6.616   7.227 -0.4055  0.7223  0.1695
  153SAPE   H5X17010   4.060   6.599   7.239 -0.5171 -0.4497 -0.3850
  153SAPE   H5Y17011   3.903   6.518   7.207 -0.0533  0.7315 -0.7233
  153SAPE   C3617012   3.892   6.656   7.364  0.2344 -0.1205 -0.1404
  153SAPE   H6X17013   3.781   6.665   7.358  0.2553  0.8895  0.8906
  153SAPE   H6Y17014   3.923   6.756   7.399  1.3600 -0.3522 -0.4398
  153SAPE   C3717015   3.934   6.570   7.491  0.7229  0.3861  1.0228
  153SAPE   H7X17016   4.045   6.574   7.497  0.7974  1.5627 -0.8308
  153SAPE   H7Y17017   3.906   6.465   7.466  1.9701  0.0789  0.8621
  153SAPE   C3817018   3.875   6.623   7.619 -0.0064 -0.5579  0.0893
  153SAPE   H8X17019   3.764   6.622   7.620 -0.0360  0.4522 -0.7918
  153SAPE   H8Y17020   3.912   6.728   7.625 -1.4235 -0.1654  2.7790
  153SAPE   C3917021   3.938   6.543   7.745 -0.4509 -0.6171  0.3211
  153SAPE   H9X17022   4.045   6.522   7.725 -0.7097 -0.3801 -1.3487
  153SAPE   H9Y17023   3.869   6.455   7.753  0.0182 -1.1750 -1.4962
  153SAPE  C31017024   3.922   6.636   7.871  0.4734 -0.1410  0.4738
  153SAPE  H10X17025   3.813   6.657   7.885  0.6245 -0.5643  2.3608
  153SAPE  H10Y17026   3.973   6.735   7.864 -2.7055  1.5415 -0.1464
  153SAPE  C31117027   3.989   6.566   7.985  0.4896 -0.8702  0.2580
  153SAPE  H11X17028   3.956   6.465   8.017 -1.8618 -0.9760 -2.2911
  153SAPE  H11Y17029   3.969   6.629   8.074 -1.5646  1.6738 -1.8910
  153SAPE  C31217030   4.140   6.556   7.966  0.1217 -0.6479 -0.0165
  153SAPE  H12X17031   4.183   6.647   7.921  3.2572 -2.9900 -1.9365
  153SAPE  H12Y17032   4.165   6.474   7.896  1.7506  0.0235 -0.2395
  153SAPE  C31317033   4.208   6.514   8.101 -0.1534  0.3042 -0.4028
  153SAPE  H13X17034   4.148   6.429   8.139  2.4410 -2.1304 -1.5598
  153SAPE  H13Y17035   4.199   6.600   8.170  1.8192  1.1135 -1.1334
  153SAPE  C31417036   4.355   6.469   8.072 -0.1866  0.2374 -0.2516
  153SAPE  H14X17037   4.397   6.547   8.005  3.6536 -1.4886 -0.0116
  153SAPE  H14Y17038   4.340   6.373   8.017  0.3245  0.0101 -0.0005
  153SAPE  C31517039   4.439   6.425   8.189  0.2501  0.4075  0.5263
  153SAPE  H15X17040   4.481   6.522   8.225  1.6108  0.4543 -1.1438
  153SAPE  H15Y17041   4.528   6.365   8.161 -0.0954  0.4551 -0.6966
  153SAPE  C31617042   4.363   6.371   8.313 -0.4596 -0.1712 -0.4646
  153SAPE  H16X17043   4.285   6.444   8.344  0.9133  0.5856  1.3133
  153SAPE  H16Y17044   4.447   6.377   8.385 -1.6762 -1.3939  1.0867
  153SAPE  C31717045   4.297   6.233   8.295 -0.6001  0.0970 -0.1336
  153SAPE  H17X17046   4.375   6.159   8.265  0.0527  0.8186 -0.2440
  153SAPE  H17Y17047   4.220   6.248   8.216  0.4151 -0.7041 -1.2951
  153SAPE  C31817048   4.209   6.172   8.412 -0.5622  0.3298 -0.1168
  153SAPE  H18X17049   4.268   6.144   8.502  1.1982 -0.5339 -1.5043
  153SAPE  H18Y17050   4.178   6.069   8.385 -0.0143 -0.8274  3.3280
  153SAPE  H18Z17051   4.115   6.230   8.421 -1.1984 -0.4644 -1.5118
  154SAPE     N17052   2.290   6.725   6.322  0.2368 -0.7149 -0.3461
  154SAPE   HN117053   2.254   6.794   6.391 -0.0829 -2.0398  0.8294
  154SAPE   HN217054   2.371   6.774   6.280  0.4651 -0.3952  0.4524
  154SAPE   HN317055   2.213   6.714   6.253 -0.1503  0.5575 -0.1270
  154SAPE   C1217056   2.348   6.598   6.378 -0.0298  0.0416  0.1181
  154SAPE  H12A17057   2.291   6.574   6.470  1.5925 -0.0961  1.0993
  154SAPE  H12B17058   2.455   6.614   6.404 -0.1754 -0.4040  1.0185
  154SAPE   C1117059   2.319   6.468   6.293  0.1994 -0.3355 -0.5553
  154SAPE  H11A17060   2.339   6.392   6.372 -2.6217 -2.7739 -2.0996
  154SAPE  H11B17061   2.384   6.448   6.205  1.1329 -0.9522  0.2626
  154SAPE     P17062   2.125   6.312   6.205 -0.0630  0.0802 -0.5710
  154SAPE   O1317063   2.175   6.275   6.069 -0.3573  0.2401  0.1513
  154SAPE   O1417064   2.141   6.208   6.306 -0.0833 -0.2660 -0.3506
  154SAPE   O1217065   2.182   6.457   6.260  0.1808 -0.5964 -0.3347
  154SAPE   O1117066   1.963   6.343   6.182 -0.2178  0.7783 -0.0652
  154SAPE    C117067   1.901   6.461   6.227  0.0720  0.6262 -0.7186
  154SAPE    HA17068   1.965   6.551   6.237  1.3394 -0.2002 -1.3266
  154SAPE    HB17069   1.821   6.490   6.155  0.9074  0.9510 -1.5275
  154SAPE    C217070   1.847   6.431   6.370 -0.4519 -0.3443  0.3414
  154SAPE    HS17071   1.783   6.519   6.391 -1.3976 -0.7931 -0.5541
  154SAPE   O2117072   1.959   6.417   6.459 -0.0954  0.5646 -0.5784
  154SAPE   C2117073   1.937   6.435   6.587 -0.7369  0.3161  1.3224
  154SAPE   O2217074   1.831   6.458   6.645 -0.0150 -0.5715  0.0931
  154SAPE   C2217075   2.076   6.421   6.649  0.5746  0.5071  0.7782
  154SAPE   H2R17076   2.078   6.330   6.712  0.6260 -0.0397 -0.0204
  154SAPE   H2S17077   2.157   6.411   6.574  2.4234  0.6965  2.6695
  154SAPE    C317078   1.758   6.311   6.365 -0.1923  0.1836  0.2907
  154SAPE    HX17079   1.817   6.226   6.325  1.4567  1.6769 -0.5152
  154SAPE    HY17080   1.681   6.327   6.286  0.6847  2.6285 -0.1288
  154SAPE   O3117081   1.700   6.263   6.490  0.5531 -0.0949 -0.0954
  154SAPE   C3117082   1.602   6.336   6.531  0.2823 -0.8093 -0.1045
  154SAPE   O3217083   1.555   6.436   6.481  0.2529 -0.0212 -0.1032
  154SAPE   C3217084   1.543   6.257   6.651 -0.6228 -0.1176 -0.2706
  154SAPE   H2X17085   1.556   6.148   6.639 -2.9537 -0.5775  1.0728
  154SAPE   H2Y17086   1.434   6.273   6.638 -0.6485  0.5345  0.6962
  154SAPE   C2317087   2.109   6.533   6.745 -0.1696 -0.2270  1.1414
  154SAPE   H3R17088   2.036   6.549   6.827 -1.3400  1.4640 -0.1801
  154SAPE   H3S17089   2.111   6.632   6.695 -3.4526 -0.6457  0.0266
  154SAPE   C2417090   2.235   6.520   6.828  0.5023  0.3282 -0.2851
  154SAPE   H4R17091   2.217   6.427   6.887 -0.3220  0.4002 -0.4170
  154SAPE   H4S17092   2.242   6.611   6.891 -0.5963  0.2654 -0.0552
  154SAPE   C2517093   2.359   6.505   6.745  0.2408  0.4946 -0.0863
  154SAPE   H5R17094   2.357   6.412   6.686 -0.2022  0.9491 -0.8070
  154SAPE   C2617095   2.467   6.585   6.732 -0.1661 -0.3234  0.0944
  154SAPE   H6R17096   2.527   6.554   6.646 -1.1902 -1.4163 -0.2286
  154SAPE   C2717097   2.499   6.719   6.794 -0.1986  0.1064 -0.7505
  154SAPE   H7R17098   2.417   6.737   6.867 -1.7373 -2.2708 -1.8422
  154SAPE   H7S17099   2.496   6.801   6.718  1.2454 -0.2309 -1.1813
  154SAPE   C2817100   2.634   6.731   6.862  0.1434  1.0091 -0.0576
  154SAPE   H8R17101   2.716   6.733   6.788 -0.7706 -0.8423 -1.1735
  154SAPE   C2917102   2.658   6.718   6.993 -0.1355  0.3090  0.0993
  154SAPE   H9R17103   2.762   6.705   7.027  0.2709  0.9576 -0.8668
  154SAPE  C21017104   2.555   6.689   7.100 -0.1149  0.0826  0.2307
  154SAPE  H10R17105   2.462   6.740   7.068  0.2456  0.1154 -0.8012
  154SAPE  H10S17106   2.587   6.731   7.198 -2.4116  1.7154  0.3220
  154SAPE  C21117107   2.525   6.541   7.117 -0.0033  0.7209 -0.9847
  154SAPE  H11R17108   2.492   6.489   7.026 -3.2663  1.5488 -0.3327
  154SAPE  C21217109   2.531   6.466   7.229 -0.1539 -0.5511  0.0328
  154SAPE  H12R17110   2.504   6.359   7.225  2.0740 -1.1794  1.1273
  154SAPE  C21317111   2.562   6.516   7.370  0.1949 -0.1621  0.1672
  154SAPE  H13R17112   2.634   6.599   7.355  0.1434 -0.3207 -1.0404
  154SAPE  H13S17113   2.623   6.438   7.420  0.8730  0.0267 -0.3691
  154SAPE  C21417114   2.449   6.562   7.460  0.5427 -1.0571  0.1806
  154SAPE  H14R17115   2.358   6.596   7.408  0.2939  1.4858  2.1658
  154SAPE  C21517116   2.457   6.587   7.594  0.4995 -0.6186 -0.5358
  154SAPE  H15R17117   2.373   6.634   7.647  2.2334  0.5550  1.2212
  154SAPE  C21617118   2.591   6.557   7.663 -0.4735 -0.1994 -0.3939
  154SAPE  H16R17119   2.642   6.648   7.701  0.7668 -0.5905 -1.1038
  154SAPE  H16S17120   2.660   6.498   7.599 -0.5558 -0.2751 -0.4130
  154SAPE  C21717121   2.584   6.458   7.787 -0.0074 -0.5294 -0.1140
  154SAPE  H17R17122   2.688   6.432   7.815 -0.1889  0.3237  1.4095
  154SAPE  H17S17123   2.543   6.357   7.764 -0.9277 -0.3304  0.6368
  154SAPE  C21817124   2.512   6.519   7.907  0.3141  0.0242 -0.5695
  154SAPE  H18R17125   2.417   6.558   7.865  0.4661  0.1001 -0.8395
  154SAPE  H18S17126   2.570   6.601   7.954  1.9647 -0.8575 -1.0205
  154SAPE  C21917127   2.487   6.427   8.027  0.7746  0.2120 -1.1195
  154SAPE  H19R17128   2.577   6.389   8.080 -0.7200 -3.0947 -0.8395
  154SAPE  H19S17129   2.435   6.335   7.991 -1.3634  0.4400  1.2398
  154SAPE  C22017130   2.389   6.484   8.130 -0.0206  1.3620  0.1905
  154SAPE  H20R17131   2.376   6.401   8.203 -2.8748  1.0927 -0.5881
  154SAPE  H20S17132   2.295   6.517   8.081 -0.1231  1.4275  0.4280
  154SAPE  H20T17133   2.432   6.578   8.172 -4.6174  2.7345  2.2058
  154SAPE   C3317134   1.568   6.310   6.795 -0.4372  0.4054 -0.2640
  154SAPE   H3X17135   1.679   6.311   6.803 -0.4778 -2.5754  1.3925
  154SAPE   H3Y17136   1.531   6.234   6.867 -1.6762  1.8903  0.6973
  154SAPE   C3417137   1.512   6.446   6.829  0.0300  0.3074 -0.7049
  154SAPE   H4X17138   1.401   6.445   6.834  0.1342 -1.0134  2.1833
  154SAPE   H4Y17139   1.548   6.529   6.764 -0.1811 -0.2249 -1.4997
  154SAPE   C3517140   1.571   6.486   6.968  0.1524  0.1219  0.0690
  154SAPE   H5X17141   1.578   6.597   6.968  0.8758  0.0869 -1.2524
  154SAPE   H5Y17142   1.676   6.455   6.988  0.0225  1.4797  3.2038
  154SAPE   C3617143   1.480   6.429   7.080 -0.0485 -0.1053  1.4980
  154SAPE   H6X17144   1.486   6.319   7.070 -0.2976 -0.1314  1.6062
  154SAPE   H6Y17145   1.378   6.458   7.046  0.9456  1.2542 -0.3960
  154SAPE   C3717146   1.497   6.463   7.223  0.1119 -0.1455 -0.2962
  154SAPE   H7X17147   1.552   6.559   7.225 -2.3526  1.3064 -0.1042
  154SAPE   H7Y17148   1.571   6.394   7.268  1.1646  1.7043  0.8497
  154SAPE   C3817149   1.372   6.471   7.308 -0.1937 -0.3131 -1.0274
  154SAPE   H8X17150   1.327   6.370   7.312 -0.5980 -0.1734 -1.8828
  154SAPE   H8Y17151   1.295   6.542   7.269 -0.6757 -1.1529 -1.6112
  154SAPE   C3917152   1.407   6.491   7.454  0.3244  0.4299 -0.3194
  154SAPE   H9X17153   1.451   6.593   7.465  2.7008 -0.8485  2.6234
  154SAPE   H9Y17154   1.479   6.411   7.480  0.2743  0.3108 -0.5465
  154SAPE  C31017155   1.285   6.467   7.542 -0.4879 -0.7474 -0.8002
  154SAPE  H10X17156   1.211   6.396   7.499 -0.9441  0.0151 -1.2951
  154SAPE  H10Y17157   1.231   6.562   7.562  0.6280 -0.6251  1.7804
  154SAPE  C31117158   1.323   6.419   7.682 -0.9196  0.3181  0.1769
  154SAPE  H11X17159   1.358   6.314   7.674  0.2484  0.9143 -3.4616
  154SAPE  H11Y17160   1.222   6.417   7.729 -0.3680  1.8282  1.4904
  154SAPE  C31217161   1.408   6.503   7.778 -0.5630 -0.4030  0.1957
  154SAPE  H12X17162   1.375   6.606   7.751  0.1909 -0.4869 -1.1193
  154SAPE  H12Y17163   1.515   6.496   7.748 -0.5041  0.2066  0.2473
  154SAPE  C31317164   1.369   6.483   7.922  0.0117 -0.3162 -0.0529
  154SAPE  H13X17165   1.259   6.476   7.924 -0.2288  2.7930  0.9609
  154SAPE  H13Y17166   1.393   6.570   7.987  1.0292 -1.9452  1.8006
  154SAPE  C31417167   1.429   6.361   7.985  0.4212 -0.2759  0.2182
  154SAPE  H14X17168   1.537   6.377   8.005  0.6697 -2.6890  0.8725
  154SAPE  H14Y17169   1.421   6.267   7.928  0.6344  0.9603 -1.8965
  154SAPE  C31517170   1.365   6.327   8.128 -0.5320  0.2089 -0.2937
  154SAPE  H15X17171   1.255   6.326   8.116 -0.7563  0.6163  1.5311
  154SAPE  H15Y17172   1.392   6.401   8.206 -0.3953  0.9298 -1.0161
  154SAPE  C31617173   1.408   6.191   8.188  0.4214  0.5111  0.2601
  154SAPE  H16X17174   1.518   6.176   8.191  0.9478  3.8136 -0.5182
  154SAPE  H16Y17175   1.375   6.112   8.117  2.4791 -1.0087  0.9322
  154SAPE  C31717176   1.340   6.164   8.321  0.3769 -0.3501  0.6095
  154SAPE  H17X17177   1.241   6.119   8.298 -0.3844  1.8939 -0.6184
  154SAPE  H17Y17178   1.335   6.256   8.383  0.0164  1.2822 -1.7828
  154SAPE  C31817179   1.414   6.067   8.415 -0.1863 -0.4328  0.3010
  154SAPE  H18X17180   1.519   6.102   8.420 -0.3239 -0.1352  1.3575
  154SAPE  H18Y17181   1.417   5.965   8.372 -2.7886  0.2452 -1.5971
  154SAPE  H18Z17182   1.364   6.076   8.514 -0.1314  2.2995  0.1004
  155SAPE     N17183   2.601   0.664   6.132  0.0731  0.1124 -0.4282
  155SAPE   HN117184   2.599   0.620   6.038 -0.3242  0.6804 -0.6890
  155SAPE   HN217185   2.515   0.721   6.146  0.3850  0.2096  1.1881
  155SAPE   HN317186   2.676   0.735   6.125  0.0882  0.3676  1.9091
  155SAPE   C1217187   2.623   0.573   6.254  0.0369  0.0880  0.0896
  155SAPE  H12A17188   2.729   0.540   6.248  0.4885  1.8617 -2.6239
  155SAPE  H12B17189   2.554   0.488   6.238 -1.4016  1.3896 -0.7031
  155SAPE   C1117190   2.581   0.660   6.377 -0.6612  0.1318  0.5406
  155SAPE  H11A17191   2.628   0.760   6.386  0.0955  0.0067 -1.8394
  155SAPE  H11B17192   2.607   0.593   6.463  0.5250 -0.8155 -0.5350
  155SAPE     P17193   2.336   0.576   6.432 -0.0721  0.2240  0.0316
  155SAPE   O1317194   2.208   0.641   6.466  0.2389  0.2715 -0.1607
  155SAPE   O1417195   2.325   0.463   6.333 -0.0406  0.7531  0.2624
  155SAPE   O1217196   2.440   0.683   6.379 -0.5983 -0.4471 -0.9007
  155SAPE   O1117197   2.399   0.513   6.567 -0.3572 -0.5385  0.6869
  155SAPE    C117198   2.437   0.598   6.680  0.4820  0.1520 -0.3324
  155SAPE    HA17199   2.545   0.586   6.701  0.1938 -2.0123  0.0182
  155SAPE    HB17200   2.415   0.706   6.662  0.3275  0.3127  0.7987
  155SAPE    C217201   2.352   0.549   6.802 -0.1437 -0.3245 -0.1109
  155SAPE    HS17202   2.361   0.627   6.880 -1.4544  0.7065 -0.9722
  155SAPE   O2117203   2.420   0.426   6.856  0.2079 -0.3342  0.4279
  155SAPE   C2117204   2.410   0.412   6.985  0.0310 -0.0697 -0.5109
  155SAPE   O2217205   2.355   0.486   7.063 -0.1734 -0.7210  0.3326
  155SAPE   C2217206   2.476   0.280   7.020  0.2618 -0.9134  0.5956
  155SAPE   H2R17207   2.449   0.205   6.943  1.3876 -1.0372  0.3116
  155SAPE   H2S17208   2.587   0.293   7.014  0.2117 -1.2705 -1.3469
  155SAPE    C317209   2.199   0.534   6.774  0.1588  0.1171 -0.4089
  155SAPE    HX17210   2.186   0.457   6.696  0.2962 -1.6349  1.2499
  155SAPE    HY17211   2.164   0.620   6.713  0.0512 -1.3754 -2.4840
  155SAPE   O3117212   2.120   0.498   6.894  0.2098 -0.2694 -0.1028
  155SAPE   C3117213   2.089   0.604   6.965  0.2179  0.4050 -0.4264
  155SAPE   O3217214   2.130   0.717   6.942  0.2980  0.2851  0.1530
  155SAPE   C3217215   1.985   0.553   7.065 -0.7028  0.5694  0.0458
  155SAPE   H2X17216   1.924   0.470   7.023  0.6173  0.1085 -0.9952
  155SAPE   H2Y17217   1.912   0.637   7.075 -0.4166  0.9512 -0.9483
  155SAPE   C2317218   2.441   0.229   7.162 -0.4355 -0.2586  0.5051
  155SAPE   H3R17219   2.458   0.119   7.169  0.2010 -0.1739  0.3915
  155SAPE   H3S17220   2.340   0.271   7.177 -0.7977 -0.1339 -2.0207
  155SAPE   C2417221   2.525   0.288   7.276 -0.5329 -0.3918  0.2037
  155SAPE   H4R17222   2.465   0.273   7.368 -1.2574  1.2992  0.0303
  155SAPE   H4S17223   2.544   0.397   7.265  1.7455 -0.7071  0.8372
  155SAPE   C2517224   2.652   0.214   7.287 -0.1566  0.2863  0.3686
  155SAPE   H5R17225   2.720   0.223   7.201  1.1695 -0.0592  1.3618
  155SAPE   C2617226   2.702   0.135   7.379  0.5587  0.1062 -0.3776
  155SAPE   H6R17227   2.807   0.106   7.367  0.2964 -0.1052 -2.3398
  155SAPE   C2717228   2.637   0.099   7.509 -0.2627  0.7782  0.1186
  155SAPE   H7R17229   2.678  -0.001   7.536 -0.3113  1.3736  2.5643
  155SAPE   H7S17230   2.527   0.092   7.500 -0.2853 -0.7229  1.3452
  155SAPE   C2817231   2.674   0.193   7.624 -0.0741 -0.4372  0.0047
  155SAPE   H8R17232   2.741   0.280   7.610 -1.3054  0.4236 -0.6414
  155SAPE   C2917233   2.631   0.188   7.751  0.5127  0.1633  1.1921
  155SAPE   H9R17234   2.664   0.263   7.824  0.7166 -1.3710  2.7110
  155SAPE  C21017235   2.535   0.086   7.809  0.1003 -0.1280 -0.1685
  155SAPE  H10R17236   2.591   0.058   7.901  2.2998 -1.0672 -1.7397
  155SAPE  H10S17237   2.504   0.005   7.739 -0.8884  0.8850 -0.9191
  155SAPE  C21117238   2.401   0.134   7.847  0.8056  0.0082  0.5468
  155SAPE  H11R17239   2.350   0.186   7.764  0.3786  0.2519  0.9656
  155SAPE  C21217240   2.342   0.131   7.970  0.0047  0.1144 -0.8682
  155SAPE  H12R17241   2.237   0.163   7.977 -0.0897 -0.2920 -0.2962
  155SAPE  C21317242   2.405   0.067   8.094 -0.4876 -0.4361 -0.3350
  155SAPE  H13R17243   2.474   0.135   8.149 -1.1397 -0.3513  0.3850
  155SAPE  H13S17244   2.469  -0.022   8.072  0.4981 -0.4397  2.3898
  155SAPE  C21417245   2.299   0.011   8.189  0.1689 -0.4707  0.4166
  155SAPE  H14R17246   2.238  -0.068   8.144 -0.2866 -0.0126  0.2301
  155SAPE  C21517247   2.295   0.036   8.321  0.1195 -0.0479 -0.1135
  155SAPE  H15R17248   2.207   0.003   8.378 -2.0698 -0.3666 -3.4730
  155SAPE  C21617249   2.402   0.115   8.396  0.3797 -0.1870  0.2335
  155SAPE  H16R17250   2.430   0.213   8.350 -0.4765  0.0308  0.1759
  155SAPE  H16S17251   2.491   0.050   8.383  1.0504  0.6842  0.3693
  155SAPE  C21717252   2.382   0.140   8.544  0.2513 -0.2963 -0.8136
  155SAPE  H17R17253   2.296   0.203   8.574  1.3795  0.4079  0.9988
  155SAPE  H17S17254   2.471   0.196   8.579  0.1499 -0.4639 -0.2865
  155SAPE  C21817255   2.382   0.016   8.627 -0.8045  0.5598 -0.5109
  155SAPE  H18R17256   2.469  -0.037   8.581 -0.8141 -0.9411  1.1313
  155SAPE  H18S17257   2.283  -0.030   8.609 -0.9293  0.5607  0.1631
  155SAPE  C21917258   2.413   0.041   8.773  0.1046  0.8603 -0.1089
  155SAPE  H19R17259   2.320   0.085   8.815 -0.5264  0.0129 -0.5933
  155SAPE  H19S17260   2.493   0.117   8.782  1.4273 -0.0839 -3.2872
  155SAPE  C22017261   2.452  -0.078   8.860 -0.2582 -0.1144  0.0357
  155SAPE  H20R17262   2.552  -0.125   8.867 -0.4238 -0.8397 -2.0522
  155SAPE  H20S17263   2.380  -0.160   8.839  0.3858 -0.7713  0.3656
  155SAPE  H20T17264   2.431  -0.046   8.965  0.1708  1.2859 -0.2918
  155SAPE   C3317265   2.051   0.529   7.199 -0.1833 -0.5546  0.0277
  155SAPE   H3X17266   2.132   0.455   7.184  1.1603  0.7007  0.9077
  155SAPE   H3Y17267   1.969   0.489   7.263 -2.6003  5.1069  0.7400
  155SAPE   C3417268   2.092   0.655   7.282 -0.1448  0.4804  0.5615
  155SAPE   H4X17269   2.002   0.703   7.327 -0.2629 -0.7958  1.7420
  155SAPE   H4Y17270   2.139   0.732   7.218  0.6388 -0.9479 -0.6132
  155SAPE   C3517271   2.202   0.620   7.391 -0.6513 -0.5933  0.9185
  155SAPE   H5X17272   2.231   0.714   7.442  0.4970 -0.2944 -0.2562
  155SAPE   H5Y17273   2.286   0.577   7.332  0.3685 -0.6668  2.3927
  155SAPE   C3617274   2.156   0.514   7.492  0.2223  0.4027 -0.2415
  155SAPE   H6X17275   2.123   0.418   7.445  0.2898 -0.0095  0.5403
  155SAPE   H6Y17276   2.078   0.563   7.554 -0.2793  0.3532 -0.8299
  155SAPE   C3717277   2.272   0.462   7.580  0.3167 -0.1395  0.5303
  155SAPE   H7X17278   2.373   0.459   7.534  0.2451  1.1827  0.2528
  155SAPE   H7Y17279   2.256   0.361   7.624 -0.9249  0.9871  2.7904
  155SAPE   C3817280   2.278   0.549   7.705 -0.0138 -0.6824 -0.1917
  155SAPE   H8X17281   2.182   0.545   7.760 -0.7859  0.0984 -1.4660
  155SAPE   H8Y17282   2.310   0.653   7.684  2.0936 -1.7011 -2.3129
  155SAPE   C3917283   2.370   0.484   7.806  0.1961 -0.3869 -0.5076
  155SAPE   H9X17284   2.465   0.458   7.754  0.5584 -1.0830  0.4868
  155SAPE   H9Y17285   2.333   0.390   7.852 -3.4826  0.8182 -0.8719
  155SAPE  C31017286   2.395   0.577   7.924  0.1769  0.3356  0.0530
  155SAPE  H10X17287   2.296   0.599   7.969  0.3856  1.6162 -0.1168
  155SAPE  H10Y17288   2.431   0.671   7.878  1.4224  0.6187  1.5529
  155SAPE  C31117289   2.495   0.527   8.029 -0.5149 -0.3388 -0.0056
  155SAPE  H11X17290   2.585   0.491   7.975 -0.7522  1.3651 -1.5963
  155SAPE  H11Y17291   2.450   0.443   8.086 -2.3544 -1.4369 -2.9539
  155SAPE  C31217292   2.550   0.633   8.124  0.4644 -0.3289 -0.4731
  155SAPE  H12X17293   2.476   0.660   8.202  2.2961  1.4251  0.6965
  155SAPE  H12Y17294   2.563   0.722   8.059  0.3164  2.4026  3.0800
  155SAPE  C31317295   2.670   0.598   8.214 -0.3733 -0.4068 -0.2351
  155SAPE  H13X17296   2.695   0.687   8.275 -1.7811  0.5191 -0.9975
  155SAPE  H13Y17297   2.752   0.581   8.140 -0.3843  1.1141 -0.5960
  155SAPE  C31417298   2.640   0.471   8.293  0.4409  0.6969  0.2479
  155SAPE  H14X17299   2.618   0.373   8.245 -0.3449 -0.5417  3.0225
  155SAPE  H14Y17300   2.545   0.495   8.346  1.7486 -2.4712  4.3709
  155SAPE  C31517301   2.746   0.456   8.408 -0.5076  0.4949 -0.4604
  155SAPE  H15X17302   2.751   0.549   8.468  1.8760 -0.8644  1.6004
  155SAPE  H15Y17303   2.850   0.445   8.369 -0.9129 -1.2313 -1.1320
  155SAPE  C31617304   2.720   0.344   8.515 -0.0443 -0.2672  0.9892
  155SAPE  H16X17305   2.715   0.244   8.466 -0.6406 -0.1154  0.7435
  155SAPE  H16Y17306   2.620   0.363   8.558 -0.4624 -2.7133  1.2025
  155SAPE  C31717307   2.819   0.347   8.625 -0.2307 -0.4990  0.0154
  155SAPE  H17X17308   2.851   0.451   8.645 -0.3114  0.2898 -3.5811
  155SAPE  H17Y17309   2.912   0.299   8.588  0.1436  1.6470 -1.9000
  155SAPE  C31817310   2.772   0.257   8.744 -0.1910  0.0197  0.2805
  155SAPE  H18X17311   2.846   0.268   8.826  1.5675  0.8637 -1.3791
  155SAPE  H18Y17312   2.743   0.154   8.713 -1.4708  0.1175  1.1214
  155SAPE  H18Z17313   2.679   0.309   8.775  1.5811  3.1151  0.5736
  156SAPE     N17314   0.171   1.730   6.105  0.7635 -0.0299  1.2475
  156SAPE   HN117315   0.172   1.833   6.121  0.9312  0.3361 -1.0283
  156SAPE   HN217316   0.228   1.685   6.031 -2.6373 -3.1855  0.3783
  156SAPE   HN317317   0.071   1.707   6.086  0.7795  2.5874 -2.5313
  156SAPE   C1217318   0.221   1.667   6.232 -0.2309  0.1630 -0.7049
  156SAPE  H12A17319   0.159   1.715   6.311  1.1242 -2.1808  1.8902
  156SAPE  H12B17320   0.324   1.703   6.253  0.3333 -0.8793 -1.6386
  156SAPE   C1117321   0.201   1.516   6.228  0.5520 -0.0447 -0.3540
  156SAPE  H11A17322   0.242   1.469   6.321 -0.4803  0.2642  0.2659
  156SAPE  H11B17323   0.255   1.468   6.144  0.2364 -3.2532  1.2099
  156SAPE     P17324   0.002   1.361   6.274 -0.6515  0.3935 -0.5941
  156SAPE   O1317325  -0.134   1.350   6.213 -0.5017 -0.5682 -0.3136
  156SAPE   O1417326   0.106   1.256   6.250  0.4793 -0.2838  0.3111
  156SAPE   O1217327   0.059   1.496   6.223 -0.2482 -0.0769 -0.3233
  156SAPE   O1117328  -0.009   1.395   6.432 -0.8572  0.2243 -0.0828
  156SAPE    C117329  -0.070   1.292   6.516  0.1781  0.2917  0.2864
  156SAPE    HA17330  -0.170   1.264   6.478  0.9872 -1.6520 -0.4694
  156SAPE    HB17331  -0.018   1.194   6.524  0.9769  0.8434  2.0922
  156SAPE    C217332  -0.107   1.346   6.653 -0.4070  0.2682  0.1174
  156SAPE    HS17333  -0.198   1.406   6.629 -1.6784 -2.3266 -1.8111
  156SAPE   O2117334  -0.005   1.434   6.704 -0.0945  0.4276  0.3737
  156SAPE   C2117335  -0.035   1.488   6.817  0.0644  0.6522 -0.0292
  156SAPE   O2217336  -0.150   1.486   6.867 -0.0049 -0.0294  0.3119
  156SAPE   C2217337   0.078   1.568   6.869 -0.8012 -0.0864  0.3043
  156SAPE   H2R17338   0.167   1.509   6.903 -1.2958 -0.1702  1.4679
  156SAPE   H2S17339   0.112   1.636   6.788 -1.6632  0.7353  0.6339
  156SAPE    C317340  -0.146   1.233   6.757 -0.0009  0.2054  0.1709
  156SAPE    HX17341  -0.228   1.179   6.705 -0.8298 -0.8238  2.5159
  156SAPE    HY17342  -0.179   1.250   6.861  4.6346 -0.6108  1.9058
  156SAPE   O3117343  -0.038   1.148   6.786  0.0555 -0.4932  0.4724
  156SAPE   C3117344  -0.049   1.019   6.738 -0.2217 -0.2812  0.0511
  156SAPE   O3217345  -0.132   0.982   6.661 -0.0865 -0.3225 -0.3008
  156SAPE   C3217346   0.055   0.928   6.807  0.1031  0.4291 -0.6647
  156SAPE   H2X17347   0.052   0.955   6.915  0.7811  0.8128 -0.7477
  156SAPE   H2Y17348   0.156   0.952   6.769  0.9971 -0.0514  1.3332
  156SAPE   C2317349   0.040   1.669   6.983  0.7715  0.0119 -0.0405
  156SAPE   H3R17350  -0.009   1.604   7.059  0.1471 -2.4394 -2.4806
  156SAPE   H3S17351  -0.025   1.750   6.942  0.6001 -0.4009 -0.5817
  156SAPE   C2417352   0.152   1.737   7.054 -0.6065  0.3385  0.5697
  156SAPE   H4R17353   0.223   1.774   6.977 -1.9323 -0.8563 -1.2482
  156SAPE   H4S17354   0.215   1.659   7.102  0.5656 -0.4685 -2.2385
  156SAPE   C2517355   0.116   1.853   7.146 -0.1943  0.4973  0.7205
  156SAPE   H5R17356   0.092   1.946   7.093  1.4068  0.9199  0.6969
  156SAPE   C2617357   0.101   1.844   7.282  0.7371 -0.0238 -0.8682
  156SAPE   H6R17358   0.086   1.933   7.345  1.4500  0.2304 -1.0601
  156SAPE   C2717359   0.141   1.716   7.352 -0.0576  0.8335  0.8584
  156SAPE   H7R17360   0.126   1.627   7.288  1.5387  0.7710  0.5590
  156SAPE   H7S17361   0.070   1.695   7.435  0.3845  5.2913  2.4944
  156SAPE   C2817362   0.281   1.716   7.405  0.0374 -0.4762 -0.4678
  156SAPE   H8R17363   0.354   1.743   7.327 -0.0775  1.9851  0.2302
  156SAPE   C2917364   0.325   1.708   7.538 -0.1077  0.2819  0.4704
  156SAPE   H9R17365   0.432   1.696   7.561  0.0424  0.6508 -0.0145
  156SAPE  C21017366   0.240   1.707   7.657  0.4578  1.0258  0.3865
  156SAPE  H10R17367   0.140   1.720   7.610  0.6573 -0.7840 -0.5983
  156SAPE  H10S17368   0.258   1.796   7.721 -1.1851  0.4672  1.6913
  156SAPE  C21117369   0.243   1.581   7.732  0.0233 -0.6763  0.4226
  156SAPE  H11R17370   0.209   1.498   7.668  0.7959 -0.6446 -0.0349
  156SAPE  C21217371   0.272   1.553   7.863  0.0315  0.5548  0.4212
  156SAPE  H12R17372   0.245   1.453   7.900 -0.7480 -0.1996 -2.1031
  156SAPE  C21317373   0.309   1.655   7.973  0.0601  0.0115  0.4841
  156SAPE  H13R17374   0.338   1.753   7.929 -1.4120 -0.5559 -1.8602
  156SAPE  H13S17375   0.401   1.611   8.017  0.7116  1.5022  0.6318
  156SAPE  C21417376   0.201   1.674   8.079  0.1793 -0.0126  0.0563
  156SAPE  H14R17377   0.112   1.726   8.042 -1.0369  0.1273  3.0547
  156SAPE  C21517378   0.203   1.633   8.207  0.3528  0.2361  0.6086
  156SAPE  H15R17379   0.112   1.648   8.266 -0.5323  0.5097 -0.8009
  156SAPE  C21617380   0.309   1.554   8.279  0.2509 -0.0739 -0.0578
  156SAPE  H16R17381   0.412   1.581   8.244  0.1142 -0.6572 -0.9056
  156SAPE  H16S17382   0.292   1.449   8.247 -1.2774  0.3133 -0.5203
  156SAPE  C21717383   0.301   1.562   8.437 -0.2440 -0.4652  0.9867
  156SAPE  H17R17384   0.384   1.505   8.484  0.0271 -1.4143 -0.6073
  156SAPE  H17S17385   0.203   1.520   8.469 -2.4155  2.3961 -1.6344
  156SAPE  C21817386   0.315   1.706   8.485 -0.0305  0.1237  0.1037
  156SAPE  H18R17387   0.239   1.770   8.433 -4.1094 -3.0763  1.8675
  156SAPE  H18S17388   0.409   1.750   8.446  1.9169 -3.9696 -0.0497
  156SAPE  C21917389   0.304   1.711   8.637 -0.9415 -0.4645 -0.5142
  156SAPE  H19R17390   0.324   1.818   8.655  0.1172 -0.8569  0.6155
  156SAPE  H19S17391   0.390   1.659   8.684  0.0629  2.2641  0.7463
  156SAPE  C22017392   0.172   1.670   8.701 -0.1346 -0.0432  0.2872
  156SAPE  H20R17393   0.158   1.702   8.807  0.2534 -0.2216  0.3954
  156SAPE  H20S17394   0.170   1.559   8.703  0.4642 -0.0784 -0.7956
  156SAPE  H20T17395   0.084   1.706   8.644 -0.8143  0.1865  1.4705
  156SAPE   C3317396   0.028   0.782   6.796  0.3992 -0.1344 -0.3152
  156SAPE   H3X17397   0.121   0.722   6.791  0.4731 -0.0197 -0.3003
  156SAPE   H3Y17398  -0.036   0.758   6.708 -1.6171 -1.3513  1.4409
  156SAPE   C3417399  -0.035   0.726   6.934 -0.5602  0.1502  0.0101
  156SAPE   H4X17400   0.041   0.747   7.012 -1.1353 -0.9587  0.8992
  156SAPE   H4Y17401  -0.037   0.615   6.929 -1.8963  0.2297 -1.7205
  156SAPE   C3517402  -0.162   0.796   6.968 -0.2839 -0.3910  0.7077
  156SAPE   H5X17403  -0.220   0.789   6.874  0.0934 -1.5043  0.5567
  156SAPE   H5Y17404  -0.147   0.903   6.994 -1.8451  0.1233 -0.4223
  156SAPE   C3617405  -0.230   0.731   7.081 -0.2113  0.0676 -1.3962
  156SAPE   H6X17406  -0.230   0.621   7.063  1.6285 -0.2090  0.1711
  156SAPE   H6Y17407  -0.337   0.759   7.087 -0.4792 -1.2859  0.3263
  156SAPE   C3717408  -0.147   0.761   7.213  0.2672 -0.0191  0.0374
  156SAPE   H7X17409  -0.121   0.869   7.213 -0.4545  0.2343 -4.1183
  156SAPE   H7Y17410  -0.054   0.700   7.214  0.3218  0.0699  0.6493
  156SAPE   C3817411  -0.219   0.708   7.340 -0.1906  0.0757  0.0443
  156SAPE   H8X17412  -0.220   0.597   7.336  3.0883  0.0448 -1.8273
  156SAPE   H8Y17413  -0.325   0.740   7.338 -0.0654  0.5329  0.5366
  156SAPE   C3917414  -0.160   0.748   7.477  0.3699  0.2071 -0.1709
  156SAPE   H9X17415  -0.167   0.858   7.493 -1.2184  0.1765 -0.4713
  156SAPE   H9Y17416  -0.054   0.718   7.473  0.2084 -0.6407  1.4580
  156SAPE  C31017417  -0.233   0.673   7.590  0.2277 -0.1415  0.5716
  156SAPE  H10X17418  -0.232   0.564   7.570 -0.9008 -0.4763  2.2622
  156SAPE  H10Y17419  -0.338   0.709   7.584  1.2866  3.7440  3.2051
  156SAPE  C31117420  -0.182   0.680   7.737 -0.4664  0.2419 -0.4783
  156SAPE  H11X17421  -0.072   0.677   7.752 -0.3658  0.1762 -1.2070
  156SAPE  H11Y17422  -0.221   0.589   7.787  2.0935  0.0189  1.1846
  156SAPE  C31217423  -0.236   0.813   7.801 -0.8097 -0.3663  0.2588
  156SAPE  H12X17424  -0.346   0.825   7.799 -0.7660 -0.0111 -0.3029
  156SAPE  H12Y17425  -0.182   0.897   7.752 -0.8189  1.0360  2.5998
  156SAPE  C31317426  -0.195   0.817   7.945 -0.1624  0.3073  0.6848
  156SAPE  H13X17427  -0.209   0.925   7.965  1.9255  0.3536  1.9763
  156SAPE  H13Y17428  -0.096   0.771   7.966 -1.8080 -3.9069 -0.1850
  156SAPE  C31417429  -0.285   0.744   8.042  0.3005 -0.3088 -0.3371
  156SAPE  H14X17430  -0.276   0.634   8.024  0.2942 -0.3759  0.0655
  156SAPE  H14Y17431  -0.386   0.778   8.013  0.9007  0.8350 -1.1060
  156SAPE  C31517432  -0.273   0.788   8.190 -0.5170  0.6862  0.1624
  156SAPE  H15X17433  -0.351   0.735   8.250  0.7782 -0.7735  0.5974
  156SAPE  H15Y17434  -0.302   0.895   8.192  0.7378  1.0326  0.2150
  156SAPE  C31617435  -0.133   0.781   8.244 -0.8543  0.6000  0.1853
  156SAPE  H16X17436  -0.147   0.806   8.352 -1.6374 -1.7557  0.6585
  156SAPE  H16Y17437  -0.079   0.856   8.184  0.0946  1.3031  1.8708
  156SAPE  C31717438  -0.058   0.644   8.231  0.5486 -0.5180  0.1096
  156SAPE  H17X17439   0.041   0.655   8.278  1.4102 -3.7113 -0.8616
  156SAPE  H17Y17440  -0.027   0.625   8.126 -1.2463 -1.1977 -0.3185
  156SAPE  C31817441  -0.131   0.529   8.298  0.5186  0.1568  0.6092
  156SAPE  H18X17442  -0.060   0.448   8.326  0.7946  0.1875  0.0143
  156SAPE  H18Y17443  -0.203   0.490   8.223  0.0409  2.2268 -0.0382
  156SAPE  H18Z17444  -0.187   0.563   8.387 -1.1768 -1.3341  0.1401
  157SAPE     N17445   5.355   3.101   6.226  0.0154 -1.3046 -0.1437
  157SAPE   HN117446   5.309   3.183   6.181 -0.7793 -2.0733 -0.7240
  157SAPE   HN217447   5.457   3.120   6.228 -0.6409  2.7074  1.6409
  157SAPE   HN317448   5.318   3.020   6.173 -0.7196 -1.2504  0.2839
  157SAPE   C1217449   5.313   3.080   6.367  0.1868  0.1512  1.2004
  157SAPE  H12A17450   5.329   3.176   6.421 -1.7332  1.6863 -0.8620
  157SAPE  H12B17451   5.373   2.996   6.407 -0.5889 -2.3109 -2.5226
  157SAPE   C1117452   5.159   3.043   6.380 -0.1961  0.0911 -0.0752
  157SAPE  H11A17453   5.103   3.133   6.348  1.4014  0.6909 -1.2987
  157SAPE  H11B17454   5.127   3.032   6.486 -0.9842  0.4880 -0.2682
  157SAPE     P17455   5.063   2.922   6.161  0.2595  0.0266 -0.7354
  157SAPE   O1317456   5.169   2.973   6.077 -0.2388  0.3480 -0.5322
  157SAPE   O1417457   5.015   2.784   6.133 -0.0381  0.2799 -0.1599
  157SAPE   O1217458   5.122   2.920   6.308 -0.5018 -0.1631  0.7975
  157SAPE   O1117459   4.945   3.026   6.168  0.0249  0.3752  0.1118
  157SAPE    C117460   4.815   2.982   6.189  0.1257  0.1841  0.3065
  157SAPE    HA17461   4.736   3.057   6.169  0.8690  1.1070  0.8056
  157SAPE    HB17462   4.788   2.883   6.145 -0.1810 -0.1704  1.2753
  157SAPE    C217463   4.783   2.965   6.342  0.3363 -0.1453  0.0161
  157SAPE    HS17464   4.855   2.901   6.396  1.1966  1.0501  0.3070
  157SAPE   O2117465   4.652   2.915   6.356 -0.2838  1.2555  0.0865
  157SAPE   C2117466   4.646   2.782   6.354 -0.0726 -0.3299 -0.3223
  157SAPE   O2217467   4.741   2.704   6.360  0.3587  0.2186  0.3904
  157SAPE   C2217468   4.500   2.739   6.349 -0.2100  0.0904 -0.1523
  157SAPE   H2R17469   4.432   2.809   6.402 -0.7191 -1.6322  1.4947
  157SAPE   H2S17470   4.468   2.739   6.243 -0.0118 -0.3578 -0.2123
  157SAPE    C317471   4.794   3.105   6.408  0.5712 -0.3100 -0.2898
  157SAPE    HX17472   4.716   3.172   6.367  0.5670 -0.1089  0.0435
  157SAPE    HY17473   4.897   3.139   6.386  0.9231 -1.7528 -0.9120
  157SAPE   O3117474   4.769   3.101   6.558 -0.3378  0.9890 -0.0015
  157SAPE   C3117475   4.635   3.092   6.586  0.7068 -0.6970  0.7426
  157SAPE   O3217476   4.544   3.124   6.512 -0.4602  0.1052  0.3498
  157SAPE   C3217477   4.619   3.046   6.726 -0.2206  0.2305 -0.0209
  157SAPE   H2X17478   4.695   3.098   6.789  0.6050 -0.3432 -0.5441
  157SAPE   H2Y17479   4.644   2.939   6.737 -1.6106 -0.0545  0.5310
  157SAPE   C2317480   4.473   2.596   6.399 -0.1202 -0.3387  0.0489
  157SAPE   H3R17481   4.528   2.523   6.335 -1.6203 -2.6392  1.2978
  157SAPE   H3S17482   4.365   2.575   6.389 -0.2752  0.4376  0.0804
  157SAPE   C2417483   4.509   2.575   6.552 -0.7363  0.6162 -0.1596
  157SAPE   H4R17484   4.614   2.605   6.573 -0.7976  2.0401 -1.8020
  157SAPE   H4S17485   4.504   2.464   6.563  0.5460  0.2932 -2.4437
  157SAPE   C2517486   4.424   2.643   6.655  0.3436 -0.0550  0.9367
  157SAPE   H5R17487   4.366   2.731   6.622  2.8753  0.6309 -1.8705
  157SAPE   C2617488   4.382   2.587   6.768 -0.4698 -0.6176 -0.1621
  157SAPE   H6R17489   4.308   2.632   6.836 -0.7953  0.2226 -1.0642
  157SAPE   C2717490   4.436   2.449   6.820 -0.1387  0.3872 -0.0753
  157SAPE   H7R17491   4.516   2.407   6.755  0.0852 -0.2998  0.6419
  157SAPE   H7S17492   4.356   2.373   6.814  0.8833 -0.6200 -1.2872
  157SAPE   C2817493   4.484   2.459   6.967 -0.1822 -0.4421  0.0323
  157SAPE   H8R17494   4.591   2.486   6.975 -0.5571  1.0931  0.1021
  157SAPE   C2917495   4.417   2.464   7.082  0.9472 -0.1563  0.0082
  157SAPE   H9R17496   4.466   2.474   7.180 -2.8964  1.9526  1.8081
  157SAPE  C21017497   4.261   2.453   7.109  0.4338  0.4126 -0.0290
  157SAPE  H10R17498   4.207   2.431   7.014 -1.6051  1.5160  0.8460
  157SAPE  H10S17499   4.224   2.555   7.133 -0.8428 -0.3819  1.4404
  157SAPE  C21117500   4.218   2.354   7.217 -0.4924  0.1860  0.8459
  157SAPE  H11R17501   4.205   2.252   7.178  0.6139  0.1276  0.6099
  157SAPE  C21217502   4.212   2.381   7.350 -0.0150  0.3257 -0.1953
  157SAPE  H12R17503   4.180   2.293   7.408  1.2496 -0.5384 -0.8096
  157SAPE  C21317504   4.225   2.506   7.438 -0.0411 -0.1187  0.8933
  157SAPE  H13R17505   4.145   2.524   7.513 -1.4931  0.7970 -0.8409
  157SAPE  H13S17506   4.220   2.596   7.373  2.2873  1.0221  2.2382
  157SAPE  C21417507   4.363   2.514   7.497 -0.0579 -0.4666  0.0897
  157SAPE  H14R17508   4.450   2.506   7.430  0.3778 -0.3880  0.6457
  157SAPE  C21517509   4.393   2.520   7.633 -0.1408  0.2985 -0.1638
  157SAPE  H15R17510   4.497   2.519   7.669  0.3185  1.5281 -1.4101
  157SAPE  C21617511   4.302   2.512   7.752  0.0068  0.3671 -0.6973
  157SAPE  H16R17512   4.197   2.527   7.718 -0.1263  4.9700  1.3631
  157SAPE  H16S17513   4.316   2.609   7.804  0.9364 -0.5335  0.7554
  157SAPE  C21717514   4.308   2.393   7.842  0.2069 -0.0391 -0.0689
  157SAPE  H17R17515   4.414   2.367   7.863 -0.0977 -0.3113  1.2053
  157SAPE  H17S17516   4.258   2.305   7.797  0.2868 -0.1771  0.1092
  157SAPE  C21817517   4.248   2.419   7.978 -0.5912  0.1514  0.2801
  157SAPE  H18R17518   4.305   2.491   8.041 -0.2820 -2.1653  2.7413
  157SAPE  H18S17519   4.250   2.317   8.023  1.0880 -0.1871 -0.4876
  157SAPE  C21917520   4.106   2.477   7.975 -0.2317 -0.5199  0.5181
  157SAPE  H19R17521   4.040   2.415   7.911 -0.0863 -1.1325  0.9548
  157SAPE  H19S17522   4.095   2.577   7.929  1.5905 -0.5854 -0.0723
  157SAPE  C22017523   4.057   2.489   8.120  0.1289  0.0192 -0.4964
  157SAPE  H20R17524   4.060   2.388   8.166  0.8677 -0.4023 -1.4369
  157SAPE  H20S17525   3.954   2.530   8.110  1.0644  2.0794 -2.4254
  157SAPE  H20T17526   4.125   2.554   8.180 -1.1095 -0.3561  1.3239
  157SAPE   C3317527   4.476   3.056   6.789 -0.0518 -0.0544  0.4083
  157SAPE   H3X17528   4.406   3.007   6.719 -0.4990  2.0879 -0.6855
  157SAPE   H3Y17529   4.458   3.165   6.803  2.6248  0.6132 -0.9516
  157SAPE   C3417530   4.470   2.977   6.926  0.0520  0.0627 -0.0563
  157SAPE   H4X17531   4.557   3.005   6.988  1.1725 -1.0408 -1.1025
  157SAPE   H4Y17532   4.494   2.872   6.902 -0.3897 -0.4418  1.6493
  157SAPE   C3517533   4.342   3.006   7.007  0.6312 -0.5027  0.1495
  157SAPE   H5X17534   4.255   3.002   6.939  0.6558  0.7156  0.0343
  157SAPE   H5Y17535   4.337   3.112   7.040  0.2747 -0.3479 -0.4101
  157SAPE   C3617536   4.311   2.925   7.139  0.0883  0.7066  0.9616
  157SAPE   H6X17537   4.408   2.928   7.194 -0.0009 -0.6027  1.1941
  157SAPE   H6Y17538   4.303   2.817   7.115 -0.2745  0.6144  1.5025
  157SAPE   C3717539   4.196   2.987   7.225  0.5124 -0.0255 -0.2184
  157SAPE   H7X17540   4.100   2.940   7.196 -1.6732  4.3466 -0.4556
  157SAPE   H7Y17541   4.182   3.096   7.205 -0.7280  0.2204  1.8131
  157SAPE   C3817542   4.217   2.974   7.381  0.1243 -0.3211  0.0831
  157SAPE   H8X17543   4.249   2.873   7.415  1.4215  0.1012  0.1359
  157SAPE   H8Y17544   4.112   2.982   7.415  0.5772 -1.6352  1.9027
  157SAPE   C3917545   4.298   3.086   7.440 -0.4140  0.6993  0.3306
  157SAPE   H9X17546   4.285   3.181   7.383  2.6226  0.9755 -0.0204
  157SAPE   H9Y17547   4.407   3.065   7.450 -0.1262 -0.1593 -3.6550
  157SAPE  C31017548   4.235   3.114   7.572 -0.3427  0.4128 -0.1408
  157SAPE  H10X17549   4.136   3.156   7.543 -0.6120  0.3559  0.6668
  157SAPE  H10Y17550   4.294   3.192   7.626 -0.8965  0.5933  0.2094
  157SAPE  C31117551   4.204   3.003   7.678 -0.8072  0.2203 -0.3505
  157SAPE  H11X17552   4.306   2.973   7.711 -1.0586  1.3464  1.5264
  157SAPE  H11Y17553   4.147   2.915   7.640  0.6332 -1.3331  1.0084
  157SAPE  C31217554   4.127   3.049   7.796 -0.8167 -0.0759  0.3599
  157SAPE  H12X17555   4.024   3.085   7.777 -1.0986 -1.4847 -0.8870
  157SAPE  H12Y17556   4.188   3.131   7.839  0.3652  1.3846 -3.8253
  157SAPE  C31317557   4.112   2.954   7.919  0.2372 -0.5078  0.1814
  157SAPE  H13X17558   4.210   2.904   7.937  0.1540 -0.4552  0.7848
  157SAPE  H13Y17559   4.057   2.863   7.887 -0.2814  0.0715 -0.6041
  157SAPE  C31417560   4.052   3.024   8.042  0.3946  0.5289 -0.0029
  157SAPE  H14X17561   4.006   2.940   8.098 -0.7824 -0.9555 -3.1280
  157SAPE  H14Y17562   3.966   3.085   8.008  0.0295 -0.8218 -1.5657
  157SAPE  C31517563   4.159   3.099   8.124  0.3597 -0.2829  0.1320
  157SAPE  H15X17564   4.230   3.152   8.057  1.3459  0.1648  1.4946
  157SAPE  H15Y17565   4.224   3.031   8.183 -0.3214 -0.6930  0.4161
  157SAPE  C31617566   4.089   3.209   8.214  0.3018  0.7455  0.1722
  157SAPE  H16X17567   4.036   3.283   8.151 -2.0606 -0.4092  0.7407
  157SAPE  H16Y17568   4.166   3.257   8.277  1.0460  0.2922 -0.3749
  157SAPE  C31717569   3.992   3.141   8.311  0.5385 -1.0558  0.2971
  157SAPE  H17X17570   4.037   3.048   8.352 -2.1179 -2.9753 -0.9651
  157SAPE  H17Y17571   3.911   3.108   8.243  1.8171 -2.0782 -0.7373
  157SAPE  C31817572   3.945   3.221   8.435  0.4802  0.4379 -0.2139
  157SAPE  H18X17573   3.931   3.322   8.390  2.7440  0.8549 -0.0141
  157SAPE  H18Y17574   4.027   3.225   8.509 -0.8655  1.2155  1.2694
  157SAPE  H18Z17575   3.851   3.178   8.476  1.5142 -0.8619  0.8252
  158SAPE     N17576   6.115   0.358   6.365 -0.4302 -0.0499 -0.3286
  158SAPE   HN117577   6.118   0.366   6.469 -1.6859 -2.2038 -0.1100
  158SAPE   HN217578   6.034   0.404   6.318 -2.0930 -1.0886  1.4387
  158SAPE   HN317579   6.101   0.256   6.351 -1.0409  0.0664 -0.5586
  158SAPE   C1217580   6.243   0.418   6.314 -0.1807 -1.0723  0.9896
  158SAPE  H12A17581   6.255   0.407   6.204 -0.0901  0.3330  0.8420
  158SAPE  H12B17582   6.324   0.370   6.374 -0.3022  1.6343  3.4454
  158SAPE   C1117583   6.237   0.568   6.346 -0.6550  0.4961  0.0016
  158SAPE  H11A17584   6.318   0.620   6.290  0.5927 -0.7351  0.6427
  158SAPE  H11B17585   6.264   0.577   6.453  1.4597 -0.7289 -0.3958
  158SAPE     P17586   6.082   0.774   6.350 -0.2241 -0.3219 -0.0747
  158SAPE   O1317587   6.139   0.873   6.251 -0.2891 -0.1536  0.6081
  158SAPE   O1417588   5.940   0.781   6.364  0.1022 -0.4749  0.0379
  158SAPE   O1217589   6.107   0.623   6.315 -0.1225  0.0374 -0.3976
  158SAPE   O1117590   6.146   0.783   6.497 -0.0189 -0.1009  0.3633
  158SAPE    C117591   6.221   0.904   6.513  0.2449  0.1356 -0.1257
  158SAPE    HA17592   6.299   0.918   6.436  0.1499  0.1992 -0.2108
  158SAPE    HB17593   6.151   0.991   6.519  1.2722  0.8311  2.2087
  158SAPE    C217594   6.295   0.906   6.658 -0.4642  0.0742 -0.8948
  158SAPE    HS17595   6.374   0.829   6.648  0.0942  0.3242  1.3288
  158SAPE   O2117596   6.197   0.868   6.757  0.1841 -0.3875 -0.5141
  158SAPE   C2117597   6.213   0.754   6.825  0.3670  0.7393 -0.0222
  158SAPE   O2217598   6.307   0.679   6.798  0.6109 -0.0908  0.5498
  158SAPE   C2217599   6.105   0.728   6.936 -0.3085 -0.6890 -0.3769
  158SAPE   H2R17600   6.004   0.735   6.891 -0.6383 -1.6592  0.2110
  158SAPE   H2S17601   6.110   0.623   6.969  1.1951 -0.6545 -0.4684
  158SAPE    C317602   6.348   1.037   6.704  0.5607 -0.0087 -0.7325
  158SAPE    HX17603   6.270   1.115   6.693  1.0481  1.0631  2.7924
  158SAPE    HY17604   6.440   1.066   6.649  1.0761  0.1186  0.1904
  158SAPE   O3117605   6.402   1.032   6.843  0.4563 -0.5142  0.1245
  158SAPE   C3117606   6.324   1.089   6.930  0.1921 -0.8600  0.1268
  158SAPE   O3217607   6.218   1.148   6.903 -0.2701  0.1314  0.1022
  158SAPE   C3217608   6.369   1.063   7.071 -0.3633 -0.3035 -0.1004
  158SAPE   H2X17609   6.462   1.003   7.069  0.7974  1.4483 -3.6483
  158SAPE   H2Y17610   6.289   1.004   7.120  1.4963 -2.6107  0.2387
  158SAPE   C2317611   6.115   0.821   7.065  0.2515  0.3476  0.1638
  158SAPE   H3R17612   6.132   0.925   7.029  0.4978  0.0963 -0.4548
  158SAPE   H3S17613   6.197   0.786   7.132  0.3141  0.4870  0.1602
  158SAPE   C2417614   5.984   0.832   7.150  0.2392  0.8931 -0.0877
  158SAPE   H4R17615   5.904   0.865   7.081  0.0962  0.2126 -0.2466
  158SAPE   H4S17616   5.994   0.921   7.215 -1.3788 -0.2479  1.7762
  158SAPE   C2517617   5.944   0.714   7.233  1.9253 -0.2973  0.1083
  158SAPE   H5R17618   5.937   0.618   7.181 -0.3319  0.0478 -0.2742
  158SAPE   C2617619   5.928   0.706   7.368  0.5786 -0.0418 -0.6422
  158SAPE   H6R17620   5.891   0.609   7.405  0.6156  0.1447 -0.1130
  158SAPE   C2717621   5.941   0.815   7.468 -0.3721 -0.6831  0.1173
  158SAPE   H7R17622   5.888   0.793   7.563 -1.4160  0.3653 -0.2035
  158SAPE   H7S17623   5.881   0.902   7.434  0.4715  0.2324  0.9693
  158SAPE   C2817624   6.084   0.852   7.499  0.0023 -0.3057  0.3075
  158SAPE   H8R17625   6.164   0.788   7.458  0.8453  0.7583  0.2681
  158SAPE   C2917626   6.113   0.969   7.551  0.2032  0.1669  0.0439
  158SAPE   H9R17627   6.216   0.994   7.581  0.9207 -2.1808 -0.3840
  158SAPE  C21017628   6.012   1.072   7.599  0.4992 -0.0960  0.0048
  158SAPE  H10R17629   5.960   1.036   7.691  1.7792 -1.4871  0.1933
  158SAPE  H10S17630   5.926   1.105   7.537  0.8726  3.2054  1.1052
  158SAPE  C21117631   6.088   1.201   7.630 -0.1171  0.0774 -0.1365
  158SAPE  H11R17632   6.093   1.277   7.550  0.6733 -0.5606 -0.7065
  158SAPE  C21217633   6.157   1.233   7.738  0.1206 -0.3530  0.7575
  158SAPE  H12R17634   6.212   1.328   7.747 -0.3536 -0.1255  1.2898
  158SAPE  C21317635   6.171   1.141   7.856 -0.2207 -0.4016  0.0055
  158SAPE  H13R17636   6.159   1.035   7.825  0.2684 -0.4615  0.0152
  158SAPE  H13S17637   6.090   1.160   7.929  0.2238  0.3869  0.3014
  158SAPE  C21417638   6.309   1.143   7.926  0.4638 -0.4690 -0.6080
  158SAPE  H14R17639   6.394   1.165   7.860 -0.0323 -2.0700 -1.8270
  158SAPE  C21517640   6.336   1.135   8.054 -0.4035  0.2723  0.3110
  158SAPE  H15R17641   6.435   1.106   8.092  0.0591  3.8258  1.9900
  158SAPE  C21617642   6.243   1.125   8.172 -0.3563  0.2728 -0.4655
  158SAPE  H16R17643   6.289   1.073   8.259  0.7473  0.9639 -0.6250
  158SAPE  H16S17644   6.155   1.061   8.149  0.4024 -0.8655 -0.2423
  158SAPE  C21717645   6.197   1.264   8.229 -0.2418  0.7729  0.1033
  158SAPE  H17R17646   6.122   1.289   8.151  0.1416  1.0309 -0.1847
  158SAPE  H17S17647   6.286   1.331   8.230  0.0274  0.4474 -0.8062
  158SAPE  C21817648   6.123   1.257   8.355 -0.2710 -0.5923 -0.0785
  158SAPE  H18R17649   6.189   1.222   8.438  1.3936  4.1968  0.7848
  158SAPE  H18S17650   6.028   1.201   8.349 -0.6452  0.2417 -2.0504
  158SAPE  C21917651   6.091   1.402   8.391 -0.4639  0.3229  0.0235
  158SAPE  H19R17652   6.011   1.440   8.325 -0.0368  1.6004  0.2281
  158SAPE  H19S17653   6.181   1.464   8.370  2.5845 -3.8991 -0.0192
  158SAPE  C22017654   6.061   1.429   8.538 -0.3404 -0.6050  0.6253
  158SAPE  H20R17655   5.963   1.386   8.568 -0.7845  1.3155  2.0021
  158SAPE  H20S17656   6.060   1.538   8.555 -3.3504 -0.5248  0.1794
  158SAPE  H20T17657   6.143   1.382   8.597 -0.1187  2.5130  2.9013
  158SAPE   C3317658   6.381   1.197   7.152  0.5640  0.0072  0.4974
  158SAPE   H3X17659   6.278   1.239   7.158 -0.4721 -2.5912  1.3957
  158SAPE   H3Y17660   6.445   1.280   7.113  1.5984  0.0184  2.1923
  158SAPE   C3417661   6.429   1.170   7.297  0.1477 -0.2213  0.2696
  158SAPE   H4X17662   6.520   1.113   7.267 -1.2902 -2.1789 -0.5326
  158SAPE   H4Y17663   6.357   1.098   7.342 -0.7196 -0.2940 -1.1693
  158SAPE   C3517664   6.460   1.297   7.380  0.4201 -0.2329 -0.4795
  158SAPE   H5X17665   6.364   1.341   7.415 -0.2263 -1.6767 -0.4251
  158SAPE   H5Y17666   6.511   1.370   7.313  1.0262  1.2650  1.5446
  158SAPE   C3617667   6.547   1.272   7.503 -0.0653  0.1984 -0.6996
  158SAPE   H6X17668   6.642   1.241   7.455  0.0054 -1.2363  0.3597
  158SAPE   H6Y17669   6.498   1.195   7.566  1.5707 -0.2855 -0.0150
  158SAPE   C3717670   6.556   1.402   7.579  0.4806  0.0386 -1.0122
  158SAPE   H7X17671   6.582   1.484   7.508  2.1912 -0.6264 -1.1771
  158SAPE   H7Y17672   6.457   1.428   7.622  0.7279  0.2828 -0.5928
  158SAPE   C3817673   6.667   1.411   7.688  0.1743  0.8826 -0.2538
  158SAPE   H8X17674   6.765   1.373   7.653  0.9773  0.1873  2.5447
  158SAPE   H8Y17675   6.638   1.349   7.776  2.5258  0.7472  0.4527
  158SAPE   C3917676   6.688   1.554   7.730  0.7033  0.6138  0.3600
  158SAPE   H9X17677   6.722   1.626   7.653 -2.5205  1.4879 -0.3442
  158SAPE   H9Y17678   6.770   1.544   7.804 -0.2348  0.0149  1.3431
  158SAPE  C31017679   6.571   1.602   7.808 -0.2011 -0.0317 -0.3722
  158SAPE  H10X17680   6.547   1.538   7.896 -0.8158  0.0902 -0.4488
  158SAPE  H10Y17681   6.477   1.617   7.749 -2.5731 -1.0464  2.9819
  158SAPE  C31117682   6.600   1.735   7.883 -0.2067 -0.6492 -0.2139
  158SAPE  H11X17683   6.633   1.806   7.805  1.8870 -1.7645 -0.3848
  158SAPE  H11Y17684   6.683   1.712   7.954  1.0931 -3.5715 -2.5733
  158SAPE  C31217685   6.483   1.799   7.970 -0.1813 -0.1224 -0.1351
  158SAPE  H12X17686   6.394   1.813   7.906  0.3825  2.4740 -0.4065
  158SAPE  H12Y17687   6.540   1.889   8.002 -0.5925 -0.0684  0.4487
  158SAPE  C31317688   6.441   1.718   8.094  0.2604  0.1948  0.0762
  158SAPE  H13X17689   6.461   1.776   8.187  1.3637  0.1509 -0.1193
  158SAPE  H13Y17690   6.496   1.621   8.102  1.8660  0.9520 -1.3364
  158SAPE  C31417691   6.286   1.695   8.098  0.7769 -0.1435  0.4635
  158SAPE  H14X17692   6.231   1.791   8.107 -0.4654 -0.9323  1.4251
  158SAPE  H14Y17693   6.276   1.645   8.197  1.8915 -2.2401 -0.4361
  158SAPE  C31517694   6.220   1.616   7.982  0.0425  0.5078  0.7851
  158SAPE  H15X17695   6.268   1.515   7.974  1.3442  1.2211 -0.8417
  158SAPE  H15Y17696   6.235   1.662   7.882 -3.1625  1.4006  0.6672
  158SAPE  C31617697   6.074   1.594   8.011 -0.6542 -0.3114  0.1144
  158SAPE  H16X17698   6.028   1.692   7.986 -2.2430 -1.2016 -0.5573
  158SAPE  H16Y17699   6.059   1.586   8.121  3.0295 -1.2468  0.6295
  158SAPE  C31717700   6.003   1.501   7.921  0.5727  0.0239  0.2133
  158SAPE  H17X17701   6.039   1.398   7.940  1.2489  0.3523  0.7058
  158SAPE  H17Y17702   6.030   1.512   7.814 -0.7279  0.6267 -0.0741
  158SAPE  C31817703   5.846   1.512   7.922  0.5075 -0.5657 -0.2578
  158SAPE  H18X17704   5.822   1.620   7.908  1.3590 -0.3953 -0.3835
  158SAPE  H18Y17705   5.817   1.478   8.024 -1.1776  1.0411 -0.1679
  158SAPE  H18Z17706   5.798   1.445   7.847  0.7580 -1.5258  0.4397
  159SAPE     N17707   5.045   3.750   6.430 -0.9063 -0.1046  0.0363
  159SAPE   HN117708   5.114   3.827   6.435 -1.7889  0.6419  1.1214
  159SAPE   HN217709   4.955   3.777   6.474 -2.6615 -2.6756 -1.8438
  159SAPE   HN317710   5.085   3.674   6.490 -0.5999  0.8420  1.0554
  159SAPE   C1217711   5.018   3.709   6.294  0.1621  0.2030 -0.5336
  159SAPE  H12A17712   5.108   3.740   6.236  0.3810  0.4541 -0.0572
  159SAPE  H12B17713   4.932   3.768   6.258  0.1056  0.6863  0.3902
  159SAPE   C1117714   5.002   3.556   6.285 -0.7075  0.1847 -0.4487
  159SAPE  H11A17715   4.960   3.523   6.187 -3.8272 -0.5590  1.0633
  159SAPE  H11B17716   4.923   3.527   6.358  0.5037  2.3623  1.7938
  159SAPE     P17717   5.237   3.459   6.209  0.2137  0.0894  0.2039
  159SAPE   O1317718   5.213   3.322   6.165 -0.0484  0.6374 -0.0589
  159SAPE   O1417719   5.242   3.568   6.104  0.0558 -0.3018 -0.3230
  159SAPE   O1217720   5.134   3.494   6.317 -0.0444  0.6651 -0.2714
  159SAPE   O1117721   5.378   3.464   6.279 -0.3543  0.0892  0.1015
  159SAPE    C117722   5.431   3.553   6.377 -0.2183 -0.0905 -0.1425
  159SAPE    HA17723   5.526   3.599   6.342 -0.6373  0.5431 -0.4457
  159SAPE    HB17724   5.366   3.641   6.394 -0.4912  0.1279 -2.2269
  159SAPE    C217725   5.449   3.474   6.511 -0.6356 -0.4985 -0.3932
  159SAPE    HS17726   5.532   3.399   6.503  2.2370  2.4824  0.3251
  159SAPE   O2117727   5.327   3.407   6.543 -0.0574  0.8838 -1.3487
  159SAPE   C2117728   5.219   3.477   6.578 -0.6426 -0.1660 -0.0999
  159SAPE   O2217729   5.212   3.596   6.583  0.0802 -0.3000  0.1472
  159SAPE   C2217730   5.101   3.375   6.605 -0.8724  0.0917 -0.5143
  159SAPE   H2R17731   5.029   3.374   6.520 -2.2533 -1.6600  0.6250
  159SAPE   H2S17732   5.141   3.271   6.610  1.9900  1.0615 -2.1868
  159SAPE    C317733   5.498   3.557   6.633 -0.0174  0.1451  0.5000
  159SAPE    HX17734   5.438   3.651   6.640 -1.7155 -0.8397 -0.5567
  159SAPE    HY17735   5.604   3.580   6.609  0.2569 -2.0384 -0.4705
  159SAPE   O3117736   5.484   3.486   6.757  0.0169  0.1795  0.0946
  159SAPE   C3117737   5.537   3.557   6.856 -0.1394 -0.1219  0.5280
  159SAPE   O3217738   5.590   3.665   6.843  0.3368  0.1773  0.3916
  159SAPE   C3217739   5.524   3.475   6.977 -0.2533  0.6126  0.3769
  159SAPE   H2X17740   5.580   3.379   6.968  1.3796  1.5374  0.5512
  159SAPE   H2Y17741   5.422   3.434   6.993  0.1083 -1.0943 -1.3861
  159SAPE   C2317742   5.018   3.411   6.731 -0.3838  0.2702 -0.2879
  159SAPE   H3R17743   4.925   3.350   6.723  0.0672 -0.5287  0.4378
  159SAPE   H3S17744   4.985   3.517   6.730 -0.4603  0.2423 -1.0178
  159SAPE   C2417745   5.097   3.403   6.863 -0.3778 -0.0090  0.0552
  159SAPE   H4R17746   5.173   3.483   6.868  0.2604 -0.4833 -1.5417
  159SAPE   H4S17747   5.152   3.308   6.876  3.6937  2.3306  0.5717
  159SAPE   C2517748   5.005   3.430   6.980 -0.3047 -0.6613 -0.1359
  159SAPE   H5R17749   4.934   3.512   6.964 -1.2520 -1.7570 -1.6192
  159SAPE   C2617750   5.007   3.386   7.105  0.6494 -0.0622  1.7323
  159SAPE   H6R17751   4.927   3.421   7.171  0.1116  1.1123  0.4904
  159SAPE   C2717752   5.095   3.286   7.162  0.2767  0.4280  0.2171
  159SAPE   H7R17753   5.143   3.223   7.085 -0.3697  1.4087 -1.0044
  159SAPE   H7S17754   5.034   3.216   7.224  0.9684  2.3762  3.2099
  159SAPE   C2817755   5.196   3.365   7.251  0.1233  0.6754  0.0712
  159SAPE   H8R17756   5.253   3.443   7.199 -3.0756  0.3463 -4.2484
  159SAPE   C2917757   5.208   3.347   7.385 -0.3061 -0.6010  0.5368
  159SAPE   H9R17758   5.278   3.408   7.443 -1.4055  0.6867  0.5390
  159SAPE  C21017759   5.128   3.251   7.469  0.1461 -0.6025 -0.1559
  159SAPE  H10R17760   5.202   3.188   7.523 -0.7419 -1.0080  0.6096
  159SAPE  H10S17761   5.058   3.195   7.404  0.5661 -0.2889 -0.8855
  159SAPE  C21117762   5.052   3.335   7.568 -0.7146 -0.0722  0.0884
  159SAPE  H11R17763   4.957   3.376   7.530 -0.4220 -1.2510 -1.9938
  159SAPE  C21217764   5.072   3.333   7.704  0.2168  0.4669 -0.3763
  159SAPE  H12R17765   5.007   3.392   7.771 -1.4776 -2.9605  1.1753
  159SAPE  C21317766   5.180   3.248   7.774  0.2050 -0.1818  0.2295
  159SAPE  H13R17767   5.186   3.287   7.877 -0.4410 -1.8182  0.9144
  159SAPE  H13S17768   5.283   3.246   7.731  0.8941 -1.6864  1.8538
  159SAPE  C21417769   5.131   3.110   7.792 -0.1279  0.0691 -0.2490
  159SAPE  H14R17770   5.137   3.048   7.701  2.2084  0.0875 -0.1265
  159SAPE  C21517771   5.082   3.053   7.902 -0.5258 -0.1749 -0.3945
  159SAPE  H15R17772   5.060   2.945   7.897  0.0537 -0.3151 -0.0396
  159SAPE  C21617773   5.078   3.115   8.033  0.2729 -0.5210 -0.3834
  159SAPE  H16R17774   5.056   3.223   8.025  2.5269 -0.0679 -0.7272
  159SAPE  H16S17775   5.183   3.130   8.065 -0.0001 -2.8654  1.8081
  159SAPE  C21717776   5.002   3.022   8.127 -0.3095  0.0133  0.2898
  159SAPE  H17R17777   5.048   2.922   8.117  2.8711  1.3654  0.5493
  159SAPE  H17S17778   4.896   3.022   8.094  0.1886  1.7260 -1.3776
  159SAPE  C21817779   5.019   3.058   8.277  0.0460 -0.2310 -0.2931
  159SAPE  H18R17780   5.003   3.167   8.288  1.8925 -0.0926  1.3902
  159SAPE  H18S17781   5.126   3.050   8.307 -0.1435  0.3337  0.5473
  159SAPE  C21917782   4.931   2.975   8.365  0.3574  0.3347 -0.3104
  159SAPE  H19R17783   4.985   2.879   8.371  3.2877  2.0256  1.5383
  159SAPE  H19S17784   4.833   2.949   8.318 -0.8160  0.6973  1.8869
  159SAPE  C22017785   4.909   3.032   8.507 -0.2531 -0.4922  0.0772
  159SAPE  H20R17786   4.876   3.137   8.499 -1.8498 -1.1753 -2.7623
  159SAPE  H20S17787   5.005   3.026   8.564  0.7085  3.0481 -1.0887
  159SAPE  H20T17788   4.831   2.978   8.565 -1.3245  0.2697 -0.6439
  159SAPE   C3317789   5.585   3.541   7.105 -0.8230 -0.2612 -0.1646
  159SAPE   H3X17790   5.530   3.635   7.124 -1.3029 -0.7099  0.7339
  159SAPE   H3Y17791   5.689   3.572   7.081 -0.6302 -0.8043 -0.0343
  159SAPE   C3417792   5.586   3.453   7.229 -0.0913 -0.6623  0.4337
  159SAPE   H4X17793   5.679   3.393   7.225  0.9129  0.9713 -3.1904
  159SAPE   H4Y17794   5.503   3.379   7.218 -0.1357 -0.7398  1.2596
  159SAPE   C3517795   5.569   3.534   7.352 -0.3700  0.3900  0.5069
  159SAPE   H5X17796   5.463   3.567   7.347 -0.8863 -1.5463 -3.6165
  159SAPE   H5Y17797   5.632   3.624   7.361  1.1248 -0.4257 -1.4527
  159SAPE   C3617798   5.572   3.443   7.473  0.4634 -0.4741 -0.3017
  159SAPE   H6X17799   5.673   3.439   7.517  0.3405 -1.5669 -0.1109
  159SAPE   H6Y17800   5.532   3.343   7.445  0.0967 -0.3934 -0.0654
  159SAPE   C3717801   5.502   3.509   7.594  0.3999 -0.6082 -0.1629
  159SAPE   H7X17802   5.393   3.508   7.571  0.7891 -1.0538 -2.0959
  159SAPE   H7Y17803   5.540   3.614   7.593 -1.2341 -0.0073 -1.8306
  159SAPE   C3817804   5.535   3.457   7.729 -0.3246  0.3200 -0.4387
  159SAPE   H8X17805   5.635   3.484   7.769 -0.2314  1.2949 -1.3006
  159SAPE   H8Y17806   5.535   3.346   7.730 -0.1515  0.3083  2.7207
  159SAPE   C3917807   5.441   3.502   7.844  0.2932  0.4378  0.3969
  159SAPE   H9X17808   5.338   3.492   7.802  0.0369 -1.4949  1.4656
  159SAPE   H9Y17809   5.463   3.609   7.865 -1.2099  1.4566 -2.8008
  159SAPE  C31017810   5.459   3.429   7.975 -0.1738  0.6609  0.3482
  159SAPE  H10X17811   5.565   3.398   7.989 -0.2734  0.5603  0.8844
  159SAPE  H10Y17812   5.402   3.335   7.956  1.4759 -0.4923  1.0561
  159SAPE  C31117813   5.383   3.481   8.100  0.2149  0.8501 -0.2708
  159SAPE  H11X17814   5.281   3.504   8.063 -0.5071 -1.0738  0.4593
  159SAPE  H11Y17815   5.420   3.581   8.132 -0.7721  0.7375  1.3130
  159SAPE  C31217816   5.373   3.385   8.217 -0.0388 -0.4696 -0.6171
  159SAPE  H12X17817   5.472   3.372   8.265 -1.1018 -0.9385  1.5397
  159SAPE  H12Y17818   5.328   3.288   8.186 -0.0287 -0.4488 -0.6989
  159SAPE  C31317819   5.274   3.439   8.319 -0.2923 -0.2375 -0.2289
  159SAPE  H13X17820   5.180   3.468   8.268 -0.8991  0.1806  1.0957
  159SAPE  H13Y17821   5.309   3.533   8.367 -0.8437 -0.6757  1.0468
  159SAPE  C31417822   5.257   3.345   8.444 -0.0244  0.0671  0.4542
  159SAPE  H14X17823   5.358   3.305   8.469  0.5385  0.5340 -1.0074
  159SAPE  H14Y17824   5.196   3.259   8.409 -1.2204  0.7462  0.8410
  159SAPE  C31517825   5.195   3.428   8.561 -0.1819  0.4415  0.3790
  159SAPE  H15X17826   5.104   3.475   8.518 -0.3983 -0.2335  0.0871
  159SAPE  H15Y17827   5.275   3.496   8.595 -0.9742  1.8192 -0.4603
  159SAPE  C31617828   5.158   3.361   8.695  0.6352 -0.1665 -0.5128
  159SAPE  H16X17829   5.248   3.307   8.733  0.5565  0.3082  0.3621
  159SAPE  H16Y17830   5.071   3.295   8.675 -1.4799  2.2188  0.4373
  159SAPE  C31717831   5.117   3.467   8.801  0.3443 -0.2848  0.4188
  159SAPE  H17X17832   5.017   3.506   8.771  1.0183  0.6278 -0.6483
  159SAPE  H17Y17833   5.195   3.546   8.806 -0.8438  0.9809 -0.7321
  159SAPE  C31817834   5.090   3.396   8.933 -0.0151  0.4247 -0.4412
  159SAPE  H18X17835   5.073   3.467   9.017  0.3977 -0.4536  0.4091
  159SAPE  H18Y17836   5.166   3.320   8.963  0.7190  1.3168 -0.0424
  159SAPE  H18Z17837   4.990   3.346   8.932  0.1967 -0.0536  0.7837
  160SAPE     N17838   6.047   1.710   6.719 -0.3492  0.4177  0.3421
  160SAPE   HN117839   6.127   1.697   6.784 -0.0616  0.3536 -0.0255
  160SAPE   HN217840   6.064   1.806   6.684  1.7114 -0.3221 -0.7553
  160SAPE   HN317841   5.953   1.689   6.758 -0.8309 -0.8854 -1.4534
  160SAPE   C1217842   6.069   1.625   6.601  0.1409  0.2782  1.1172
  160SAPE  H12A17843   5.985   1.645   6.532  1.1390 -1.9369 -0.8290
  160SAPE  H12B17844   6.090   1.518   6.626  0.5476  0.3230  0.9654
  160SAPE   C1117845   6.184   1.685   6.516 -0.0269  0.7024  0.4803
  160SAPE  H11A17846   6.145   1.783   6.482  0.9576  1.2322  0.8696
  160SAPE  H11B17847   6.200   1.629   6.422  1.5148  0.3567  0.9381
  160SAPE     P17848   6.422   1.786   6.519  0.0341  0.3187 -0.2879
  160SAPE   O1317849   6.524   1.694   6.462  0.3422 -0.0592  0.5441
  160SAPE   O1417850   6.365   1.889   6.427 -0.2425 -0.5159 -0.0095
  160SAPE   O1217851   6.310   1.699   6.587  0.0069 -0.6781  0.3286
  160SAPE   O1117852   6.499   1.860   6.637 -0.4438  0.1095 -0.5114
  160SAPE    C117853   6.536   1.790   6.760  0.5388  0.1097 -0.1110
  160SAPE    HA17854   6.562   1.685   6.734  0.5228 -0.1303  0.8256
  160SAPE    HB17855   6.634   1.829   6.798  1.7578 -0.6210 -2.4194
  160SAPE    C217856   6.435   1.788   6.880 -0.3270 -0.5644  0.4337
  160SAPE    HS17857   6.350   1.725   6.845  0.0073  1.1209 -3.6266
  160SAPE   O2117858   6.391   1.925   6.896 -0.3632  0.3881  0.1799
  160SAPE   C2117859   6.267   1.947   6.927 -0.7333 -0.2315  0.3762
  160SAPE   O2217860   6.175   1.867   6.923  0.3804  0.6432 -0.3410
  160SAPE   C2217861   6.243   2.088   6.980  0.3340 -0.3195 -0.7744
  160SAPE   H2R17862   6.338   2.147   6.982  0.7705 -1.0653  1.3964
  160SAPE   H2S17863   6.179   2.138   6.905 -0.2128 -0.2080 -0.2306
  160SAPE    C317864   6.490   1.746   7.016  0.8385 -0.6204 -0.1923
  160SAPE    HX17865   6.588   1.797   7.023 -0.2262  1.9937 -3.1603
  160SAPE    HY17866   6.531   1.643   7.006  2.1205  0.0387 -2.0264
  160SAPE   O3117867   6.397   1.768   7.126 -0.4520 -0.2120  0.4672
  160SAPE   C3117868   6.306   1.673   7.128 -0.0063  0.1683 -0.2560
  160SAPE   O3217869   6.306   1.565   7.076 -0.2755 -0.2746  1.1090
  160SAPE   C3217870   6.194   1.718   7.223  0.1750 -0.2808  0.1277
  160SAPE   H2X17871   6.116   1.766   7.160  0.7430  1.6230  0.8093
  160SAPE   H2Y17872   6.242   1.794   7.289 -0.1549  1.9149 -2.0861
  160SAPE   C2317873   6.171   2.074   7.115 -0.1639  0.3541  0.4078
  160SAPE   H3R17874   6.196   1.973   7.154 -2.9139  0.3840  2.3425
  160SAPE   H3S17875   6.060   2.074   7.107 -0.1387 -0.5661  0.0482
  160SAPE   C2417876   6.209   2.195   7.210  0.6214  0.2203 -0.4651
  160SAPE   H4R17877   6.184   2.295   7.168  2.2739  0.8681  0.0358
  160SAPE   H4S17878   6.320   2.197   7.211  0.6135  0.9224  0.6409
  160SAPE   C2517879   6.146   2.181   7.351  0.0704 -0.3746  0.5381
  160SAPE   H5R17880   6.077   2.098   7.370 -1.3770  0.7276  0.1873
  160SAPE   C2617881   6.158   2.276   7.450  0.8746  0.3930 -0.1752
  160SAPE   H6R17882   6.122   2.254   7.551 -0.6530  0.8038 -0.6258
  160SAPE   C2717883   6.240   2.401   7.449 -0.4150 -0.3824  0.3620
  160SAPE   H7R17884   6.176   2.488   7.473 -0.9379 -0.6981  0.1199
  160SAPE   H7S17885   6.290   2.408   7.350  0.8174 -1.2422  0.9068
  160SAPE   C2817886   6.356   2.387   7.540 -0.0243  0.2893  0.5820
  160SAPE   H8R17887   6.443   2.339   7.492 -1.5908 -0.7194 -1.3520
  160SAPE   C2917888   6.364   2.395   7.673  0.1817  0.0360  0.2001
  160SAPE   H9R17889   6.460   2.392   7.728 -1.4384  0.5692  3.1789
  160SAPE  C21017890   6.254   2.428   7.775  0.6051 -0.1507 -0.3489
  160SAPE  H10R17891   6.191   2.338   7.791 -1.6116  1.2369 -1.1237
  160SAPE  H10S17892   6.184   2.498   7.725  1.3182 -0.6592 -2.1128
  160SAPE  C21117893   6.310   2.488   7.899  0.3458  0.0667  0.8390
  160SAPE  H11R17894   6.362   2.585   7.890  2.4217 -1.2947 -2.8727
  160SAPE  C21217895   6.286   2.443   8.024  0.2141  0.6391  0.5545
  160SAPE  H12R17896   6.328   2.509   8.101  0.1788  0.8767  0.3718
  160SAPE  C21317897   6.202   2.320   8.059  0.7149  0.2894 -0.2682
  160SAPE  H13R17898   6.127   2.305   7.978  0.2219  2.5962 -0.2807
  160SAPE  H13S17899   6.144   2.352   8.148 -1.8229  1.6872 -2.3294
  160SAPE  C21417900   6.288   2.201   8.093 -0.1731  0.4894  0.6802
  160SAPE  H14R17901   6.386   2.191   8.044  0.7009  2.9422  1.8212
  160SAPE  C21517902   6.240   2.095   8.159 -0.1524 -0.5437  0.2919
  160SAPE  H15R17903   6.313   2.015   8.181 -1.4565 -1.6201  0.7300
  160SAPE  C21617904   6.099   2.073   8.208  0.2926 -0.6979 -0.2239
  160SAPE  H16R17905   6.070   1.969   8.182 -0.0161 -0.0270 -2.6882
  160SAPE  H16S17906   6.024   2.138   8.160  0.9825  0.4539  0.2450
  160SAPE  C21717907   6.074   2.096   8.361  0.0963 -0.2376  0.1639
  160SAPE  H17R17908   5.970   2.061   8.374  0.5343 -1.3711  0.7942
  160SAPE  H17S17909   6.068   2.206   8.376 -0.9491 -0.2018 -0.5020
  160SAPE  C21817910   6.178   2.031   8.455 -0.2563  0.3097  0.2412
  160SAPE  H18R17911   6.149   2.037   8.562  2.0455 -1.9291  1.0293
  160SAPE  H18S17912   6.278   2.078   8.437 -0.3808 -0.1705 -1.8733
  160SAPE  C21917913   6.183   1.879   8.427 -0.8058 -0.2095 -0.1542
  160SAPE  H19R17914   6.230   1.863   8.327 -2.1227  0.6327 -0.9289
  160SAPE  H19S17915   6.080   1.840   8.427 -1.0898  0.5267 -0.3394
  160SAPE  C22017916   6.252   1.796   8.540  0.0929  0.5867 -0.1235
  160SAPE  H20R17917   6.194   1.807   8.634  0.8964 -0.3723  0.4919
  160SAPE  H20S17918   6.354   1.835   8.556 -0.0310  0.9138 -0.1203
  160SAPE  H20T17919   6.255   1.688   8.512  2.3563 -0.5894  4.2722
  160SAPE   C3317920   6.128   1.606   7.313  0.1131 -0.3139 -0.2024
  160SAPE   H3X17921   6.059   1.661   7.380 -2.1291 -4.2807  0.9116
  160SAPE   H3Y17922   6.206   1.553   7.373  0.2414 -0.5970 -0.6171
  160SAPE   C3417923   6.037   1.504   7.238  0.3722  0.2568  0.4245
  160SAPE   H4X17924   6.087   1.434   7.168 -0.3955  0.3659 -0.2365
  160SAPE   H4Y17925   5.974   1.567   7.171  2.0951  1.5806  0.0129
  160SAPE   C3517926   5.948   1.422   7.332  0.4066 -0.8383  0.5752
  160SAPE   H5X17927   5.923   1.492   7.415  0.5458  0.6264 -0.5917
  160SAPE   H5Y17928   6.004   1.332   7.365 -1.7323 -1.9359  1.3532
  160SAPE   C3617929   5.827   1.367   7.257 -0.7329  0.1174  0.0162
  160SAPE   H6X17930   5.860   1.314   7.165  1.5488 -1.0445  1.4418
  160SAPE   H6Y17931   5.761   1.447   7.220 -0.3004  0.5494  0.1640
  160SAPE   C3717932   5.748   1.259   7.333 -0.4742 -0.2708 -0.0127
  160SAPE   H7X17933   5.813   1.179   7.373  0.3505  1.0670  1.3914
  160SAPE   H7Y17934   5.675   1.225   7.257 -0.3571  1.9848 -1.1779
  160SAPE   C3817935   5.661   1.318   7.446 -0.3111  0.8573 -0.4502
  160SAPE   H8X17936   5.615   1.407   7.399 -2.3671 -1.2718 -2.5836
  160SAPE   H8Y17937   5.733   1.366   7.516  1.6550  0.3540 -2.1084
  160SAPE   C3917938   5.556   1.218   7.509  0.2942 -0.4467  0.1338
  160SAPE   H9X17939   5.620   1.136   7.549 -0.7464 -0.2124  2.3470
  160SAPE   H9Y17940   5.493   1.169   7.432  1.4027  1.1474 -1.8094
  160SAPE  C31017941   5.479   1.272   7.631  1.2971  0.1654  0.4045
  160SAPE  H10X17942   5.411   1.352   7.595  0.3852 -1.1877 -0.9224
  160SAPE  H10Y17943   5.548   1.330   7.697  1.0090  2.1821 -1.0063
  160SAPE  C31117944   5.411   1.166   7.719  0.3748  0.0193 -0.5996
  160SAPE  H11X17945   5.493   1.093   7.733  0.6934  0.0369 -2.2654
  160SAPE  H11Y17946   5.334   1.114   7.658  1.5796 -0.0651 -2.0811
  160SAPE  C31217947   5.356   1.206   7.850  0.6655  0.2569  0.1153
  160SAPE  H12X17948   5.301   1.123   7.898  2.2178  0.1257  1.7467
  160SAPE  H12Y17949   5.299   1.301   7.843  1.8527  0.8717 -1.4177
  160SAPE  C31317950   5.465   1.233   7.953 -0.1335  0.3452 -1.1803
  160SAPE  H13X17951   5.527   1.323   7.931  1.4527 -0.7479 -1.3109
  160SAPE  H13Y17952   5.544   1.155   7.944  0.2596  0.5429  0.3267
  160SAPE  C31417953   5.428   1.238   8.106  0.5602 -0.6028  0.6517
  160SAPE  H14X17954   5.341   1.306   8.119  1.2254  0.6383 -1.2662
  160SAPE  H14Y17955   5.517   1.274   8.163  0.3906  0.3030  0.3425
  160SAPE  C31517956   5.394   1.097   8.155 -0.6638  0.0560 -0.0446
  160SAPE  H15X17957   5.311   1.059   8.092 -2.1852  2.6448  0.3213
  160SAPE  H15Y17958   5.358   1.104   8.259 -0.0063  1.0667  0.1203
  160SAPE  C31617959   5.509   0.986   8.149 -0.0709 -0.4449  0.0431
  160SAPE  H16X17960   5.604   1.028   8.188 -0.8359  1.6977 -0.3025
  160SAPE  H16Y17961   5.522   0.952   8.044 -0.9747 -1.1314  0.1477
  160SAPE  C31717962   5.486   0.862   8.233 -0.3296 -0.0607 -0.0374
  160SAPE  H17X17963   5.476   0.887   8.341  1.3907 -0.2892  0.1897
  160SAPE  H17Y17964   5.580   0.802   8.227 -0.0191  0.4105  0.1140
  160SAPE  C31817965   5.365   0.782   8.182 -0.1781 -0.2631  0.1082
  160SAPE  H18X17966   5.274   0.844   8.178  0.0756  0.1757  0.9004
  160SAPE  H18Y17967   5.334   0.699   8.250  1.2388  1.9686  3.6434
  160SAPE  H18Z17968   5.388   0.747   8.080  0.8302 -0.7390  0.4908
  161SOPE     N17969   4.860   4.499  10.763 -0.2531 -0.6680 -0.2502
  161SOPE   HN117970   4.851   4.575  10.691  0.3860 -0.0201  0.3419
  161SOPE   HN217971   4.963   4.484  10.773  0.5831  2.3116 -3.0787
  161SOPE   HN317972   4.810   4.413  10.735 -1.2254 -0.4323  0.7669
  161SOPE   C1217973   4.792   4.528  10.892 -0.4609  0.1001 -0.2310
  161SOPE  H12A17974   4.837   4.613  10.947  0.1763 -1.6075  1.9714
  161SOPE  H12B17975   4.807   4.441  10.959  2.9514  1.2524  0.5916
  161SOPE   C1117976   4.648   4.550  10.857 -0.4027 -0.4329  0.1657
  161SOPE  H11A17977   4.598   4.576  10.953  4.0809 -1.5695  2.9420
  161SOPE  H11B17978   4.598   4.454  10.833 -0.1522 -0.5708  0.1982
  161SOPE     P17979   4.482   4.672  10.699 -0.1473 -0.0081 -0.7537
  161SOPE   O1317980   4.410   4.798  10.730 -0.0572 -0.2000 -0.1003
  161SOPE   O1417981   4.405   4.548  10.714  0.2473 -0.2679  0.1211
  161SOPE   O1217982   4.617   4.663  10.773  0.3715  0.0693 -0.0401
  161SOPE   O1117983   4.542   4.674  10.548  0.1205 -0.1398  0.1963
  161SOPE    C117984   4.563   4.799  10.485  0.6724 -0.2486  0.3606
  161SOPE    HA17985   4.638   4.853  10.547 -0.1839 -0.7018  1.8255
  161SOPE    HB17986   4.480   4.873  10.483  1.1198  0.2244 -1.4925
  161SOPE    C217987   4.588   4.792  10.333  0.1844 -0.3211 -0.0633
  161SOPE    HS17988   4.498   4.745  10.287 -0.3603 -0.0066  0.6808
  161SOPE   O2117989   4.704   4.710  10.308 -0.7238 -0.0950  0.4225
  161SOPE   C2117990   4.679   4.577  10.303 -0.1756 -0.1666  0.5244
  161SOPE   O2217991   4.572   4.531  10.273  0.0773  0.5618  0.3538
  161SOPE   C2217992   4.811   4.499  10.301 -0.0311 -0.4273  0.1627
  161SOPE   H2R17993   4.794   4.391  10.283  1.4270 -0.6901  0.2496
  161SOPE   H2S17994   4.854   4.504  10.404 -0.1720  2.1072  0.1356
  161SOPE    C317995   4.584   4.943  10.285 -0.3822  0.2204  1.0962
  161SOPE    HX17996   4.661   4.994  10.347 -0.3333  0.8419  0.5421
  161SOPE    HY17997   4.488   4.998  10.298 -1.4561 -1.7504  1.6464
  161SOPE   O3117998   4.614   4.945  10.140 -0.1657  0.1773 -0.2689
  161SOPE   C3117999   4.743   4.952  10.110  0.6266 -0.3602  0.1708
  161SOPE   O3218000   4.830   4.992  10.189  0.3242  0.0548  0.8544
  161SOPE   C3218001   4.763   4.921   9.961  0.4087  0.3188  0.8441
  161SOPE   H2X18002   4.704   4.984   9.891 -1.0458 -0.5491  1.2635
  161SOPE   H2Y18003   4.742   4.815   9.936  0.1305  0.2332  1.4353
  161SOPE   C2318004   4.917   4.555  10.200  0.2303  0.3621  0.2679
  161SOPE   H3R18005   5.012   4.498  10.206  1.2407  2.0446  0.6503
  161SOPE   H3S18006   4.939   4.660  10.230  1.0125  0.3792 -0.3407
  161SOPE   C2418007   4.862   4.554  10.059 -0.0665 -0.5627 -0.6276
  161SOPE   H4R18008   4.768   4.612  10.049  1.0225  1.8430  2.2115
  161SOPE   H4S18009   4.942   4.611  10.007 -0.6683  2.6818  1.8320
  161SOPE   C2518010   4.850   4.409   9.996  0.8239 -0.1779  0.2302
  161SOPE   H5R18011   4.942   4.356  10.027  0.1379 -1.3265  0.3477
  161SOPE   H5S18012   4.767   4.351  10.043  0.8590 -0.6995 -0.3451
  161SOPE   C2618013   4.831   4.405   9.842  0.2217  0.2020  0.1790
  161SOPE   H6R18014   4.732   4.449   9.820  0.5345  1.2933  0.9009
  161SOPE   H6S18015   4.914   4.469   9.804 -0.4218  0.6637 -0.4450
  161SOPE   C2718016   4.827   4.269   9.778 -0.5476 -0.1485  0.9363
  161SOPE   H7R18017   4.813   4.287   9.669  0.6384 -1.5999  0.5263
  161SOPE   H7S18018   4.918   4.208   9.800  0.4029  0.9221  0.0414
  161SOPE   C2818019   4.704   4.174   9.817  1.2043 -0.2519 -0.4893
  161SOPE   H8R18020   4.706   4.079   9.760  1.5262 -0.6381  0.1654
  161SOPE   H8S18021   4.730   4.138   9.918  2.1705  0.9635 -0.2905
  161SOPE   C2918022   4.564   4.235   9.827  0.3233 -0.7075 -0.3445
  161SOPE   H9118023   4.556   4.323   9.893  1.0439 -0.3256 -0.7460
  161SOPE  C21018024   4.459   4.218   9.746 -0.3015 -0.0937  0.7360
  161SOPE  H10118025   4.363   4.270   9.762  0.1597  1.1745 -0.5212
  161SOPE  C21118026   4.452   4.135   9.620  0.4457  0.2792 -0.1830
  161SOPE  H11R18027   4.355   4.083   9.606  0.4611  0.8939 -2.8041
  161SOPE  H11S18028   4.532   4.058   9.619  0.8955  0.7450 -0.3245
  161SOPE  C21218029   4.465   4.228   9.496 -0.2546  0.6185 -0.0776
  161SOPE  H12R18030   4.557   4.289   9.506  2.0940 -2.7708 -0.0238
  161SOPE  H12S18031   4.389   4.308   9.490  0.5099  1.2940 -0.7930
  161SOPE  C21318032   4.475   4.150   9.357  0.1702  0.0885 -0.3535
  161SOPE  H13R18033   4.377   4.100   9.344 -0.4569  0.5643  2.2239
  161SOPE  H13S18034   4.540   4.060   9.356 -0.5882 -0.4635 -0.4503
  161SOPE  C21418035   4.513   4.243   9.240 -0.0501  0.5400  0.0956
  161SOPE  H14R18036   4.613   4.286   9.260 -0.1337 -0.2567  2.4068
  161SOPE  H14S18037   4.445   4.331   9.238  0.6483  1.1196  1.1601
  161SOPE  C21518038   4.518   4.174   9.102 -0.5363 -0.0598  0.0068
  161SOPE  H15R18039   4.423   4.143   9.053  0.1171 -1.5156 -0.3759
  161SOPE  H15S18040   4.576   4.081   9.119 -1.6967 -0.7119  0.4306
  161SOPE  C21618041   4.592   4.257   8.999  0.3100  0.2734  0.2126
  161SOPE  H16R18042   4.594   4.194   8.908 -1.5776 -0.1171  0.4244
  161SOPE  H16S18043   4.698   4.286   9.016  0.2160  0.4428  0.5183
  161SOPE  C21718044   4.524   4.387   8.966  0.0649  0.0500 -0.3591
  161SOPE  H17R18045   4.577   4.459   8.900  0.1537  1.3384  1.0858
  161SOPE  H17S18046   4.517   4.431   9.068 -1.6052 -0.5101 -0.2220
  161SOPE  C21818047   4.379   4.368   8.909  0.6422  0.1529 -0.1733
  161SOPE  H18R18048   4.318   4.325   8.991  1.5770 -2.4628 -0.7761
  161SOPE  H18S18049   4.369   4.330   8.805 -0.5505 -1.8821  0.6422
  161SOPE  H18T18050   4.334   4.469   8.907  1.7839  0.6652 -0.2170
  161SOPE   C3318051   4.917   4.916   9.921 -0.2858 -0.5992  0.1356
  161SOPE   H3X18052   4.985   4.864   9.990 -0.6821  0.8413  1.6444
  161SOPE   H3Y18053   4.954   5.020   9.905 -1.4972 -0.3088 -0.9212
  161SOPE   C3418054   4.939   4.849   9.784 -0.1028  0.0527  0.3697
  161SOPE   H4X18055   4.866   4.900   9.717  1.0940  0.9380 -0.2854
  161SOPE   H4Y18056   4.911   4.743   9.800 -2.3724  0.8550  2.0675
  161SOPE   C3518057   5.092   4.859   9.744  0.1544  0.9445  0.1729
  161SOPE   H5X18058   5.148   4.817   9.831 -0.9624  2.4952  1.6745
  161SOPE   H5Y18059   5.109   4.969   9.735  0.1016  1.0124  0.8513
  161SOPE   C3618060   5.127   4.783   9.614 -0.1441  0.6654  0.4028
  161SOPE   H6X18061   5.232   4.799   9.581  0.0613  0.2346  0.8400
  161SOPE   H6Y18062   5.068   4.838   9.537 -0.8438  1.3892  1.4543
  161SOPE   C3718063   5.106   4.631   9.620  0.0797  0.1153  0.3270
  161SOPE   H7X18064   5.000   4.611   9.647 -0.6027  3.4378  0.3867
  161SOPE   H7Y18065   5.169   4.594   9.704  1.9321 -1.6743 -1.7720
  161SOPE   C3818066   5.148   4.562   9.488  0.5074  0.2937 -0.5801
  161SOPE   H8X18067   5.258   4.576   9.478  0.8530 -0.9966  1.1574
  161SOPE   H8Y18068   5.107   4.624   9.406  0.4824 -0.5005 -1.1677
  161SOPE   C3918069   5.100   4.422   9.478  0.7731  0.7710  0.3725
  161SOPE   H9X18070   4.990   4.412   9.475  0.7097  1.7272 -3.3448
  161SOPE   H9Y18071   5.147   4.358   9.556 -1.7876 -2.9451 -0.9681
  161SOPE  C31018072   5.156   4.361   9.336 -0.1820 -0.1750  0.8149
  161SOPE  H10X18073   5.143   4.251   9.348 -1.1477 -0.2347 -0.6508
  161SOPE  H10Y18074   5.263   4.393   9.341 -0.6682  1.6671 -0.3019
  161SOPE  C31118075   5.104   4.434   9.211 -0.0195  0.0129 -0.5096
  161SOPE  H11X18076   5.155   4.533   9.205  1.5207 -0.8275 -1.4651
  161SOPE  H11Y18077   4.995   4.458   9.214  0.3309  1.5908  0.3166
  161SOPE  C31218078   5.136   4.351   9.090 -0.2349  0.3173  0.1412
  161SOPE  H12X18079   5.103   4.246   9.109 -0.2956 -0.0215 -1.7082
  161SOPE  H12Y18080   5.246   4.361   9.076 -0.3242  2.2855  0.7846
  161SOPE  C31318081   5.066   4.382   8.958 -0.4372 -0.0141  0.2694
  161SOPE  H13X18082   5.096   4.487   8.938 -0.5611  0.1245  0.7952
  161SOPE  H13Y18083   4.959   4.368   8.986 -0.7866  0.8281 -0.6123
  161SOPE  C31418084   5.099   4.276   8.844  0.4460  0.4254  0.1739
  161SOPE  H14X18085   5.063   4.180   8.888  1.2017  1.6241  3.5698
  161SOPE  H14Y18086   5.209   4.270   8.828 -0.1148 -0.0479 -4.0806
  161SOPE  C31518087   5.017   4.281   8.706 -0.0606 -0.2795  0.1591
  161SOPE  H15X18088   5.054   4.220   8.620  0.4989  1.0450 -0.5589
  161SOPE  H15Y18089   5.030   4.389   8.687  1.2192 -0.5291 -0.4510
  161SOPE  C31618090   4.864   4.262   8.703  0.4896  0.3797 -0.1493
  161SOPE  H16X18091   4.805   4.312   8.782 -1.3350 -2.7667  0.5923
  161SOPE  H16Y18092   4.845   4.152   8.700  0.6575  0.3914 -3.3140
  161SOPE  C31718093   4.817   4.321   8.572  0.3400  0.4413  0.4926
  161SOPE  H17X18094   4.864   4.268   8.486  1.8938  1.8352  0.4535
  161SOPE  H17Y18095   4.837   4.430   8.559  0.4471  0.0978 -2.5927
  161SOPE  C31818096   4.667   4.296   8.542  0.8410  0.3034  0.0212
  161SOPE  H18X18097   4.604   4.361   8.606 -2.0304 -2.5455  0.2435
  161SOPE  H18Y18098   4.634   4.190   8.553 -1.3221  1.1121  1.6192
  161SOPE  H18Z18099   4.655   4.330   8.437  0.7829  0.1225 -0.0325
  162SOPE     N18100   2.702   3.312  10.893 -0.1587  0.5036 -0.1305
  162SOPE   HN118101   2.696   3.389  10.824  1.9600  0.6044 -0.2325
  162SOPE   HN218102   2.683   3.222  10.845  0.1562 -0.3628  1.3427
  162SOPE   HN318103   2.639   3.319  10.976  1.1931  1.0332  0.8856
  162SOPE   C1218104   2.845   3.302  10.938  0.7058 -0.4787  0.0952
  162SOPE  H12A18105   2.878   3.196  10.930  1.3404 -0.1543 -1.7684
  162SOPE  H12B18106   2.848   3.345  11.041 -2.1666  2.7395 -1.0658
  162SOPE   C1118107   2.927   3.384  10.839  0.0489 -0.0038  0.1228
  162SOPE  H11A18108   2.908   3.343  10.737 -0.1859 -1.1245  0.6146
  162SOPE  H11B18109   3.033   3.366  10.867  2.1196  4.0735 -4.2401
  162SOPE     P18110   2.948   3.635  10.922  0.0871  0.0599 -0.1115
  162SOPE   O1318111   3.083   3.602  10.963  0.3002  0.1618  0.6885
  162SOPE   O1418112   2.854   3.665  11.033  0.2903  0.5938  0.4202
  162SOPE   O1218113   2.891   3.515  10.841  0.6061  0.5367  0.1130
  162SOPE   O1118114   2.948   3.751  10.818 -0.3922  0.1151 -0.6266
  162SOPE    C118115   2.827   3.809  10.768 -0.0579  0.9447 -0.7473
  162SOPE    HA18116   2.852   3.913  10.740 -3.0372  1.6133 -1.0767
  162SOPE    HB18117   2.748   3.812  10.846 -0.2522 -1.8416 -0.7560
  162SOPE    C218118   2.778   3.741  10.639 -0.1854  0.4747 -0.5344
  162SOPE    HS18119   2.790   3.633  10.660  0.5847  0.8239  0.9084
  162SOPE   O2118120   2.868   3.780  10.534 -0.0217  0.7938 -0.2373
  162SOPE   C2118121   2.907   3.683  10.447 -0.6914  0.2358  0.2559
  162SOPE   O2218122   2.864   3.568  10.446 -0.6443 -0.0343 -0.6556
  162SOPE   C2218123   3.017   3.741  10.361 -0.5066  0.2227  0.5855
  162SOPE   H2R18124   3.046   3.840  10.405 -1.0316 -0.1630  1.8161
  162SOPE   H2S18125   2.974   3.765  10.262 -0.4982  1.3860  0.8537
  162SOPE    C318126   2.633   3.769  10.607 -0.1081 -0.5546 -0.6833
  162SOPE    HX18127   2.628   3.876  10.635 -0.2757  0.1976 -3.4833
  162SOPE    HY18128   2.549   3.724  10.666 -0.4142  3.8531  2.5098
  162SOPE   O3118129   2.599   3.758  10.468 -0.5072 -0.4004 -0.3441
  162SOPE   C3118130   2.572   3.632  10.430 -0.0450 -0.3804  0.0411
  162SOPE   O3218131   2.549   3.542  10.506 -0.6800  0.2119  0.1458
  162SOPE   C3218132   2.561   3.621  10.277 -0.0838 -0.2191 -0.2525
  162SOPE   H2X18133   2.606   3.712  10.234  0.6429 -0.2352  0.4711
  162SOPE   H2Y18134   2.454   3.645  10.256  0.7895  3.3810 -0.9261
  162SOPE   C2318135   3.142   3.650  10.351  0.4301 -0.1765 -0.2998
  162SOPE   H3R18136   3.121   3.546  10.319 -0.3185 -0.9919  2.7020
  162SOPE   H3S18137   3.190   3.643  10.451 -0.9385 -0.2123  0.3689
  162SOPE   C2418138   3.243   3.714  10.259  0.5916  0.0090  0.4824
  162SOPE   H4R18139   3.251   3.823  10.274  2.0087 -0.3937  2.8952
  162SOPE   H4S18140   3.342   3.666  10.276  0.4542 -0.5731 -0.3276
  162SOPE   C2518141   3.208   3.692  10.121  0.7141 -0.0347 -1.0391
  162SOPE   H5R18142   3.160   3.592  10.118  1.4069 -0.4114  0.2750
  162SOPE   H5S18143   3.136   3.769  10.087 -0.1637  0.3060  1.5429
  162SOPE   C2618144   3.327   3.677  10.036 -1.2670  0.0512  0.7499
  162SOPE   H6R18145   3.382   3.773  10.026 -0.1238 -0.4671  1.9136
  162SOPE   H6S18146   3.389   3.590  10.066 -1.8130  0.3270  2.7849
  162SOPE   C2718147   3.284   3.661   9.888 -0.1389 -0.3312  0.1390
  162SOPE   H7R18148   3.210   3.578   9.887  0.3091 -0.7521 -3.7001
  162SOPE   H7S18149   3.227   3.749   9.851  2.8302  0.8229 -1.8374
  162SOPE   C2818150   3.400   3.630   9.790 -0.5993 -0.5151 -0.3894
  162SOPE   H8R18151   3.469   3.569   9.851  1.0779 -0.2243 -1.9430
  162SOPE   H8S18152   3.360   3.564   9.710 -1.0329 -0.7358  0.0121
  162SOPE   C2918153   3.481   3.739   9.734 -0.9850 -0.1573  0.9448
  162SOPE   H9118154   3.554   3.782   9.804 -1.2616 -1.0390  1.7794
  162SOPE  C21018155   3.482   3.782   9.612 -0.1240 -0.4123  0.7212
  162SOPE  H10118156   3.550   3.864   9.585  0.4826 -1.0084  0.3998
  162SOPE  C21118157   3.386   3.742   9.500 -0.4598  0.3975  0.9364
  162SOPE  H11R18158   3.298   3.804   9.476 -0.5248 -0.5533 -1.4401
  162SOPE  H11S18159   3.334   3.648   9.530  0.4461 -0.3534  0.2047
  162SOPE  C21218160   3.461   3.686   9.378  0.0559  0.6870 -0.6562
  162SOPE  H12R18161   3.389   3.645   9.303  0.4215 -1.1090 -0.0455
  162SOPE  H12S18162   3.527   3.607   9.421 -0.1576  0.4730 -0.7191
  162SOPE  C21318163   3.547   3.796   9.305 -0.2223 -0.0018 -0.4647
  162SOPE  H13R18164   3.588   3.752   9.211  0.3384 -0.5871  0.0481
  162SOPE  H13S18165   3.636   3.828   9.363  0.6149 -0.7663 -1.3134
  162SOPE  C21418166   3.471   3.923   9.271 -0.5277 -0.6622 -0.1003
  162SOPE  H14R18167   3.438   3.977   9.363 -1.3396 -3.4904  1.3588
  162SOPE  H14S18168   3.380   3.891   9.216 -1.8163 -1.0960  2.1826
  162SOPE  C21518169   3.550   4.022   9.197  0.1849  0.0359 -0.0825
  162SOPE  H15R18170   3.613   3.953   9.137  2.7500  2.3296 -0.1240
  162SOPE  H15S18171   3.606   4.088   9.268 -1.1020  0.3218  0.6782
  162SOPE  C21618172   3.460   4.111   9.114 -0.1272  0.2347  0.2262
  162SOPE  H16R18173   3.381   4.172   9.162  0.1428  1.1963 -0.5256
  162SOPE  H16S18174   3.407   4.061   9.030 -0.7381 -0.3567  0.9601
  162SOPE  C21718175   3.543   4.217   9.039  0.0615  0.3334  0.7057
  162SOPE  H17R18176   3.626   4.169   8.982 -1.1116 -1.2316  0.2792
  162SOPE  H17S18177   3.591   4.278   9.118 -0.7903  1.2712  0.5082
  162SOPE  C21818178   3.459   4.311   8.949  0.1065  0.1173  0.2282
  162SOPE  H18R18179   3.511   4.398   8.904 -1.3761  0.9358  0.0608
  162SOPE  H18S18180   3.395   4.370   9.018  2.4352  2.2214  0.6397
  162SOPE  H18T18181   3.393   4.260   8.875  0.3595 -0.2898  0.2835
  162SOPE   C3318182   2.625   3.492  10.221  0.8576 -0.0854  0.2911
  162SOPE   H3X18183   2.583   3.401  10.269  1.2258 -0.1224  0.5452
  162SOPE   H3Y18184   2.731   3.487  10.255  0.8785  1.0703  0.4233
  162SOPE   C3418185   2.617   3.480  10.069 -0.1411  0.2158 -0.2843
  162SOPE   H4X18186   2.682   3.402  10.024  0.4222 -0.1544  1.1509
  162SOPE   H4Y18187   2.647   3.573  10.015 -0.3817  0.8078  0.6018
  162SOPE   C3518188   2.475   3.435  10.022  0.1322  0.1890 -0.0120
  162SOPE   H5X18189   2.406   3.502  10.077 -0.0622 -0.4788  0.5675
  162SOPE   H5Y18190   2.450   3.334  10.061 -1.1782  0.6127  0.2538
  162SOPE   C3618191   2.442   3.452   9.873 -0.1335  0.0101  0.3392
  162SOPE   H6X18192   2.350   3.393   9.856 -1.2474  1.5796  0.8143
  162SOPE   H6Y18193   2.519   3.418   9.800 -0.9912  0.2790 -0.7129
  162SOPE   C3718194   2.420   3.595   9.840 -0.5551 -0.3744 -0.6764
  162SOPE   H7X18195   2.515   3.653   9.845  0.7855 -2.7526  2.5430
  162SOPE   H7Y18196   2.354   3.635   9.920  1.4320 -1.7261  1.7183
  162SOPE   C3818197   2.356   3.614   9.701 -0.3459  0.6535  0.1954
  162SOPE   H8X18198   2.290   3.702   9.715 -2.1399 -0.7359  0.7192
  162SOPE   H8Y18199   2.300   3.524   9.669  0.5913 -0.0110  0.3880
  162SOPE   C3918200   2.463   3.639   9.592  0.4477 -0.0024 -0.7364
  162SOPE   H9X18201   2.542   3.561   9.581  2.9033  2.4238 -0.9301
  162SOPE   H9Y18202   2.512   3.735   9.620  1.1130  0.2700 -2.8208
  162SOPE  C31018203   2.398   3.645   9.450 -0.5290 -0.1957 -0.2663
  162SOPE  H10X18204   2.333   3.734   9.444  1.3797  1.1268 -2.0300
  162SOPE  H10Y18205   2.344   3.549   9.430 -1.8077  0.1643  1.3482
  162SOPE  C31118206   2.499   3.662   9.334 -0.3429 -0.4474 -0.5278
  162SOPE  H11X18207   2.553   3.565   9.338  0.0937 -0.1566  1.0159
  162SOPE  H11Y18208   2.569   3.746   9.353  0.3133 -0.4878 -2.5961
  162SOPE  C31218209   2.422   3.658   9.210  0.2852  0.1540  0.1243
  162SOPE  H12X18210   2.351   3.740   9.183 -0.7211 -0.9335 -0.5436
  162SOPE  H12Y18211   2.362   3.565   9.211  2.0681 -1.0380 -1.1294
  162SOPE  C31318212   2.521   3.658   9.088 -0.0118 -0.0586  0.4406
  162SOPE  H13X18213   2.552   3.553   9.072 -2.0554 -0.3413 -1.9374
  162SOPE  H13Y18214   2.606   3.722   9.120  0.5989  1.6113 -4.1228
  162SOPE  C31418215   2.469   3.702   8.958  0.8739  0.5887 -0.0932
  162SOPE  H14X18216   2.547   3.704   8.879 -0.1775  0.5311 -1.1401
  162SOPE  H14Y18217   2.440   3.808   8.968 -0.5240  0.1742  0.3256
  162SOPE  C31518218   2.353   3.613   8.900  0.7472  0.1252  0.1865
  162SOPE  H15X18219   2.266   3.623   8.968 -1.0459 -0.5222 -1.9720
  162SOPE  H15Y18220   2.386   3.507   8.897 -1.6962 -0.7299  1.6007
  162SOPE  C31618221   2.298   3.668   8.765  0.7877 -0.4463  0.2831
  162SOPE  H16X18222   2.376   3.652   8.688  1.6173 -0.3319  1.0887
  162SOPE  H16Y18223   2.271   3.776   8.772 -1.8986 -1.0380 -0.3522
  162SOPE  C31718224   2.170   3.598   8.722  0.4506 -0.1120  0.4137
  162SOPE  H17X18225   2.097   3.601   8.806 -1.3950 -0.5309 -1.1541
  162SOPE  H17Y18226   2.195   3.490   8.711 -1.2406 -0.6906  1.9720
  162SOPE  C31818227   2.112   3.659   8.590  0.2133  0.5393  0.1460
  162SOPE  H18X18228   2.095   3.768   8.593 -1.4363  0.2853  0.8057
  162SOPE  H18Y18229   2.014   3.610   8.572  0.6472 -0.4034  0.3023
  162SOPE  H18Z18230   2.172   3.627   8.502 -0.7266  0.3688 -0.4343
  163SOPE     N18231   3.269   0.842  10.994  0.5225  0.1755  0.8315
  163SOPE   HN118232   3.206   0.796  10.925 -1.7169  0.2411  2.7793
  163SOPE   HN218233   3.290   0.942  10.976 -0.6482  0.0481 -1.4764
  163SOPE   HN318234   3.364   0.800  10.997  0.5162 -0.0449 -1.1600
  163SOPE   C1218235   3.199   0.853  11.130 -0.1104 -0.0718  0.1718
  163SOPE  H12A18236   3.267   0.881  11.214 -1.1831  2.4213  0.2518
  163SOPE  H12B18237   3.146   0.757  11.148  0.7815 -0.4979  0.5665
  163SOPE   C1118238   3.095   0.968  11.118 -0.9155 -0.4067 -0.1781
  163SOPE  H11A18239   3.146   1.067  11.114 -1.7601 -0.0091 -1.8672
  163SOPE  H11B18240   3.032   0.971  11.210  0.5082 -0.7752  0.8107
  163SOPE     P18241   2.874   0.910  10.993  0.0658 -0.0210  0.1865
  163SOPE   O1318242   2.783   0.976  11.089  0.1120 -0.1775 -0.6595
  163SOPE   O1418243   2.876   0.761  11.003 -0.2511 -0.1996  0.0288
  163SOPE   O1218244   3.022   0.960  10.998  0.2240 -0.1723  0.2374
  163SOPE   O1118245   2.832   0.941  10.846  0.2508  0.1952  0.1558
  163SOPE    C118246   2.860   1.079  10.796 -0.3306  0.4245  0.0563
  163SOPE    HA18247   2.907   1.142  10.874  1.8656 -0.4471 -0.5020
  163SOPE    HB18248   2.758   1.118  10.775  0.0422  0.4307 -1.8859
  163SOPE    C218249   2.942   1.072  10.666  0.1108  0.1873 -0.6495
  163SOPE    HS18250   2.958   1.177  10.636 -1.2078  0.5805 -0.0129
  163SOPE   O2118251   2.861   1.002  10.568 -0.3251 -0.3327  0.0996
  163SOPE   C2118252   2.865   1.066  10.449  0.3762  0.6440 -0.5663
  163SOPE   O2218253   2.887   1.186  10.430  0.2720  0.3935  0.3313
  163SOPE   C2218254   2.827   0.960  10.345 -0.0391 -0.1439 -0.2093
  163SOPE   H2R18255   2.718   0.943  10.339 -0.0959 -0.1045  0.6796
  163SOPE   H2S18256   2.868   0.864  10.383  0.4625  0.6859  1.3812
  163SOPE    C318257   3.090   1.021  10.679 -0.7923 -0.0921  0.1985
  163SOPE    HX18258   3.074   0.920  10.722 -1.9696  0.1219  0.2766
  163SOPE    HY18259   3.148   1.072  10.759  0.8465 -2.5941  0.7014
  163SOPE   O3118260   3.157   1.022  10.547  0.1945 -0.0570 -0.1785
  163SOPE   C3118261   3.224   1.137  10.517  0.3668 -0.2816 -0.5119
  163SOPE   O3218262   3.223   1.237  10.582  0.4147 -0.4125  0.3491
  163SOPE   C3218263   3.297   1.113  10.387 -0.6879 -0.5493 -0.7980
  163SOPE   H2X18264   3.237   1.042  10.326  0.9030 -3.4194  0.8823
  163SOPE   H2Y18265   3.396   1.068  10.412 -0.7472  0.0361  0.4979
  163SOPE   C2318266   2.889   0.980  10.211  0.7080 -0.6466 -0.0656
  163SOPE   H3R18267   2.992   0.937  10.219  0.6494 -0.8707 -0.5161
  163SOPE   H3S18268   2.883   1.087  10.185 -4.0437 -0.9223 -0.5532
  163SOPE   C2418269   2.805   0.905  10.103  0.2254  0.7238  0.9205
  163SOPE   H4R18270   2.832   0.798  10.108 -1.4605  0.0562 -2.7653
  163SOPE   H4S18271   2.696   0.928  10.099 -0.0452  0.0484  3.5382
  163SOPE   C2518272   2.859   0.943   9.960  0.4382  0.1378  0.8496
  163SOPE   H5R18273   2.851   1.054   9.956 -1.0847  0.0518  1.1063
  163SOPE   H5S18274   2.969   0.933   9.952  0.4428 -0.2881  1.3592
  163SOPE   C2618275   2.791   0.884   9.844  0.6397  0.3903 -0.2774
  163SOPE   H6R18276   2.683   0.904   9.863 -0.0459 -1.2422 -2.1944
  163SOPE   H6S18277   2.809   0.924   9.742 -1.0673 -0.1231 -0.7951
  163SOPE   C2718278   2.810   0.729   9.834 -0.3654  1.2513  0.5425
  163SOPE   H7R18279   2.917   0.713   9.809  0.0382  2.5317  1.4272
  163SOPE   H7S18280   2.791   0.683   9.933  1.4589 -0.8763 -0.0586
  163SOPE   C2818281   2.729   0.667   9.716 -0.6163  0.3374  0.3511
  163SOPE   H8R18282   2.619   0.658   9.729 -0.5881 -1.0812 -0.2182
  163SOPE   H8S18283   2.745   0.741   9.635  1.1485  1.8718  2.0808
  163SOPE   C2918284   2.792   0.536   9.686  0.0392 -0.5352  0.5855
  163SOPE   H9118285   2.831   0.475   9.768 -0.4159  0.2277  1.3752
  163SOPE  C21018286   2.824   0.498   9.563 -0.4246 -0.0504  0.5293
  163SOPE  H10118287   2.862   0.398   9.535  2.0247  1.0396 -0.2004
  163SOPE  C21118288   2.808   0.583   9.432  0.1704 -0.0300  0.1779
  163SOPE  H11R18289   2.892   0.654   9.414 -0.7746  1.3100  1.0178
  163SOPE  H11S18290   2.707   0.629   9.436 -0.6707 -1.6947 -1.3498
  163SOPE  C21218291   2.807   0.480   9.316 -0.3687 -0.6082  0.2020
  163SOPE  H12R18292   2.746   0.522   9.234 -0.3874 -0.3975  0.3232
  163SOPE  H12S18293   2.757   0.384   9.341 -1.5184  0.1494  0.8269
  163SOPE  C21318294   2.948   0.448   9.256 -0.5777  0.0162 -0.4941
  163SOPE  H13R18295   2.998   0.379   9.327  0.0192  0.1287 -0.8079
  163SOPE  H13S18296   3.011   0.539   9.255 -1.9956  1.0225 -0.2748
  163SOPE  C21418297   2.943   0.408   9.110  0.4619  0.3583  0.0091
  163SOPE  H14R18298   2.878   0.483   9.060 -0.9068 -0.6540  0.2501
  163SOPE  H14S18299   2.897   0.310   9.088 -0.6776  1.1236 -1.1010
  163SOPE  C21518300   3.081   0.422   9.046 -0.4721 -0.9087 -0.3571
  163SOPE  H15R18301   3.151   0.375   9.118  0.8708 -1.1630 -1.8151
  163SOPE  H15S18302   3.103   0.531   9.049  2.0231 -1.3237 -2.1462
  163SOPE  C21618303   3.097   0.364   8.908  0.1377  0.8036 -0.5972
  163SOPE  H16R18304   3.016   0.403   8.843  1.1178  1.9164 -1.1707
  163SOPE  H16S18305   3.077   0.256   8.895 -0.7714  1.2626 -3.3519
  163SOPE  C21718306   3.226   0.401   8.841 -0.8909  0.9420  0.0745
  163SOPE  H17R18307   3.237   0.511   8.839 -0.5389  0.9691  1.9639
  163SOPE  H17S18308   3.219   0.372   8.734 -1.6393 -0.5289  0.4950
  163SOPE  C21818309   3.350   0.321   8.894 -0.3274 -0.3818 -0.1840
  163SOPE  H18R18310   3.318   0.216   8.909 -0.2418 -0.5817 -1.3923
  163SOPE  H18S18311   3.389   0.362   8.990 -1.5399  0.0587  0.1259
  163SOPE  H18T18312   3.430   0.307   8.819  0.1056  0.6469  0.0743
  163SOPE   C3318313   3.319   1.256  10.317 -0.0223 -0.7635  0.0976
  163SOPE   H3X18314   3.409   1.315  10.342  0.1253 -0.5842 -0.8506
  163SOPE   H3Y18315   3.233   1.326  10.330  1.8058  1.4788  0.3949
  163SOPE   C3418316   3.344   1.233  10.162  0.1652  0.4231  0.0939
  163SOPE   H4X18317   3.445   1.191  10.140  0.9632  2.6312 -0.5998
  163SOPE   H4Y18318   3.348   1.334  10.115 -0.9249  1.2761  1.7946
  163SOPE   C3518319   3.224   1.169  10.086 -0.4675 -0.9568 -0.2378
  163SOPE   H5X18320   3.128   1.226  10.087  0.0952  0.0366 -1.9793
  163SOPE   H5Y18321   3.191   1.070  10.125  1.1690 -0.9695  1.1770
  163SOPE   C3618322   3.264   1.163   9.938 -0.4558 -0.5758  0.3359
  163SOPE   H6X18323   3.363   1.113   9.932  0.9784  2.3905 -1.9226
  163SOPE   H6Y18324   3.281   1.268   9.907 -1.2902 -0.4619  0.2458
  163SOPE   C3718325   3.165   1.079   9.850  0.7396  0.4714  0.3447
  163SOPE   H7X18326   3.067   1.122   9.882  0.0684 -0.4459 -0.4354
  163SOPE   H7Y18327   3.167   0.971   9.875  0.8173  0.3315 -0.2625
  163SOPE   C3818328   3.166   1.095   9.696  0.5780 -0.5679 -0.5074
  163SOPE   H8X18329   3.100   1.019   9.649  0.1771  0.7947 -2.1923
  163SOPE   H8Y18330   3.268   1.069   9.658  0.7109 -0.0074 -0.5348
  163SOPE   C3918331   3.112   1.231   9.645 -0.4539 -0.0042 -0.4254
  163SOPE   H9X18332   3.177   1.316   9.674 -1.6439  0.3808  1.2449
  163SOPE   H9Y18333   3.013   1.243   9.695 -1.0272 -2.3191 -0.9320
  163SOPE  C31018334   3.088   1.226   9.491 -0.4217 -0.7375  0.4790
  163SOPE  H10X18335   3.046   1.127   9.463  1.2874 -0.7544 -2.1335
  163SOPE  H10Y18336   3.185   1.219   9.437 -0.1133 -0.2078  0.9611
  163SOPE  C31118337   3.001   1.333   9.433 -0.0218  0.1184  0.3681
  163SOPE  H11X18338   3.048   1.431   9.459 -0.6813  0.1548  1.4665
  163SOPE  H11Y18339   2.894   1.331   9.463 -0.3824  0.3804 -0.8656
  163SOPE  C31218340   3.009   1.320   9.276 -0.0758 -0.0898 -0.3667
  163SOPE  H12X18341   2.981   1.214   9.257 -0.5929 -0.3631  1.7845
  163SOPE  H12Y18342   3.113   1.347   9.247  1.0629 -1.6368  2.0654
  163SOPE  C31318343   2.908   1.405   9.189  0.6160  0.1385  0.7716
  163SOPE  H13X18344   2.932   1.513   9.206  0.2971 -0.0012  2.1732
  163SOPE  H13Y18345   2.806   1.389   9.229 -0.0749  0.8961 -0.6498
  163SOPE  C31418346   2.914   1.369   9.040 -0.0614  0.0564  0.1460
  163SOPE  H14X18347   2.917   1.258   9.036  0.8851  0.1042 -0.6704
  163SOPE  H14Y18348   2.990   1.418   8.976  0.7207  0.2894  1.2304
  163SOPE  C31518349   2.783   1.399   8.972  0.4970  0.7460 -0.7968
  163SOPE  H15X18350   2.775   1.510   8.970  2.6496  0.9139 -0.9411
  163SOPE  H15Y18351   2.690   1.365   9.024  0.6898  1.4416  0.0226
  163SOPE  C31618352   2.781   1.360   8.825 -0.0852  0.7824 -0.2716
  163SOPE  H16X18353   2.800   1.252   8.807 -0.1766  0.9270 -1.2778
  163SOPE  H16Y18354   2.861   1.411   8.768 -0.0114  1.6457  0.5934
  163SOPE  C31718355   2.653   1.395   8.747 -0.6104  0.4109  0.5975
  163SOPE  H17X18356   2.630   1.503   8.757 -0.2603  0.5213  0.2346
  163SOPE  H17Y18357   2.575   1.334   8.797 -0.9581 -0.1280 -0.5918
  163SOPE  C31818358   2.649   1.353   8.599  0.5617  0.4966  0.4138
  163SOPE  H18X18359   2.691   1.250   8.597 -1.6043 -0.4069  0.4879
  163SOPE  H18Y18360   2.718   1.419   8.542  0.4307  0.5513  0.3209
  163SOPE  H18Z18361   2.548   1.358   8.554  1.0081 -3.6322 -1.2058
  164SOPE     N18362   6.022   6.595  10.526 -0.1275  0.6800  0.3706
  164SOPE   HN118363   5.970   6.619  10.613 -0.7673 -0.3881  0.2910
  164SOPE   HN218364   6.044   6.682  10.473  1.5081  0.3011  0.4067
  164SOPE   HN318365   5.966   6.535  10.463 -2.1383  2.4151  0.4410
  164SOPE   C1218366   6.140   6.523  10.576 -1.2112  0.2489 -0.3167
  164SOPE  H12A18367   6.184   6.582  10.660  1.7295 -2.3735  0.0873
  164SOPE  H12B18368   6.209   6.498  10.492 -1.0012  1.4927 -0.5294
  164SOPE   C1118369   6.106   6.384  10.628  0.2982  0.1415 -0.7949
  164SOPE  H11A18370   6.075   6.315  10.547  1.5810  0.1701 -1.3268
  164SOPE  H11B18371   6.025   6.400  10.702  0.5190  0.2121 -0.5682
  164SOPE     P18372   6.262   6.183  10.700 -0.5113 -0.0079 -0.2149
  164SOPE   O1318373   6.147   6.098  10.720  0.0348  0.1341  0.3831
  164SOPE   O1418374   6.379   6.165  10.785 -0.5325 -0.6922  0.5043
  164SOPE   O1218375   6.221   6.329  10.697  0.3690  0.0204  0.0959
  164SOPE   O1118376   6.303   6.174  10.554 -0.1714 -0.0405 -0.0047
  164SOPE    C118377   6.409   6.263  10.513 -0.5261 -0.1038 -0.6692
  164SOPE    HA18378   6.503   6.238  10.566 -0.5202  0.8520 -0.2211
  164SOPE    HB18379   6.383   6.368  10.536 -0.2358 -0.4081  1.1221
  164SOPE    C218380   6.442   6.264  10.360 -0.0420 -0.2502  0.1699
  164SOPE    HS18381   6.505   6.180  10.322 -0.1297  0.4005 -1.4819
  164SOPE   O2118382   6.494   6.396  10.330 -0.3259 -0.2217 -0.2561
  164SOPE   C2118383   6.626   6.406  10.351 -0.1999  0.2258  0.2745
  164SOPE   O2218384   6.699   6.321  10.398  0.5924  0.4183  0.3912
  164SOPE   C2218385   6.666   6.553  10.337  0.4562 -0.1764  0.1556
  164SOPE   H2R18386   6.683   6.595  10.438 -1.2921 -0.8702  0.7655
  164SOPE   H2S18387   6.578   6.611  10.302  1.8001  3.6858  2.8733
  164SOPE    C318388   6.308   6.240  10.279 -0.5251 -0.0828  0.0439
  164SOPE    HX18389   6.241   6.323  10.311  2.3403  1.9099  1.1081
  164SOPE    HY18390   6.259   6.145  10.310  1.3918 -0.4773  1.9733
  164SOPE   O3118391   6.329   6.227  10.136 -0.0931 -0.5835  0.6469
  164SOPE   C3118392   6.304   6.334  10.068  0.6848 -0.4633  0.6047
  164SOPE   O3218393   6.252   6.439  10.107  0.2492  0.3120  0.3551
  164SOPE   C3218394   6.337   6.316   9.917  0.1322  0.1667  0.0793
  164SOPE   H2X18395   6.258   6.252   9.872 -0.0239  0.6935 -0.4042
  164SOPE   H2Y18396   6.432   6.259   9.908 -0.1220 -0.0401 -1.2962
  164SOPE   C2318397   6.781   6.566  10.250  0.4343  0.7259 -0.7058
  164SOPE   H3R18398   6.865   6.505  10.290 -2.1191 -0.7810  2.6291
  164SOPE   H3S18399   6.821   6.669  10.258  0.2364  0.9265 -2.2048
  164SOPE   C2418400   6.735   6.534  10.106  0.0651 -0.1921 -0.5775
  164SOPE   H4R18401   6.711   6.426  10.098 -3.6581  0.5533 -0.2549
  164SOPE   H4S18402   6.642   6.587  10.077 -0.4839 -0.5169  0.5551
  164SOPE   C2518403   6.846   6.572  10.010 -0.2464  0.1196  0.0349
  164SOPE   H5R18404   6.869   6.677  10.037 -3.4368  1.2395 -1.3739
  164SOPE   H5S18405   6.934   6.514  10.045  0.8133  1.5195 -0.2617
  164SOPE   C2618406   6.809   6.550   9.859 -0.5706 -0.2732  0.0674
  164SOPE   H6R18407   6.794   6.445   9.827  0.3163 -0.5855  0.6821
  164SOPE   H6S18408   6.714   6.608   9.852 -0.3710  0.1809  1.0418
  164SOPE   C2718409   6.905   6.622   9.768 -0.4740 -0.1481 -0.3524
  164SOPE   H7R18410   6.928   6.724   9.805 -1.0288 -0.8839  2.1091
  164SOPE   H7S18411   7.008   6.580   9.768 -0.3089  0.2616  0.9933
  164SOPE   C2818412   6.861   6.631   9.620 -0.6760 -0.2195  0.2252
  164SOPE   H8R18413   6.834   6.531   9.579  0.6610 -0.2994 -0.4986
  164SOPE   H8S18414   6.762   6.680   9.626 -0.9097 -0.7706  0.9732
  164SOPE   C2918415   6.966   6.696   9.529 -0.4735 -0.1353  1.2307
  164SOPE   H9118416   7.064   6.707   9.578  1.7660 -2.7249 -2.3940
  164SOPE  C21018417   6.956   6.752   9.404 -0.1826 -0.1984  0.5563
  164SOPE  H10118418   7.043   6.804   9.363 -1.7639  3.5446  1.7553
  164SOPE  C21118419   6.823   6.752   9.324 -0.6501 -1.5727 -0.4736
  164SOPE  H11R18420   6.830   6.833   9.249  2.6472 -0.7674  0.6044
  164SOPE  H11S18421   6.738   6.770   9.394  0.4280  1.3161  0.1721
  164SOPE  C21218422   6.803   6.625   9.243  0.2405 -0.3678  0.3782
  164SOPE  H12R18423   6.698   6.617   9.208 -0.0932 -2.7530  1.8440
  164SOPE  H12S18424   6.803   6.540   9.314  3.2994 -0.3922  0.4020
  164SOPE  C21318425   6.892   6.599   9.121  0.0680  0.1486 -0.3760
  164SOPE  H13R18426   6.998   6.570   9.134  0.1866  0.6684 -0.1553
  164SOPE  H13S18427   6.885   6.694   9.063 -0.0169  0.8690  0.7838
  164SOPE  C21418428   6.831   6.497   9.023  0.5080 -0.4664 -0.0166
  164SOPE  H14R18429   6.723   6.523   9.014  0.6407 -0.5181 -2.0108
  164SOPE  H14S18430   6.832   6.400   9.076 -2.3973  0.1052  1.1756
  164SOPE  C21518431   6.898   6.501   8.883  0.2679  0.3958 -0.0879
  164SOPE  H15R18432   7.006   6.489   8.907  0.8738  0.4546 -2.6369
  164SOPE  H15S18433   6.899   6.597   8.828 -0.7817  0.3021 -0.2717
  164SOPE  C21618434   6.856   6.390   8.788 -0.8764 -0.0719  0.2623
  164SOPE  H16R18435   6.747   6.393   8.768 -0.6834 -0.6228 -0.9442
  164SOPE  H16S18436   6.874   6.302   8.854  2.0662  1.3722  1.4712
  164SOPE  C21718437   6.939   6.382   8.664  0.0161  0.5975 -0.4583
  164SOPE  H17R18438   7.048   6.379   8.685 -0.4792  2.0510  2.6329
  164SOPE  H17S18439   6.932   6.480   8.612 -2.2310  0.6360 -0.1328
  164SOPE  C21818440   6.908   6.266   8.567  0.0746 -0.1499 -0.2487
  164SOPE  H18R18441   6.800   6.256   8.544  0.8603 -2.4302 -3.2738
  164SOPE  H18S18442   6.935   6.164   8.601 -0.5981 -1.1469 -2.6512
  164SOPE  H18T18443   6.962   6.270   8.470 -1.9798  1.4692 -1.3720
  164SOPE   C3318444   6.352   6.451   9.844 -0.6711  0.5779  0.2699
  164SOPE   H3X18445   6.424   6.513   9.901  0.5640 -0.6837  0.1001
  164SOPE   H3Y18446   6.254   6.501   9.830 -1.1637 -0.4106  0.1085
  164SOPE   C3418447   6.395   6.426   9.705 -0.2014  0.1745  0.6389
  164SOPE   H4X18448   6.337   6.338   9.669  0.9750  0.2843 -1.6387
  164SOPE   H4Y18449   6.502   6.399   9.705 -0.2296  0.0241  2.4884
  164SOPE   C3518450   6.385   6.539   9.604  0.8760  0.3988 -0.1008
  164SOPE   H5X18451   6.421   6.632   9.651  0.7033 -0.9377  2.7446
  164SOPE   H5Y18452   6.281   6.545   9.565  1.1473 -2.5900 -1.4385
  164SOPE   C3618453   6.473   6.517   9.481 -0.0790  0.4537 -0.8276
  164SOPE   H6X18454   6.443   6.420   9.436 -1.6334  1.0261 -1.0470
  164SOPE   H6Y18455   6.577   6.501   9.517 -0.1758  0.9838 -0.2995
  164SOPE   C3718456   6.450   6.638   9.390 -0.3925 -0.4708 -0.1914
  164SOPE   H7X18457   6.549   6.673   9.354 -0.9731  0.5707 -0.7898
  164SOPE   H7Y18458   6.412   6.728   9.443  1.7622  0.9853 -1.0378
  164SOPE   C3818459   6.356   6.619   9.265  0.6371  0.1041 -0.3583
  164SOPE   H8X18460   6.257   6.575   9.291  0.5736  0.4102 -0.0596
  164SOPE   H8Y18461   6.402   6.548   9.194  0.2118 -0.3647 -0.1689
  164SOPE   C3918462   6.339   6.760   9.196 -0.0131 -0.4514 -0.8924
  164SOPE   H9X18463   6.280   6.824   9.265  0.3147 -1.5251  0.4082
  164SOPE   H9Y18464   6.269   6.754   9.110  0.5947  2.0518 -1.5909
  164SOPE  C31018465   6.463   6.821   9.142 -0.9707 -0.4631 -0.2585
  164SOPE  H10X18466   6.488   6.757   9.055 -1.0466 -1.4095  0.4067
  164SOPE  H10Y18467   6.550   6.810   9.211 -0.6481 -0.7568 -0.7136
  164SOPE  C31118468   6.445   6.967   9.094  0.2097  0.4873 -0.2793
  164SOPE  H11X18469   6.455   7.035   9.182  0.3812  0.1780 -0.0602
  164SOPE  H11Y18470   6.344   6.988   9.055 -0.4702  1.0496  1.7053
  164SOPE  C31218471   6.551   7.014   8.995 -0.2084  0.4333  0.4205
  164SOPE  H12X18472   6.650   6.974   9.027 -0.6996  0.6075  2.2062
  164SOPE  H12Y18473   6.569   7.123   9.007 -0.6532  1.0298 -3.7508
  164SOPE  C31318474   6.526   6.978   8.849 -0.8128  0.0488 -0.5292
  164SOPE  H13X18475   6.428   7.015   8.812 -0.2061  0.1958 -2.0199
  164SOPE  H13Y18476   6.520   6.868   8.835 -2.3483 -0.1424  1.4396
  164SOPE  C31418477   6.621   7.047   8.747 -0.6924  0.3503 -0.5431
  164SOPE  H14X18478   6.634   7.156   8.766  0.9963 -0.1130  1.1180
  164SOPE  H14Y18479   6.567   7.033   8.651 -0.3285 -1.9476 -0.4495
  164SOPE  C31518480   6.759   6.978   8.736  0.7622  0.0337  0.5760
  164SOPE  H15X18481   6.750   6.868   8.723  2.0067 -0.1137  0.8561
  164SOPE  H15Y18482   6.811   6.995   8.832 -0.7453  0.0429  1.4012
  164SOPE  C31618483   6.849   7.031   8.620 -0.4683  0.1461  0.4984
  164SOPE  H16X18484   6.800   7.009   8.523  0.6722  0.5365 -0.1808
  164SOPE  H16Y18485   6.949   6.983   8.618 -1.0547 -1.1395  1.4756
  164SOPE  C31718486   6.853   7.185   8.609 -0.3169  0.1580 -0.6597
  164SOPE  H17X18487   6.756   7.230   8.577 -0.9865 -1.2564 -0.6708
  164SOPE  H17Y18488   6.937   7.210   8.541  1.1412  1.9209  1.7052
  164SOPE  C31818489   6.903   7.255   8.741 -0.2567  0.7017 -0.2670
  164SOPE  H18X18490   6.929   7.360   8.712 -0.1411  0.0050 -2.8683
  164SOPE  H18Y18491   6.997   7.211   8.781  0.1947  0.2363 -1.7900
  164SOPE  H18Z18492   6.825   7.243   8.818  1.2397  0.3892  1.2326
  165SOPE     N18493   4.770   0.645  11.165 -0.8496  0.1709 -0.5089
  165SOPE   HN118494   4.774   0.639  11.269 -0.3666 -4.2198 -0.7019
  165SOPE   HN218495   4.801   0.738  11.131 -0.2108  1.1125  2.4306
  165SOPE   HN318496   4.675   0.624  11.129 -0.7605 -2.3957  0.6162
  165SOPE   C1218497   4.859   0.534  11.096  0.1740  0.3326  0.3046
  165SOPE  H12A18498   4.822   0.434  11.129 -0.3485 -0.0036 -1.2827
  165SOPE  H12B18499   4.956   0.538  11.149  0.3219  0.0015  0.0592
  165SOPE   C1118500   4.876   0.555  10.946 -0.0904  0.2995  0.3963
  165SOPE  H11A18501   4.934   0.648  10.928  0.0342 -0.0602 -1.1149
  165SOPE  H11B18502   4.778   0.568  10.895  0.4134 -0.5937 -0.8369
  165SOPE     P18503   4.902   0.327  10.814 -0.4495 -0.4225 -0.1270
  165SOPE   O1318504   4.809   0.263  10.902  0.0795  0.1161  0.0795
  165SOPE   O1418505   5.024   0.256  10.761 -0.0537 -0.2979 -0.7509
  165SOPE   O1218506   4.956   0.446  10.904  0.4231 -0.4493 -0.3747
  165SOPE   O1118507   4.816   0.401  10.701  0.0589  0.1027  0.6818
  165SOPE    C118508   4.879   0.467  10.592 -0.4442 -0.3363 -0.1511
  165SOPE    HA18509   4.990   0.478  10.590 -0.5323  1.5805  2.4719
  165SOPE    HB18510   4.829   0.567  10.594  1.8186  0.9033 -2.5934
  165SOPE    C218511   4.830   0.412  10.453  0.1098 -0.1010 -0.1909
  165SOPE    HS18512   4.891   0.445  10.365 -0.7147  0.3333 -0.6063
  165SOPE   O2118513   4.690   0.445  10.429 -0.1095  0.2560 -0.3732
  165SOPE   C2118514   4.660   0.567  10.387  0.9333 -0.0358  0.4249
  165SOPE   O2218515   4.747   0.652  10.358  0.1757  0.4036 -0.3720
  165SOPE   C2218516   4.508   0.579  10.375 -0.4901  0.7526  0.3523
  165SOPE   H2R18517   4.482   0.636  10.467  0.5277 -1.7514  2.2498
  165SOPE   H2S18518   4.457   0.480  10.387  0.6895  0.4892  3.6098
  165SOPE    C318519   4.843   0.259  10.455  0.0910  0.4536 -0.2264
  165SOPE    HX18520   4.780   0.217  10.536  1.7281  0.3796  1.0420
  165SOPE    HY18521   4.949   0.229  10.468 -0.4524 -1.5156 -0.1586
  165SOPE   O3118522   4.803   0.211  10.322  0.3342 -0.1251  0.0188
  165SOPE   C3118523   4.685   0.157  10.314  0.3166 -0.4456 -0.8615
  165SOPE   O3218524   4.607   0.137  10.408 -0.3723 -0.1828 -0.0147
  165SOPE   C3218525   4.662   0.122  10.168 -0.9075  0.4458  0.0290
  165SOPE   H2X18526   4.554   0.126  10.140 -1.0461  0.4281  0.5543
  165SOPE   H2Y18527   4.694   0.017  10.150 -0.9852  0.4517 -0.1452
  165SOPE   C2318528   4.450   0.651  10.252  0.0253  0.0301 -0.5326
  165SOPE   H3R18529   4.514   0.742  10.249  0.3902 -0.2126 -0.2461
  165SOPE   H3S18530   4.340   0.670  10.252  0.2486  1.4174  0.5775
  165SOPE   C2418531   4.476   0.572  10.127 -0.3102  0.6704  0.0506
  165SOPE   H4R18532   4.465   0.651  10.050 -1.4518 -0.1844 -0.6903
  165SOPE   H4S18533   4.576   0.524  10.133 -0.0869  1.1154 -0.0736
  165SOPE   C2518534   4.376   0.456  10.116 -0.4228  0.3601  0.5531
  165SOPE   H5R18535   4.411   0.365  10.169 -2.8549 -1.3731 -0.7132
  165SOPE   H5S18536   4.294   0.500  10.176  2.0430  0.8609  3.7036
  165SOPE   C2618537   4.337   0.424   9.973 -0.4862  0.6328 -0.4353
  165SOPE   H6R18538   4.319   0.526   9.932  0.2710  1.3385  0.9417
  165SOPE   H6S18539   4.418   0.381   9.909 -1.3655 -2.8578  0.6781
  165SOPE   C2718540   4.203   0.358   9.967  0.2910  0.9198 -0.1713
  165SOPE   H7R18541   4.219   0.250   9.987  1.0586  1.1914  0.7737
  165SOPE   H7S18542   4.141   0.392  10.053  2.3463  0.8579  1.3730
  165SOPE   C2818543   4.121   0.381   9.839 -0.0267 -0.2811  0.0797
  165SOPE   H8R18544   4.016   0.349   9.855  0.3758 -0.9745  1.4130
  165SOPE   H8S18545   4.120   0.490   9.819 -0.2057  0.1610  2.3754
  165SOPE   C2918546   4.171   0.311   9.717 -0.3797 -0.0322 -0.0741
  165SOPE   H9118547   4.124   0.211   9.714 -0.3908 -0.1152  2.0067
  165SOPE  C21018548   4.254   0.363   9.628  0.1136  1.1031 -0.3351
  165SOPE  H10118549   4.296   0.311   9.540  0.3664 -0.0638  0.4620
  165SOPE  C21118550   4.314   0.501   9.640  0.1104 -0.2645  0.3869
  165SOPE  H11R18551   4.408   0.489   9.699 -0.9860 -1.4374  1.9487
  165SOPE  H11S18552   4.246   0.576   9.686 -1.7366 -0.8012 -1.3972
  165SOPE  C21218553   4.351   0.559   9.496 -0.2153  0.4992  0.7070
  165SOPE  H12R18554   4.405   0.484   9.435 -1.8812  0.0372 -0.2455
  165SOPE  H12S18555   4.411   0.651   9.513 -0.0516 -0.0069  3.1273
  165SOPE  C21318556   4.224   0.598   9.424 -0.3377  0.8526 -0.8963
  165SOPE  H13R18557   4.148   0.646   9.489  0.8407  1.5537 -0.0070
  165SOPE  H13S18558   4.182   0.500   9.393 -0.1578  0.3382  0.4702
  165SOPE  C21418559   4.254   0.679   9.293 -0.4181 -0.6709  0.4224
  165SOPE  H14R18560   4.352   0.634   9.267  0.0229 -1.1287  2.8034
  165SOPE  H14S18561   4.281   0.785   9.311 -1.2360 -0.2779 -0.5526
  165SOPE  C21518562   4.164   0.633   9.177 -0.5431  0.2495 -0.1469
  165SOPE  H15R18563   4.055   0.636   9.198 -0.5124 -0.9859  0.2712
  165SOPE  H15S18564   4.190   0.532   9.137  0.4513  0.4780 -0.0704
  165SOPE  C21618565   4.184   0.727   9.056  0.4243  0.1587  0.1172
  165SOPE  H16R18566   4.198   0.833   9.084  0.1655  0.2966 -0.2620
  165SOPE  H16S18567   4.092   0.720   8.994  0.1396 -0.4723  0.5984
  165SOPE  C21718568   4.318   0.701   8.975 -0.1496  0.0064  0.4349
  165SOPE  H17R18569   4.295   0.596   8.946 -2.3643  0.9939 -1.5796
  165SOPE  H17S18570   4.411   0.695   9.035  0.2058  1.8312  0.0814
  165SOPE  C21818571   4.329   0.788   8.849  0.3795  0.7562 -0.8801
  165SOPE  H18R18572   4.426   0.777   8.797  0.6832 -1.1669  0.0550
  165SOPE  H18S18573   4.317   0.896   8.871 -1.0930  0.5435 -0.5538
  165SOPE  H18T18574   4.249   0.761   8.777  0.8116 -3.1451  0.0108
  165SOPE   C3318575   4.724   0.229  10.066 -0.1372 -0.9042  0.0456
  165SOPE   H3X18576   4.834   0.213  10.069  0.1995  1.0596 -0.5335
  165SOPE   H3Y18577   4.706   0.332  10.105  1.7777  0.0591 -1.5051
  165SOPE   C3418578   4.683   0.219   9.923  0.3230  0.6137  0.3048
  165SOPE   H4X18579   4.581   0.261   9.910  0.4830  0.0690 -3.2111
  165SOPE   H4Y18580   4.683   0.112   9.896 -1.2551  0.5588  0.5289
  165SOPE   C3518581   4.778   0.300   9.830  0.3551  0.2919  0.6970
  165SOPE   H5X18582   4.880   0.257   9.826 -0.8249 -2.5998  1.0095
  165SOPE   H5Y18583   4.780   0.403   9.873  3.3055  0.5188  0.0851
  165SOPE   C3618584   4.732   0.313   9.685 -0.0579  0.0307 -0.3045
  165SOPE   H6X18585   4.626   0.346   9.686 -0.1974 -0.4247  1.1939
  165SOPE   H6Y18586   4.726   0.213   9.636  0.2894 -0.1416  0.0114
  165SOPE   C3718587   4.815   0.411   9.603  0.1466 -0.5309  0.1198
  165SOPE   H7X18588   4.910   0.362   9.576  0.1885  0.2310 -1.1482
  165SOPE   H7Y18589   4.834   0.501   9.666  0.6130 -0.7972  0.3570
  165SOPE   C3818590   4.754   0.451   9.463  0.6229 -0.3220 -0.8659
  165SOPE   H8X18591   4.804   0.541   9.421  0.4401 -0.7111 -1.9539
  165SOPE   H8Y18592   4.643   0.456   9.469  0.6133 -0.9942 -0.4250
  165SOPE   C3918593   4.779   0.352   9.354  0.1915  0.2408  0.5254
  165SOPE   H9X18594   4.723   0.258   9.378  2.0780 -0.4938  2.1861
  165SOPE   H9Y18595   4.887   0.329   9.342 -0.0778  0.2548 -2.2363
  165SOPE  C31018596   4.724   0.401   9.212  0.1838  0.0697  0.2093
  165SOPE  H10X18597   4.736   0.307   9.154 -1.7398  0.2760 -0.5659
  165SOPE  H10Y18598   4.781   0.484   9.165 -1.5447  0.9588 -0.3633
  165SOPE  C31118599   4.572   0.423   9.210  0.2928  0.3523 -0.0849
  165SOPE  H11X18600   4.545   0.526   9.240 -0.3110 -0.0098  0.6077
  165SOPE  H11Y18601   4.512   0.366   9.283 -1.5657 -2.3084 -3.5283
  165SOPE  C31218602   4.506   0.377   9.074  0.7471 -0.1608  0.4665
  165SOPE  H12X18603   4.398   0.400   9.085  0.7926  0.9841 -1.2248
  165SOPE  H12Y18604   4.509   0.267   9.062  0.1941 -0.3875  2.2048
  165SOPE  C31318605   4.564   0.435   8.945  0.3635  0.3365 -0.2027
  165SOPE  H13X18606   4.669   0.397   8.949  0.6245  1.0951  0.1680
  165SOPE  H13Y18607   4.562   0.546   8.948 -0.2450  0.3283 -0.2255
  165SOPE  C31418608   4.504   0.392   8.815  0.9105 -0.3379 -0.0818
  165SOPE  H14X18609   4.403   0.439   8.820  0.7782 -0.6880  0.6562
  165SOPE  H14Y18610   4.493   0.282   8.824  1.2762 -0.3534  0.1645
  165SOPE  C31518611   4.589   0.438   8.694 -0.4707  0.1197 -0.4858
  165SOPE  H15X18612   4.697   0.416   8.705 -0.0288  3.1211  2.2716
  165SOPE  H15Y18613   4.584   0.549   8.692  2.0528  0.2918  0.4885
  165SOPE  C31618614   4.529   0.389   8.557 -0.5206 -0.1153  0.1259
  165SOPE  H16X18615   4.427   0.432   8.547 -0.7398 -0.8981 -1.0792
  165SOPE  H16Y18616   4.512   0.280   8.551 -0.0394 -0.0861 -2.4310
  165SOPE  C31718617   4.610   0.442   8.435 -0.1356 -0.4802 -0.5737
  165SOPE  H17X18618   4.623   0.551   8.453  0.9106 -0.5764 -0.7282
  165SOPE  H17Y18619   4.549   0.430   8.343  0.0652 -0.7279 -0.6740
  165SOPE  C31818620   4.754   0.384   8.425 -0.2850  1.0594  0.9508
  165SOPE  H18X18621   4.805   0.428   8.337 -0.2722 -0.8481 -0.0051
  165SOPE  H18Y18622   4.743   0.276   8.401  0.0451  1.5603 -1.5686
  165SOPE  H18Z18623   4.827   0.396   8.508  0.7844 -1.8178  0.4849
  166SOPE     N18624   0.963   0.571  11.203 -0.4553  0.3712  0.3068
  166SOPE   HN118625   0.960   0.668  11.241  0.1111  0.3963  0.3022
  166SOPE   HN218626   0.876   0.517  11.218  1.5500 -2.8900  0.9064
  166SOPE   HN318627   1.038   0.514  11.249  0.0993 -0.1017 -1.1395
  166SOPE   C1218628   0.983   0.577  11.057 -0.0230 -0.1763 -0.1017
  166SOPE  H12A18629   0.995   0.473  11.020  0.5480 -0.5379  1.0688
  166SOPE  H12B18630   1.080   0.628  11.047  1.9668 -3.5247  1.1719
  166SOPE   C1118631   0.859   0.645  10.996  0.0728  0.1019  0.1441
  166SOPE  H11A18632   0.890   0.691  10.900 -1.6967  1.7832  0.3361
  166SOPE  H11B18633   0.825   0.722  11.068  0.7540  1.5087 -1.0101
  166SOPE     P18634   0.619   0.576  10.909 -0.2765 -0.3569 -0.1174
  166SOPE   O1318635   0.552   0.692  10.973  0.2075  0.3015 -0.2870
  166SOPE   O1418636   0.548   0.447  10.897 -0.6981  0.0643  0.1472
  166SOPE   O1218637   0.758   0.544  10.984 -0.0288 -0.4287  0.0572
  166SOPE   O1118638   0.668   0.623  10.770  0.8809 -0.0912  0.3814
  166SOPE    C118639   0.768   0.544  10.706 -0.0834  0.4004 -0.6198
  166SOPE    HA18640   0.723   0.450  10.668 -1.5898  1.2647 -1.0586
  166SOPE    HB18641   0.861   0.528  10.764 -1.2242 -0.3431  1.0632
  166SOPE    C218642   0.818   0.624  10.583  0.7280 -0.1321  0.3581
  166SOPE    HS18643   0.876   0.553  10.521 -1.0597 -0.4377 -1.0017
  166SOPE   O2118644   0.886   0.745  10.633  0.0908 -0.0647 -0.4060
  166SOPE   C2118645   0.960   0.808  10.542 -0.5516 -0.0261  0.0718
  166SOPE   O2218646   1.004   0.758  10.438  0.0929 -0.2087 -0.3049
  166SOPE   C2218647   0.969   0.953  10.579  0.1489 -0.0845 -0.2120
  166SOPE   H2R18648   1.014   0.967  10.680 -0.3066 -1.7784  0.2375
  166SOPE   H2S18649   0.867   0.996  10.580  0.7636  1.3995  1.5594
  166SOPE    C318650   0.692   0.656  10.483  0.4117 -0.3459 -0.3748
  166SOPE    HX18651   0.621   0.711  10.548 -1.5824 -1.8497 -1.2473
  166SOPE    HY18652   0.638   0.563  10.454  0.1951 -1.0334  2.1305
  166SOPE   O3118653   0.730   0.728  10.366 -0.2513  0.2991 -0.3513
  166SOPE   C3118654   0.767   0.658  10.256  0.0010 -0.0622 -0.1677
  166SOPE   O3218655   0.798   0.540  10.260  0.1399 -0.7311  0.0168
  166SOPE   C3218656   0.779   0.756  10.135  0.1300  0.1286  0.0130
  166SOPE   H2X18657   0.889   0.769  10.120  0.0148  0.5172 -0.5138
  166SOPE   H2Y18658   0.728   0.851  10.158  1.9651  2.1356 -3.7183
  166SOPE   C2318659   1.060   1.014  10.479  0.5542  0.7011  0.5536
  166SOPE   H3R18660   1.017   1.019  10.376  0.1640  1.3584  0.7430
  166SOPE   H3S18661   1.145   0.943  10.472  0.3351  0.4042  0.9297
  166SOPE   C2418662   1.106   1.149  10.533 -0.1994  0.0225  0.3872
  166SOPE   H4R18663   1.076   1.172  10.638  0.1056 -3.9944  1.4349
  166SOPE   H4S18664   1.217   1.143  10.539 -0.2499  0.7416  2.5662
  166SOPE   C2518665   1.064   1.263  10.437 -0.2831 -0.4511 -0.4235
  166SOPE   H5R18666   1.122   1.250  10.344  1.3605 -0.0231  0.5177
  166SOPE   H5S18667   0.954   1.264  10.420 -0.1967  1.8766 -0.9367
  166SOPE   C2618668   1.114   1.402  10.487 -0.6528  0.0280  0.5371
  166SOPE   H6R18669   1.097   1.410  10.596  1.2255 -1.9584  1.0089
  166SOPE   H6S18670   1.224   1.413  10.475 -0.8372  2.5918  0.8235
  166SOPE   C2718671   1.038   1.514  10.418  0.7529  0.2503 -0.4019
  166SOPE   H7R18672   0.930   1.514  10.446  0.8130  1.9619 -0.1091
  166SOPE   H7S18673   1.095   1.607  10.439  2.9448 -1.2800  0.5043
  166SOPE   C2818674   1.019   1.489  10.263  0.2847  0.3328  0.0479
  166SOPE   H8R18675   1.119   1.476  10.216  0.7724 -0.0905  1.1909
  166SOPE   H8S18676   0.961   1.396  10.243 -0.7272  1.0275 -0.3002
  166SOPE   C2918677   0.949   1.595  10.190  0.2345 -0.9131 -0.3378
  166SOPE   H9118678   0.856   1.605  10.247 -1.0413  0.2315 -2.5596
  166SOPE  C21018679   0.977   1.655  10.072  0.3781  1.4419 -0.3257
  166SOPE  H10118680   0.904   1.732  10.046 -0.3448  0.6490 -0.6648
  166SOPE  C21118681   1.089   1.628   9.979 -0.9609  0.1220 -0.2291
  166SOPE  H11R18682   1.149   1.541  10.013 -1.6548 -0.8791 -1.5280
  166SOPE  H11S18683   1.155   1.717   9.984 -1.1187  0.1747  1.1487
  166SOPE  C21218684   1.029   1.602   9.841 -0.2630 -0.2804 -0.0257
  166SOPE  H12R18685   0.960   1.684   9.814  2.9913  3.3076  2.0859
  166SOPE  H12S18686   0.973   1.506   9.845  0.2605 -0.5961 -0.2375
  166SOPE  C21318687   1.135   1.586   9.732 -0.4433 -0.1294  0.5475
  166SOPE  H13R18688   1.207   1.504   9.749 -0.3364 -0.2349 -0.3753
  166SOPE  H13S18689   1.190   1.682   9.733  0.7581 -0.8131  0.3001
  166SOPE  C21418690   1.082   1.563   9.582  0.2114  0.6126 -0.1482
  166SOPE  H14R18691   1.009   1.640   9.552 -0.7472 -0.0942  0.3670
  166SOPE  H14S18692   1.027   1.466   9.576  1.6573 -0.2245 -0.1875
  166SOPE  C21518693   1.193   1.575   9.481  0.1403 -0.6342  0.6538
  166SOPE  H15R18694   1.282   1.520   9.519 -0.3188 -2.4393 -0.8105
  166SOPE  H15S18695   1.228   1.680   9.482 -1.1998 -0.1224 -2.1557
  166SOPE  C21618696   1.156   1.518   9.335  0.4622 -0.9225 -0.8433
  166SOPE  H16R18697   1.049   1.548   9.330  0.9342  1.0852  0.2294
  166SOPE  H16S18698   1.160   1.407   9.334 -5.1776 -1.3232  1.3643
  166SOPE  C21718699   1.234   1.580   9.219 -0.2692 -0.4669  0.1875
  166SOPE  H17R18700   1.343   1.562   9.227 -0.2496 -0.7731 -0.7334
  166SOPE  H17S18701   1.217   1.690   9.227  1.7956 -0.1865  0.8849
  166SOPE  C21818702   1.178   1.536   9.087  0.2183 -0.2933  0.4828
  166SOPE  H18R18703   1.255   1.576   9.016  0.4282  0.7340  1.2760
  166SOPE  H18S18704   1.080   1.585   9.069 -0.5400 -1.2721  1.8511
  166SOPE  H18T18705   1.175   1.426   9.079 -0.5217 -0.1151 -2.3697
  166SOPE   C3318706   0.726   0.696  10.003 -0.2685 -0.4118  0.2795
  166SOPE   H3X18707   0.617   0.676  10.013 -0.4642  0.1805 -0.5644
  166SOPE   H3Y18708   0.787   0.607   9.976  2.3157  0.9185  1.4823
  166SOPE   C3418709   0.755   0.798   9.888  0.3509  0.5316  0.3860
  166SOPE   H4X18710   0.862   0.827   9.894  0.8998 -0.9793 -1.5069
  166SOPE   H4Y18711   0.690   0.885   9.911  0.6335  0.8961 -0.1929
  166SOPE   C3518712   0.722   0.739   9.749 -0.5014  0.3527 -0.8015
  166SOPE   H5X18713   0.640   0.665   9.761 -0.1122 -0.1961 -1.4994
  166SOPE   H5Y18714   0.808   0.674   9.722 -0.8717 -1.1337  1.4509
  166SOPE   C3618715   0.690   0.847   9.640  0.0472  0.1893  0.2221
  166SOPE   H6X18716   0.586   0.886   9.649 -0.0518  0.3914 -1.5483
  166SOPE   H6Y18717   0.686   0.806   9.537 -0.0110  0.7894 -0.0213
  166SOPE   C3718718   0.794   0.959   9.626 -0.3217  0.6235  0.2130
  166SOPE   H7X18719   0.894   0.920   9.596 -0.1948  1.7238 -0.8075
  166SOPE   H7Y18720   0.804   1.029   9.712 -1.3549  2.0281 -0.7928
  166SOPE   C3818721   0.760   1.050   9.511 -0.2398  0.0417 -0.0716
  166SOPE   H8X18722   0.657   1.091   9.516  0.2886  1.1354  3.2313
  166SOPE   H8Y18723   0.774   0.978   9.427 -1.3299  0.0136 -0.2326
  166SOPE   C3918724   0.857   1.168   9.507 -0.1981 -0.2853  0.2554
  166SOPE   H9X18725   0.963   1.136   9.516 -0.6479 -1.3643  1.7393
  166SOPE   H9Y18726   0.827   1.222   9.600  0.0357 -0.2593  0.3151
  166SOPE  C31018727   0.841   1.257   9.380  0.7732  0.6458  0.5050
  166SOPE  H10X18728   0.887   1.354   9.407  1.3974 -0.2478  2.7766
  166SOPE  H10Y18729   0.731   1.271   9.375  0.6736  0.2342  1.3980
  166SOPE  C31118730   0.893   1.197   9.248  0.4344 -0.7453  0.5083
  166SOPE  H11X18731   0.867   1.089   9.240  0.0342 -0.7262  1.4408
  166SOPE  H11Y18732   1.003   1.210   9.239  0.1796 -0.1212 -2.1216
  166SOPE  C31218733   0.831   1.267   9.123 -0.4643  0.1453  0.5613
  166SOPE  H12X18734   0.895   1.251   9.034  1.2459  1.0088  1.5897
  166SOPE  H12Y18735   0.828   1.375   9.149 -0.5092  0.0138  1.1052
  166SOPE  C31318736   0.696   1.217   9.088 -0.4801 -0.2460 -0.5775
  166SOPE  H13X18737   0.632   1.301   9.055  0.7627  1.1445  0.5171
  166SOPE  H13Y18738   0.637   1.176   9.173 -0.8916 -1.0779 -1.2479
  166SOPE  C31418739   0.697   1.119   8.976 -0.1813 -0.0591  0.2739
  166SOPE  H14X18740   0.591   1.099   8.950 -0.2281  0.5053  0.0070
  166SOPE  H14Y18741   0.746   1.023   9.003 -0.0493 -0.8136 -2.5571
  166SOPE  C31518742   0.760   1.159   8.833  0.1103 -0.3358  0.3412
  166SOPE  H15X18743   0.869   1.180   8.839 -0.0582  0.5847  0.2899
  166SOPE  H15Y18744   0.699   1.245   8.798  0.5328 -0.4330 -0.6324
  166SOPE  C31618745   0.735   1.037   8.745  0.1374 -0.0514  0.1348
  166SOPE  H16X18746   0.751   1.074   8.642 -1.0216  1.0528  0.3383
  166SOPE  H16Y18747   0.631   1.003   8.763 -0.2563  1.6255  1.2143
  166SOPE  C31718748   0.835   0.920   8.767 -0.2229  0.6225  0.1636
  166SOPE  H17X18749   0.822   0.872   8.866  2.2753 -2.7082 -1.0300
  166SOPE  H17Y18750   0.938   0.958   8.755  0.0915 -0.7992 -1.9865
  166SOPE  C31818751   0.821   0.801   8.666 -0.4570  0.6727  0.1694
  166SOPE  H18X18752   0.834   0.841   8.563  2.4637  0.2570  0.3292
  166SOPE  H18Y18753   0.720   0.758   8.677 -1.0191  1.1701 -2.7668
  166SOPE  H18Z18754   0.906   0.732   8.687  0.5833  1.9604  0.2346
  167SOPE     N18755   3.334   4.942   6.355 -0.0826  0.1592 -0.5157
  167SOPE   HN118756   3.260   4.877   6.387  0.6884 -0.2973  0.3621
  167SOPE   HN218757   3.426   4.897   6.375 -0.6082 -0.3294  0.8868
  167SOPE   HN318758   3.332   5.026   6.417  0.0914  0.8109 -1.3752
  167SOPE   C1218759   3.321   4.981   6.208  0.0064  0.2239  0.7223
  167SOPE  H12A18760   3.376   5.074   6.183 -0.3335  0.6567  1.5683
  167SOPE  H12B18761   3.212   4.993   6.192  0.3140  2.3963  0.1519
  167SOPE   C1118762   3.380   4.873   6.115 -0.1669  0.6683 -0.1814
  167SOPE  H11A18763   3.390   4.915   6.012 -0.5558  2.2241  0.3994
  167SOPE  H11B18764   3.306   4.791   6.113 -0.7865  1.1890  0.9468
  167SOPE     P18765   3.638   4.897   6.154 -0.3282  0.0556  0.2696
  167SOPE   O1318766   3.617   5.019   6.071 -0.5993  0.1867  0.3474
  167SOPE   O1418767   3.749   4.808   6.114 -0.0227 -0.4259 -0.4026
  167SOPE   O1218768   3.505   4.814   6.163  0.8472  0.2963 -0.0366
  167SOPE   O1118769   3.647   4.930   6.305 -0.9832 -0.0447 -0.6681
  167SOPE    C118770   3.769   4.964   6.368  0.0679 -0.1469  0.7740
  167SOPE    HA18771   3.765   5.072   6.395  2.2978 -0.2694  1.6769
  167SOPE    HB18772   3.852   4.964   6.294  0.8799 -0.0019  1.6775
  167SOPE    C218773   3.805   4.870   6.482 -0.1221 -0.2629 -0.3711
  167SOPE    HS18774   3.815   4.768   6.439 -0.4896  0.0259 -1.1410
  167SOPE   O2118775   3.689   4.877   6.568  0.0278 -0.2786 -0.4556
  167SOPE   C2118776   3.664   4.771   6.651 -0.4807  0.3177  0.6074
  167SOPE   O2218777   3.709   4.658   6.629 -0.0959 -0.4514 -0.3184
  167SOPE   C2218778   3.578   4.815   6.768 -0.1745 -0.5391  0.6910
  167SOPE   H2R18779   3.472   4.795   6.740  0.6772 -1.1495 -2.2984
  167SOPE   H2S18780   3.590   4.922   6.795  0.0564  0.4608 -3.0873
  167SOPE    C318781   3.936   4.908   6.553  0.7984  0.5646 -0.0530
  167SOPE    HX18782   3.937   5.018   6.568 -3.2380  0.5196  1.1597
  167SOPE    HY18783   4.022   4.880   6.489  1.2872  0.7034  0.5380
  167SOPE   O3118784   3.952   4.830   6.670 -0.6606  0.3488 -0.2105
  167SOPE   C3118785   4.057   4.864   6.742 -0.2821  0.2473 -0.6388
  167SOPE   O3218786   4.136   4.948   6.710 -0.1578  0.2892 -0.0902
  167SOPE   C3218787   4.060   4.794   6.874 -0.8599 -0.6145 -0.6303
  167SOPE   H2X18788   4.140   4.718   6.891  2.1537  2.2645 -1.4019
  167SOPE   H2Y18789   3.961   4.744   6.885 -2.8487  2.9399 -1.7875
  167SOPE   C2318790   3.616   4.731   6.893  0.2512  0.1498 -0.7918
  167SOPE   H3R18791   3.726   4.743   6.899  0.1698  0.4579  0.0324
  167SOPE   H3S18792   3.605   4.621   6.887 -0.8340 -0.0950  4.1498
  167SOPE   C2418793   3.546   4.782   7.026  0.1047 -0.0038 -0.2698
  167SOPE   H4R18794   3.560   4.892   7.032 -1.9334  0.3952 -2.2547
  167SOPE   H4S18795   3.439   4.758   7.040 -0.4277  2.7901  0.6142
  167SOPE   C2518796   3.624   4.724   7.146  0.7815 -0.1509 -0.3853
  167SOPE   H5R18797   3.641   4.618   7.119  0.6988  0.0650 -1.3186
  167SOPE   H5S18798   3.723   4.776   7.147 -0.1221  1.6539  3.1716
  167SOPE   C2618799   3.558   4.753   7.276  0.0782 -0.0584  0.1969
  167SOPE   H6R18800   3.519   4.857   7.285 -1.8650 -0.7644  0.1387
  167SOPE   H6S18801   3.473   4.682   7.289 -0.3240  0.3226 -0.3178
  167SOPE   C2718802   3.648   4.736   7.402 -0.2703  0.0228 -0.7063
  167SOPE   H7R18803   3.691   4.635   7.385  0.6679 -0.0464  1.8828
  167SOPE   H7S18804   3.736   4.804   7.393 -1.4228  1.3399 -2.1948
  167SOPE   C2818805   3.565   4.734   7.536  0.1642  0.5089 -0.6816
  167SOPE   H8R18806   3.506   4.641   7.524  1.3219 -0.1137 -1.6434
  167SOPE   H8S18807   3.632   4.706   7.619 -1.5394 -1.8533 -0.0507
  167SOPE   C2918808   3.489   4.867   7.562  0.2384  0.9012  0.0801
  167SOPE   H9118809   3.419   4.900   7.483 -2.6010  0.2412  2.2456
  167SOPE  C21018810   3.499   4.952   7.665  0.1716  0.5535  0.3792
  167SOPE  H10118811   3.431   5.038   7.658 -0.5042 -0.1793 -3.2344
  167SOPE  C21118812   3.596   4.942   7.787  0.0002 -0.1198  0.2082
  167SOPE  H11R18813   3.698   4.928   7.746  1.0310  1.0798  2.2550
  167SOPE  H11S18814   3.575   4.842   7.831 -0.0261  0.5426  1.7420
  167SOPE  C21218815   3.568   5.046   7.891 -0.1048  0.0801 -0.2229
  167SOPE  H12R18816   3.579   5.152   7.861 -0.0902  0.1049 -0.1332
  167SOPE  H12S18817   3.650   5.029   7.965 -0.2950 -0.2324 -0.0826
  167SOPE  C21318818   3.433   5.030   7.958  0.2805  0.2765  0.0126
  167SOPE  H13R18819   3.390   4.928   7.947 -2.1513  1.2400  0.2601
  167SOPE  H13S18820   3.370   5.103   7.903 -0.9008 -1.6065 -1.1912
  167SOPE  C21418821   3.438   5.068   8.105  0.5426 -0.1560  0.0375
  167SOPE  H14R18822   3.452   5.177   8.118  1.9914 -0.4353  0.9610
  167SOPE  H14S18823   3.518   5.019   8.165  3.2866 -0.3232 -3.6331
  167SOPE  C21518824   3.308   5.029   8.176  0.5342  0.3086 -0.0022
  167SOPE  H15R18825   3.309   4.921   8.201  1.6917  0.5225  0.9166
  167SOPE  H15S18826   3.224   5.039   8.103 -0.3900 -2.4442  0.6185
  167SOPE  C21618827   3.282   5.108   8.302  0.1773 -0.0026  0.6075
  167SOPE  H16R18828   3.186   5.074   8.345  0.8525 -1.7856  0.7664
  167SOPE  H16S18829   3.272   5.216   8.279  0.9504  0.2418  1.3860
  167SOPE  C21718830   3.385   5.096   8.420 -0.6201  0.1584 -0.9264
  167SOPE  H17R18831   3.473   5.159   8.394  2.2017 -3.1105  0.3543
  167SOPE  H17S18832   3.423   4.993   8.408  1.3764  1.0843 -2.9058
  167SOPE  C21818833   3.333   5.134   8.560  0.6011  0.1008  0.4664
  167SOPE  H18R18834   3.302   5.240   8.550  1.5284  0.3607  0.2457
  167SOPE  H18S18835   3.394   5.118   8.652 -0.9503 -1.8436  1.1867
  167SOPE  H18T18836   3.243   5.072   8.577  1.0378 -1.3764 -2.3079
  167SOPE   C3318837   4.058   4.897   6.988  0.2739  0.1499 -0.5889
  167SOPE   H3X18838   3.966   4.959   6.981 -0.1323 -0.3667  0.0309
  167SOPE   H3Y18839   4.149   4.957   6.972  2.6706 -3.5493 -1.4719
  167SOPE   C3418840   4.052   4.829   7.128 -0.2653  0.0885 -0.6466
  167SOPE   H4X18841   4.150   4.776   7.132 -0.5941 -0.9566 -4.6186
  167SOPE   H4Y18842   3.964   4.761   7.131 -1.3886  1.5037 -1.1280
  167SOPE   C3518843   4.055   4.931   7.233 -0.2462 -0.3987  0.2353
  167SOPE   H5X18844   3.954   4.975   7.252 -0.7002 -1.6339  0.7618
  167SOPE   H5Y18845   4.133   5.008   7.218  0.1180 -0.6281  0.9291
  167SOPE   C3618846   4.080   4.869   7.379 -1.1676 -0.4008  0.2054
  167SOPE   H6X18847   4.160   4.793   7.384 -1.0113 -0.3046 -0.6562
  167SOPE   H6Y18848   3.994   4.807   7.411 -0.3432 -1.2449  0.8102
  167SOPE   C3718849   4.084   4.987   7.477  0.3433 -0.1391 -0.1121
  167SOPE   H7X18850   3.990   5.045   7.468 -1.5014 -3.2051 -1.6823
  167SOPE   H7Y18851   4.166   5.059   7.456  0.8084  0.1229  2.5085
  167SOPE   C3818852   4.093   4.937   7.627 -0.3627  0.7498  0.4167
  167SOPE   H8X18853   4.184   4.875   7.639 -1.1036 -0.9692 -2.3566
  167SOPE   H8Y18854   4.011   4.863   7.637 -2.2572  2.9246  1.4289
  167SOPE   C3918855   4.094   5.052   7.735  1.2815  0.2342 -0.1050
  167SOPE   H9X18856   4.173   5.124   7.704 -0.9095  2.6914 -0.1263
  167SOPE   H9Y18857   4.129   5.005   7.829  0.3279 -0.4460 -0.0826
  167SOPE  C31018858   3.960   5.124   7.763  0.3159 -0.6801  1.0322
  167SOPE  H10X18859   3.888   5.055   7.812 -0.5726 -0.6788 -0.2768
  167SOPE  H10Y18860   3.919   5.176   7.674  3.4071 -0.4189 -0.3085
  167SOPE  C31118861   3.959   5.230   7.876 -0.3554  0.6327  0.6485
  167SOPE  H11X18862   3.870   5.297   7.874 -1.1147 -0.3866 -2.8997
  167SOPE  H11Y18863   4.038   5.306   7.862  0.5538 -0.2122  1.2047
  167SOPE  C31218864   3.987   5.180   8.010 -0.2991  0.3724  0.3042
  167SOPE  H12X18865   4.090   5.138   8.009 -0.4190  0.0951 -1.1008
  167SOPE  H12Y18866   3.929   5.091   8.042 -1.8295  0.3670 -2.3883
  167SOPE  C31318867   3.979   5.284   8.129  0.5077  0.8065  0.1707
  167SOPE  H13X18868   3.875   5.324   8.133 -0.7549 -2.2049 -1.0435
  167SOPE  H13Y18869   4.044   5.370   8.102 -1.3087  2.2648  0.3042
  167SOPE  C31418870   4.029   5.210   8.254 -0.3062 -0.2087 -0.7126
  167SOPE  H14X18871   4.136   5.184   8.244 -0.0475  0.3291  0.5950
  167SOPE  H14Y18872   3.981   5.110   8.255 -0.9951  0.1179 -0.4716
  167SOPE  C31518873   3.988   5.288   8.390 -0.4429  0.1136  0.1521
  167SOPE  H15X18874   4.025   5.218   8.468 -0.0528 -0.0031 -0.1335
  167SOPE  H15Y18875   3.879   5.276   8.404 -0.6158 -0.5046 -1.5981
  167SOPE  C31618876   4.029   5.438   8.409  0.4108 -0.0777 -0.7798
  167SOPE  H16X18877   4.004   5.458   8.516 -2.3578 -0.8099 -1.2376
  167SOPE  H16Y18878   3.962   5.502   8.348 -0.4777 -0.5432 -0.3101
  167SOPE  C31718879   4.178   5.458   8.386  0.3854 -0.0037  0.0862
  167SOPE  H17X18880   4.196   5.559   8.428 -2.0471 -0.0811  1.3963
  167SOPE  H17Y18881   4.201   5.457   8.277  1.7547 -1.1089  0.3777
  167SOPE  C31818882   4.262   5.353   8.466  0.1267 -0.4667  0.0329
  167SOPE  H18X18883   4.368   5.380   8.484  0.7030 -1.7485 -1.2734
  167SOPE  H18Y18884   4.275   5.263   8.402 -2.6425 -0.7022 -0.2679
  167SOPE  H18Z18885   4.220   5.340   8.568 -0.0541  0.4304  0.0739
  168SOPE     N18886   3.790   1.591   6.036  0.6102 -0.4195 -0.7062
  168SOPE   HN118887   3.712   1.594   6.104  1.6275 -0.4911  0.4720
  168SOPE   HN218888   3.767   1.512   5.972 -2.7267  1.0902 -1.4789
  168SOPE   HN318889   3.869   1.577   6.102 -0.7032  0.0361  0.9832
  168SOPE   C1218890   3.813   1.732   5.977 -0.4868 -0.2106  0.5161
  168SOPE  H12A18891   3.782   1.722   5.870  0.4265 -0.6489  0.2906
  168SOPE  H12B18892   3.923   1.744   5.982 -0.6050  2.6345 -2.0530
  168SOPE   C1118893   3.743   1.841   6.058 -0.9714  0.6997 -0.2576
  168SOPE  H11A18894   3.633   1.825   6.061 -0.8689  0.1446  0.7455
  168SOPE  H11B18895   3.770   1.937   6.009  1.3937 -0.0635 -0.5317
  168SOPE     P18896   3.895   1.942   6.256 -0.1546 -0.1808  0.2324
  168SOPE   O1318897   3.996   1.987   6.155  0.0906 -0.6505 -0.0901
  168SOPE   O1418898   3.950   1.886   6.377  0.3201 -0.3854 -0.7966
  168SOPE   O1218899   3.794   1.841   6.194  0.2132  0.2529  0.4161
  168SOPE   O1118900   3.788   2.056   6.284  0.0271 -0.1413 -0.1700
  168SOPE    C118901   3.685   2.043   6.382  0.4769  0.3402  0.0691
  168SOPE    HA18902   3.680   1.944   6.433  1.5620  0.9544  1.3831
  168SOPE    HB18903   3.593   2.056   6.321  1.9768 -0.2780 -2.3703
  168SOPE    C218904   3.687   2.156   6.487 -0.4607 -0.2827 -0.6680
  168SOPE    HS18905   3.658   2.246   6.429  1.2112  0.3902 -0.4579
  168SOPE   O2118906   3.815   2.176   6.549 -0.6030 -0.4433  0.0081
  168SOPE   C2118907   3.889   2.272   6.491  0.9303  0.4445  0.1931
  168SOPE   O2218908   3.864   2.333   6.390 -0.6033 -0.2615  0.5369
  168SOPE   C2218909   4.014   2.280   6.579 -0.2358 -0.4931 -0.1644
  168SOPE   H2R18910   4.104   2.258   6.518  0.5506  3.5391 -0.5907
  168SOPE   H2S18911   4.014   2.210   6.665  0.7735 -1.2789 -0.7888
  168SOPE    C318912   3.568   2.132   6.597  0.2843  0.3771  0.6039
  168SOPE    HX18913   3.604   2.063   6.677  3.5379  2.1854  0.8348
  168SOPE    HY18914   3.478   2.091   6.548  1.0708 -0.4825 -0.1325
  168SOPE   O3118915   3.535   2.252   6.670 -0.0926  1.0057  0.1514
  168SOPE   C3118916   3.446   2.336   6.614 -0.2527 -0.8487  0.2114
  168SOPE   O3218917   3.398   2.332   6.502  0.5483  0.2442  0.7279
  168SOPE   C3218918   3.415   2.451   6.708  0.3026  0.5291  0.1662
  168SOPE   H2X18919   3.509   2.511   6.699  0.4678  0.4912  1.5626
  168SOPE   H2Y18920   3.420   2.410   6.811  0.3697 -2.3016 -0.9236
  168SOPE   C2318921   4.029   2.421   6.641  0.8995  0.4102  0.4319
  168SOPE   H3R18922   4.019   2.504   6.568  0.6109 -0.9322 -1.0850
  168SOPE   H3S18923   4.129   2.452   6.678  0.3046  1.5802  1.0707
  168SOPE   C2418924   3.938   2.459   6.758  0.3576 -0.3358  0.3437
  168SOPE   H4R18925   3.980   2.553   6.801 -1.5068  0.6184  0.1531
  168SOPE   H4S18926   3.844   2.486   6.706  0.7641  2.6806  1.0964
  168SOPE   C2518927   3.913   2.348   6.854 -0.7025  0.0312  0.7507
  168SOPE   H5R18928   3.846   2.276   6.802  2.3927 -1.8713 -0.7617
  168SOPE   H5S18929   4.002   2.287   6.883  0.4708  1.1246 -0.5070
  168SOPE   C2618930   3.857   2.387   6.996 -0.2616 -0.3341  0.0064
  168SOPE   H6R18931   3.947   2.401   7.060  0.5139 -1.7380 -0.7474
  168SOPE   H6S18932   3.799   2.481   6.979 -2.8804 -2.1951 -1.6924
  168SOPE   C2718933   3.767   2.274   7.047  0.2073  0.0452  0.4961
  168SOPE   H7R18934   3.677   2.264   6.983  1.7144 -0.1853 -1.6303
  168SOPE   H7S18935   3.834   2.185   7.051  1.6359  0.9367 -2.3751
  168SOPE   C2818936   3.736   2.293   7.194 -1.2011 -0.7650  0.3575
  168SOPE   H8R18937   3.676   2.206   7.227 -0.8373 -0.7971  0.9469
  168SOPE   H8S18938   3.833   2.295   7.249 -0.9530 -2.7733  0.0122
  168SOPE   C2918939   3.657   2.420   7.224 -0.8560 -0.7301  0.7999
  168SOPE   H9118940   3.664   2.505   7.154  1.0198 -1.2702  0.3143
  168SOPE  C21018941   3.571   2.424   7.325 -0.3664  0.3667 -0.4656
  168SOPE  H10118942   3.517   2.516   7.350 -0.1529  0.9403 -2.0517
  168SOPE  C21118943   3.549   2.317   7.423 -0.1986  0.2643 -0.1982
  168SOPE  H11R18944   3.640   2.258   7.445 -0.6150 -0.0435  0.6965
  168SOPE  H11S18945   3.470   2.245   7.393 -1.0796 -0.1312  2.9114
  168SOPE  C21218946   3.511   2.383   7.553 -0.2697  0.2007 -0.1487
  168SOPE  H12R18947   3.490   2.294   7.616  2.4459  1.1854  2.1969
  168SOPE  H12S18948   3.415   2.433   7.527 -0.9427 -1.1904 -0.4282
  168SOPE  C21318949   3.604   2.483   7.627  0.0931 -0.0558 -0.3646
  168SOPE  H13R18950   3.626   2.571   7.563  2.2032 -0.1141  0.2298
  168SOPE  H13S18951   3.701   2.434   7.653  1.7768  3.4018  0.1720
  168SOPE  C21418952   3.547   2.522   7.760  0.3073  0.2554  0.0208
  168SOPE  H14R18953   3.475   2.601   7.730 -2.1058 -1.3656  1.3761
  168SOPE  H14S18954   3.627   2.568   7.822  0.7577  0.5546 -0.7745
  168SOPE  C21518955   3.477   2.421   7.854 -0.2332 -0.2654 -0.3336
  168SOPE  H15R18956   3.410   2.362   7.787 -2.4697  1.2654  0.4841
  168SOPE  H15S18957   3.410   2.475   7.925  0.6765  0.2878  0.1008
  168SOPE  C21618958   3.566   2.323   7.933 -0.5560 -0.2546  0.2456
  168SOPE  H16R18959   3.635   2.266   7.868 -2.1732 -0.2875 -1.4867
  168SOPE  H16S18960   3.500   2.245   7.978 -1.5020  1.2340  1.4737
  168SOPE  C21718961   3.647   2.394   8.046 -0.3505 -0.8397  0.0589
  168SOPE  H17R18962   3.707   2.476   8.002 -0.3007 -1.1540 -0.4646
  168SOPE  H17S18963   3.704   2.310   8.091 -0.0114 -1.3332 -1.2686
  168SOPE  C21818964   3.548   2.466   8.141 -0.0082 -0.1983  0.0511
  168SOPE  H18R18965   3.599   2.505   8.232  0.1625  0.1461 -0.1920
  168SOPE  H18S18966   3.473   2.388   8.168 -0.1761  0.0493  0.3081
  168SOPE  H18T18967   3.493   2.546   8.087 -1.3632 -1.8081 -1.0146
  168SOPE   C3318968   3.296   2.538   6.665  0.2137 -0.9548  0.2281
  168SOPE   H3X18969   3.211   2.466   6.668 -1.8889  1.3405 -1.9768
  168SOPE   H3Y18970   3.305   2.580   6.562  1.1708 -0.0537  0.6722
  168SOPE   C3418971   3.260   2.653   6.768  0.2680 -0.5914  0.8318
  168SOPE   H4X18972   3.181   2.717   6.724  1.9202  0.3930 -0.8386
  168SOPE   H4Y18973   3.334   2.736   6.778 -0.6601  0.1714  1.3977
  168SOPE   C3518974   3.212   2.613   6.908 -0.5196 -0.3012 -0.1036
  168SOPE   H5X18975   3.284   2.532   6.935  0.2503  0.4883  0.2383
  168SOPE   H5Y18976   3.118   2.554   6.898 -1.2461  1.0942 -1.9550
  168SOPE   C3618977   3.207   2.730   7.003 -0.0754  0.7165 -0.2495
  168SOPE   H6X18978   3.134   2.810   6.980 -0.5717  0.0350 -1.0870
  168SOPE   H6Y18979   3.304   2.784   7.008  0.1840  0.2011  0.4021
  168SOPE   C3718980   3.190   2.675   7.148  0.3338  0.2947 -0.6437
  168SOPE   H7X18981   3.285   2.622   7.171 -0.6694 -0.3247  2.2747
  168SOPE   H7Y18982   3.116   2.593   7.141  1.2552 -0.9644  3.4444
  168SOPE   C3818983   3.152   2.781   7.254 -0.5698 -0.1720  0.2101
  168SOPE   H8X18984   3.043   2.801   7.250 -0.4199  0.5932 -0.2167
  168SOPE   H8Y18985   3.210   2.876   7.255 -3.4629  1.6576  0.5168
  168SOPE   C3918986   3.183   2.723   7.391  0.1120  0.6753 -0.1677
  168SOPE   H9X18987   3.286   2.683   7.389  0.0182  0.4141  0.2363
  168SOPE   H9Y18988   3.107   2.646   7.415  1.4323  0.3451  3.1777
  168SOPE  C31018989   3.173   2.828   7.510  0.3239  0.5403  0.1102
  168SOPE  H10X18990   3.070   2.867   7.501  0.5818  0.8057 -1.8202
  168SOPE  H10Y18991   3.244   2.911   7.490 -0.1874  0.2411 -3.1932
  168SOPE  C31118992   3.207   2.766   7.643  0.2058  0.3927  0.5579
  168SOPE  H11X18993   3.313   2.737   7.657 -0.5279 -1.7201  2.1678
  168SOPE  H11Y18994   3.160   2.665   7.651  0.3432  0.3341  0.6163
  168SOPE  C31218995   3.177   2.852   7.765 -0.1683 -0.2244 -0.3008
  168SOPE  H12X18996   3.071   2.885   7.764  0.0663  0.6273  1.0430
  168SOPE  H12Y18997   3.243   2.941   7.767  0.2864 -0.5367 -1.1145
  168SOPE  C31318998   3.198   2.767   7.894  0.3658  0.2796  0.0084
  168SOPE  H13X18999   3.306   2.738   7.891  0.8572  2.0225  0.1142
  168SOPE  H13Y19000   3.127   2.682   7.896 -1.0823  1.4361 -1.4248
  168SOPE  C31419001   3.186   2.845   8.023 -0.6222 -0.3739  0.1449
  168SOPE  H14X19002   3.260   2.928   8.021 -0.1673 -0.7985 -0.8671
  168SOPE  H14Y19003   3.224   2.783   8.106  1.0207  1.2681  0.6569
  168SOPE  C31519004   3.044   2.911   8.047  0.2023  0.6909 -0.0288
  168SOPE  H15X19005   2.975   2.826   8.062  1.3951 -1.0364 -3.6904
  168SOPE  H15Y19006   3.015   2.968   7.956 -0.1426 -1.7749 -1.5229
  168SOPE  C31619007   3.056   3.009   8.161 -1.0468 -0.2668  0.5044
  168SOPE  H16X19008   3.073   3.109   8.116 -0.5172 -0.2234  0.7952
  168SOPE  H16Y19009   3.133   2.991   8.239 -0.2028  1.0423  0.0029
  168SOPE  C31719010   2.927   3.002   8.237 -0.1008  0.6985  0.1012
  168SOPE  H17X19011   2.902   2.898   8.265 -3.7674  2.2399  2.8942
  168SOPE  H17Y19012   2.848   3.032   8.165  0.1579  1.1245 -0.0108
  168SOPE  C31819013   2.920   3.089   8.368 -0.1953  0.3102  0.4924
  168SOPE  H18X19014   2.930   3.199   8.354 -1.0240  0.4587  0.9881
  168SOPE  H18Y19015   2.986   3.047   8.447  1.2993  1.0238 -0.3671
  168SOPE  H18Z19016   2.814   3.067   8.394  0.0725 -0.3977  0.9963
  169SOPE     N19017   5.405   4.662   6.344  0.3394  0.2298  0.1283
  169SOPE   HN119018   5.316   4.717   6.354 -0.6047 -1.5544  1.9795
  169SOPE   HN219019   5.466   4.684   6.263  0.0029 -0.7099 -0.3882
  169SOPE   HN319020   5.377   4.562   6.347  0.2127  0.2268 -1.0228
  169SOPE   C1219021   5.487   4.671   6.476  0.3844 -0.1178 -0.8627
  169SOPE  H12A19022   5.416   4.724   6.544 -0.5997 -3.7351  1.0662
  169SOPE  H12B19023   5.580   4.727   6.456  1.3620 -1.7438 -0.9225
  169SOPE   C1119024   5.526   4.531   6.531  0.4209  0.0060 -0.1299
  169SOPE  H11A19025   5.588   4.542   6.622  0.0096  1.1549  0.0212
  169SOPE  H11B19026   5.595   4.488   6.455  0.3755  0.3793 -0.3867
  169SOPE     P19027   5.375   4.330   6.444  0.0795  0.0354 -0.1099
  169SOPE   O1319028   5.323   4.398   6.324 -0.5856 -0.1199  0.2031
  169SOPE   O1419029   5.288   4.227   6.507 -0.5160  0.5410  0.6809
  169SOPE   O1219030   5.414   4.447   6.551  0.0845 -0.1498  0.4512
  169SOPE   O1119031   5.507   4.256   6.401  0.0819  0.0631  0.1859
  169SOPE    C119032   5.556   4.144   6.477  0.6120  0.4606 -0.3833
  169SOPE    HA19033   5.611   4.082   6.403 -1.4573 -3.0831  0.8667
  169SOPE    HB19034   5.473   4.078   6.512  0.2565  1.8247  1.4507
  169SOPE    C219035   5.651   4.174   6.602 -0.3584  0.0729  0.4163
  169SOPE    HS19036   5.681   4.078   6.649 -0.3165 -0.8242 -1.4005
  169SOPE   O2119037   5.584   4.256   6.706 -0.1506 -0.1058  0.7232
  169SOPE   C2119038   5.614   4.237   6.838  1.3477 -0.0506  0.1555
  169SOPE   O2219039   5.682   4.142   6.870 -0.4357  0.0196 -0.0100
  169SOPE   C2219040   5.529   4.338   6.920  0.0336 -0.4794  0.7545
  169SOPE   H2R19041   5.422   4.315   6.901  1.0583 -3.1898 -2.0758
  169SOPE   H2S19042   5.549   4.441   6.886 -0.0841 -0.3888  0.9568
  169SOPE    C319043   5.776   4.251   6.553  0.5912  0.2107  0.3812
  169SOPE    HX19044   5.755   4.339   6.489  1.1250 -0.8001 -1.2101
  169SOPE    HY19045   5.839   4.194   6.482  1.4477 -0.1607  1.4189
  169SOPE   O3119046   5.860   4.283   6.664  0.2080 -0.9181 -0.0981
  169SOPE   C3119047   5.936   4.194   6.724  0.3873  0.0428 -0.1240
  169SOPE   O3219048   5.946   4.078   6.695 -0.6996 -0.3560 -0.3498
  169SOPE   C3219049   6.025   4.269   6.831  0.0701  0.7334 -0.5913
  169SOPE   H2X19050   6.029   4.376   6.803 -0.6550  0.5536 -1.4184
  169SOPE   H2Y19051   6.125   4.222   6.837 -0.5716 -1.0240 -3.0541
  169SOPE   C2319052   5.584   4.338   7.064  0.7472  0.0764  0.1381
  169SOPE   H3R19053   5.530   4.416   7.121  1.4289  0.9590 -0.3977
  169SOPE   H3S19054   5.688   4.378   7.063 -0.5884  3.6835 -1.2338
  169SOPE   C2419055   5.568   4.206   7.146 -0.0705 -0.4013 -0.0496
  169SOPE   H4R19056   5.468   4.163   7.124 -0.6838  0.4770  0.9538
  169SOPE   H4S19057   5.643   4.128   7.119 -3.6342 -3.7830 -0.5708
  169SOPE   C2519058   5.566   4.237   7.300  0.2209 -0.0296  0.1277
  169SOPE   H5R19059   5.672   4.253   7.332  0.1175 -0.4479  0.6979
  169SOPE   H5S19060   5.504   4.328   7.313 -0.7917 -0.7372  0.2552
  169SOPE   C2619061   5.503   4.128   7.380 -0.2305 -0.5039 -0.2534
  169SOPE   H6R19062   5.393   4.126   7.361 -0.2608 -0.3545 -0.0822
  169SOPE   H6S19063   5.543   4.028   7.351  0.4376  0.0768 -1.3976
  169SOPE   C2719064   5.533   4.148   7.527  0.4697  0.1965 -0.1983
  169SOPE   H7R19065   5.642   4.158   7.544  0.5724 -0.4502 -0.4730
  169SOPE   H7S19066   5.505   4.248   7.567 -1.2788 -0.4192  0.1559
  169SOPE   C2819067   5.473   4.056   7.640  0.2275 -0.0322  0.4497
  169SOPE   H8R19068   5.470   4.120   7.731  0.0445  0.0146  0.4112
  169SOPE   H8S19069   5.367   4.039   7.613  0.2819 -1.3765  1.0432
  169SOPE   C2919070   5.526   3.922   7.669 -0.8566 -0.0665 -1.0584
  169SOPE   H9119071   5.473   3.845   7.610 -3.1260  1.5483 -1.1886
  169SOPE  C21019072   5.605   3.883   7.765 -0.1921 -0.1279 -0.0682
  169SOPE  H10119073   5.631   3.777   7.773 -1.1097 -0.4914 -1.5963
  169SOPE  C21119074   5.663   3.957   7.881  0.6568  0.6307 -1.0251
  169SOPE  H11R19075   5.642   4.066   7.870 -2.0067  0.2021 -0.5847
  169SOPE  H11S19076   5.774   3.953   7.878  0.6670  0.7761 -0.8719
  169SOPE  C21219077   5.611   3.894   8.017 -0.1573  0.2326  0.2553
  169SOPE  H12R19078   5.637   3.786   8.016  0.8734  0.4828 -1.0326
  169SOPE  H12S19079   5.502   3.911   8.033  0.0858 -0.2464  2.5998
  169SOPE  C21319080   5.688   3.954   8.145 -0.2290 -0.8327  0.0801
  169SOPE  H13R19081   5.789   3.907   8.150  1.3754  2.5561  1.0713
  169SOPE  H13S19082   5.627   3.919   8.231  0.1866 -1.1436  0.2494
  169SOPE  C21419083   5.711   4.110   8.157  0.5118 -0.4284  0.5338
  169SOPE  H14R19084   5.613   4.159   8.138  0.3895 -0.6955  0.4712
  169SOPE  H14S19085   5.785   4.132   8.076 -0.7021  3.5075  0.4003
  169SOPE  C21519086   5.772   4.148   8.286 -0.2935 -0.8966 -0.0461
  169SOPE  H15R19087   5.852   4.077   8.316  1.2986  0.5873 -0.7278
  169SOPE  H15S19088   5.697   4.149   8.368 -3.3531  0.6788 -2.7309
  169SOPE  C21619089   5.843   4.283   8.264  1.6172  0.8360 -0.6001
  169SOPE  H16R19090   5.758   4.352   8.245 -0.1859 -0.6933  1.6640
  169SOPE  H16S19091   5.905   4.275   8.172  0.9478 -0.3778 -0.9499
  169SOPE  C21719092   5.918   4.325   8.384 -1.0131  0.4591  0.6614
  169SOPE  H17R19093   5.988   4.245   8.415 -0.1087 -0.1035 -2.6508
  169SOPE  H17S19094   5.859   4.339   8.478  0.8619 -1.6400  2.2066
  169SOPE  C21819095   6.011   4.443   8.350 -0.0076  0.2650 -0.5321
  169SOPE  H18R19096   5.952   4.527   8.308 -0.8792 -0.1083 -0.0748
  169SOPE  H18S19097   6.088   4.409   8.278  0.9914  0.1917  0.5592
  169SOPE  H18T19098   6.065   4.482   8.439  0.2625  2.1190 -1.4948
  169SOPE   C3319099   5.972   4.268   6.976  0.0880 -0.4878 -0.5984
  169SOPE   H3X19100   5.970   4.160   7.004  0.4778  0.0591  1.6663
  169SOPE   H3Y19101   5.866   4.302   6.986  0.8352  1.1381  2.5584
  169SOPE   C3419102   6.053   4.351   7.072 -0.6539  0.3002 -0.3512
  169SOPE   H4X19103   6.088   4.447   7.028  1.6376  0.2048  1.1257
  169SOPE   H4Y19104   6.151   4.302   7.090 -1.3419 -2.6079 -3.9152
  169SOPE   C3519105   5.971   4.384   7.199 -0.3327 -0.3073 -0.6277
  169SOPE   H5X19106   5.902   4.297   7.212 -0.5971  0.3413  2.4803
  169SOPE   H5Y19107   5.912   4.477   7.186  1.9813  1.2117 -0.4250
  169SOPE   C3619108   6.053   4.383   7.331  0.1569 -0.3670  0.3866
  169SOPE   H6X19109   6.118   4.473   7.339 -0.6883  0.2695  0.1808
  169SOPE   H6Y19110   6.124   4.298   7.337  1.7835  0.7756 -2.0141
  169SOPE   C3719111   5.966   4.355   7.452 -0.0513 -0.1661 -0.1736
  169SOPE   H7X19112   6.028   4.328   7.541  0.5623  1.9635  0.0665
  169SOPE   H7Y19113   5.902   4.269   7.423 -1.2892  1.4922 -2.5169
  169SOPE   C3819114   5.883   4.485   7.509 -0.0231 -0.1289  0.2356
  169SOPE   H8X19115   5.959   4.543   7.566 -0.4972 -2.2937  3.1659
  169SOPE   H8Y19116   5.855   4.540   7.417  0.9674  1.5146  0.8959
  169SOPE   C3919117   5.767   4.446   7.606 -0.1840 -0.5805  0.2063
  169SOPE   H9X19118   5.671   4.420   7.556  0.5980 -1.7880 -0.6945
  169SOPE   H9Y19119   5.743   4.540   7.660  0.7284  0.6247 -1.4614
  169SOPE  C31019120   5.795   4.326   7.705 -0.1990  0.2121  0.7942
  169SOPE  H10X19121   5.892   4.341   7.755 -0.7623 -0.2426  2.0461
  169SOPE  H10Y19122   5.780   4.228   7.653  0.4352  1.0425 -1.0042
  169SOPE  C31119123   5.702   4.343   7.823 -0.1518  0.2928 -0.1426
  169SOPE  H11X19124   5.686   4.250   7.881  2.0224  0.0081  0.0639
  169SOPE  H11Y19125   5.597   4.374   7.806 -0.6629 -1.3811 -0.0913
  169SOPE  C31219126   5.773   4.443   7.917 -0.2416 -0.9006 -0.3967
  169SOPE  H12X19127   5.816   4.529   7.862  1.8067 -1.5202  0.2087
  169SOPE  H12Y19128   5.857   4.392   7.968  1.2898  0.4402 -1.5507
  169SOPE  C31319129   5.688   4.510   8.028  0.5464  0.1025 -0.6814
  169SOPE  H13X19130   5.744   4.554   8.113  1.8803  0.6821 -1.8488
  169SOPE  H13Y19131   5.615   4.437   8.068  2.9131 -1.7556  0.3621
  169SOPE  C31419132   5.608   4.627   7.975 -0.1111 -0.4540  0.1391
  169SOPE  H14X19133   5.576   4.632   7.868 -1.6462  0.1585  0.6157
  169SOPE  H14Y19134   5.660   4.724   7.966 -2.8359  0.9610 -1.3429
  169SOPE  C31519135   5.473   4.667   8.054  0.1235  0.2960 -0.9937
  169SOPE  H15X19136   5.429   4.758   8.007 -0.1742  1.1432  0.9008
  169SOPE  H15Y19137   5.502   4.696   8.157 -0.3836  3.4146 -1.6699
  169SOPE  C31619138   5.373   4.551   8.063  0.2098 -0.0384  0.4522
  169SOPE  H16X19139   5.412   4.474   8.132  2.2476  0.4314 -0.1514
  169SOPE  H16Y19140   5.368   4.510   7.960  4.1646 -1.0635  0.5990
  169SOPE  C31719141   5.236   4.613   8.102 -0.8099 -0.5356 -0.6763
  169SOPE  H17X19142   5.161   4.534   8.081  0.0114 -1.0055 -1.9661
  169SOPE  H17Y19143   5.207   4.697   8.036  0.5901  1.3500  1.0277
  169SOPE  C31819144   5.220   4.671   8.244  0.3858 -0.3190  0.4563
  169SOPE  H18X19145   5.189   4.590   8.314  3.0658 -2.1020 -0.3521
  169SOPE  H18Y19146   5.139   4.747   8.254 -0.2129 -1.1088  1.7776
  169SOPE  H18Z19147   5.314   4.712   8.287  0.6675  0.0802 -0.5266
  170SOPE     N19148   6.666   2.592   6.339 -0.1455 -0.4711 -0.0717
  170SOPE   HN119149   6.701   2.600   6.437 -0.2373  1.0440 -0.1578
  170SOPE   HN219150   6.691   2.496   6.308 -2.7227 -0.9440 -0.8485
  170SOPE   HN319151   6.716   2.659   6.278 -1.0518  0.6270  0.3645
  170SOPE   C1219152   6.517   2.611   6.335  0.1567 -0.1440 -0.9459
  170SOPE  H12A19153   6.489   2.590   6.230 -2.3924 -2.0720  0.0764
  170SOPE  H12B19154   6.494   2.715   6.368 -1.4779 -1.1702  1.2693
  170SOPE   C1119155   6.437   2.526   6.434  0.2474 -0.1133  0.6048
  170SOPE  H11A19156   6.413   2.418   6.420  1.0624 -0.5594  2.5627
  170SOPE  H11B19157   6.341   2.583   6.438  0.3486  0.0256  1.0674
  170SOPE     P19158   6.584   2.440   6.638  0.0752  0.4244  0.3083
  170SOPE   O1319159   6.718   2.452   6.581  0.2613 -0.5457  0.1926
  170SOPE   O1419160   6.525   2.303   6.626  0.0588  0.4797 -0.5380
  170SOPE   O1219161   6.493   2.544   6.557 -0.1998  0.0075 -0.1607
  170SOPE   O1119162   6.566   2.478   6.789  0.4277  0.6929  0.8600
  170SOPE    C119163   6.538   2.617   6.818  0.3434  0.2271  0.0066
  170SOPE    HA19164   6.488   2.670   6.735  1.5380  0.1284 -0.7882
  170SOPE    HB19165   6.635   2.664   6.843  0.0813 -0.5531  2.7200
  170SOPE    C219166   6.442   2.627   6.944 -0.4221 -0.5480 -0.3628
  170SOPE    HS19167   6.426   2.735   6.961  1.6697 -0.4616  1.3161
  170SOPE   O2119168   6.493   2.570   7.062 -0.0014 -0.2240  0.5662
  170SOPE   C2119169   6.570   2.649   7.137  0.8547 -0.3811 -0.0219
  170SOPE   O2219170   6.605   2.765   7.109  0.0996  0.1536  0.6998
  170SOPE   C2219171   6.577   2.584   7.278  0.2845  0.1226 -0.0735
  170SOPE   H2R19172   6.652   2.502   7.284 -0.4385 -0.3719  2.8467
  170SOPE   H2S19173   6.472   2.550   7.296 -0.2837  1.6614 -0.4113
  170SOPE    C319174   6.293   2.574   6.913  0.9494 -0.4005  0.0702
  170SOPE    HX19175   6.312   2.471   6.875  0.0809  0.0628 -1.6744
  170SOPE    HY19176   6.251   2.635   6.830  1.0739 -1.4834 -0.8000
  170SOPE   O3119177   6.202   2.571   7.031 -0.4191 -0.8942 -0.2284
  170SOPE   C3119178   6.145   2.687   7.064 -0.1852  0.8326  0.4289
  170SOPE   O3219179   6.150   2.787   6.992  0.5982 -0.2075  0.1136
  170SOPE   C3219180   6.080   2.676   7.206 -0.0205  0.8685 -0.0204
  170SOPE   H2X19181   6.164   2.664   7.278  0.0199 -2.1064 -0.5161
  170SOPE   H2Y19182   6.014   2.587   7.212  0.6951  0.5250  3.7005
  170SOPE   C2319183   6.618   2.684   7.391  0.2735  0.3569 -0.7825
  170SOPE   H3R19184   6.524   2.736   7.417 -1.9605 -1.7661 -4.2730
  170SOPE   H3S19185   6.694   2.756   7.353  0.2761  1.2879  0.9271
  170SOPE   C2419186   6.679   2.607   7.508  0.5253 -0.8250 -0.0484
  170SOPE   H4R19187   6.625   2.512   7.527 -1.1678  0.2055  0.3423
  170SOPE   H4S19188   6.783   2.578   7.482 -0.0601 -3.3065  0.2312
  170SOPE   C2519189   6.687   2.685   7.638  0.1415  0.0120  0.5130
  170SOPE   H5R19190   6.740   2.783   7.632  1.0805 -0.2507  3.5502
  170SOPE   H5S19191   6.580   2.712   7.654 -0.1085  0.5066 -1.7646
  170SOPE   C2619192   6.753   2.606   7.748  0.3895 -0.3954 -0.6250
  170SOPE   H6R19193   6.686   2.522   7.778  0.2662 -0.1716 -0.2679
  170SOPE   H6S19194   6.849   2.561   7.716 -1.0873 -3.0822 -1.4092
  170SOPE   C2719195   6.775   2.684   7.876  0.2915 -0.1927  0.1043
  170SOPE   H7R19196   6.852   2.764   7.868 -0.9213  0.9145 -0.8134
  170SOPE   H7S19197   6.685   2.737   7.913  0.0029  1.0613 -2.2717
  170SOPE   C2819198   6.833   2.586   7.978 -0.4129  0.1210 -0.3905
  170SOPE   H8R19199   6.772   2.495   7.965 -0.5712  0.5153 -2.5717
  170SOPE   H8S19200   6.937   2.555   7.953  1.2927  4.0239  1.3484
  170SOPE   C2919201   6.848   2.642   8.115 -0.0999  0.0051  0.0561
  170SOPE   H9119202   6.869   2.748   8.136 -0.0304  0.0867 -0.4353
  170SOPE  C21019203   6.822   2.571   8.227  0.0119 -0.0927  0.0243
  170SOPE  H10119204   6.844   2.612   8.327  1.5280  0.4841 -0.5402
  170SOPE  C21119205   6.766   2.431   8.234 -0.0005  0.2985 -0.7310
  170SOPE  H11R19206   6.849   2.362   8.261  0.0234  0.8027  0.5053
  170SOPE  H11S19207   6.721   2.393   8.139 -0.2028 -1.2221 -0.0448
  170SOPE  C21219208   6.668   2.412   8.340 -0.0978 -0.4746 -1.1711
  170SOPE  H12R19209   6.707   2.457   8.433 -1.6959 -0.7760 -0.3311
  170SOPE  H12S19210   6.670   2.301   8.353  1.8265 -0.1195  1.8642
  170SOPE  C21319211   6.521   2.442   8.304 -0.1904  0.0634 -1.3464
  170SOPE  H13R19212   6.501   2.421   8.197  1.2417  0.6049 -1.7335
  170SOPE  H13S19213   6.507   2.551   8.320 -1.0167 -0.2521  0.1878
  170SOPE  C21419214   6.421   2.371   8.396  0.3284  0.0482 -0.9437
  170SOPE  H14R19215   6.422   2.261   8.379 -1.9342 -0.4888  1.9531
  170SOPE  H14S19216   6.319   2.413   8.382 -0.3568 -1.1444  0.3942
  170SOPE  C21519217   6.440   2.396   8.554  0.1366  0.1947  0.7056
  170SOPE  H15R19218   6.429   2.506   8.563  2.7073  0.5894 -0.3477
  170SOPE  H15S19219   6.545   2.370   8.581 -0.7837  0.4689  4.9176
  170SOPE  C21619220   6.329   2.339   8.644  0.4825  0.0238 -0.5829
  170SOPE  H16R19221   6.317   2.236   8.604  0.8397 -0.1467 -0.2503
  170SOPE  H16S19222   6.238   2.395   8.614 -0.4460 -0.4827  1.2255
  170SOPE  C21719223   6.361   2.351   8.791  0.2583  0.8622  0.0092
  170SOPE  H17R19224   6.381   2.456   8.822 -0.9364  0.5333  1.9750
  170SOPE  H17S19225   6.448   2.286   8.817 -1.0514 -0.3686  1.3934
  170SOPE  C21819226   6.246   2.304   8.889  0.3318  0.0692  0.1580
  170SOPE  H18R19227   6.152   2.344   8.846  1.2815  1.3402 -0.7783
  170SOPE  H18S19228   6.253   2.351   8.990  1.7872 -0.0471  0.1138
  170SOPE  H18T19229   6.231   2.195   8.878 -0.4780  0.2388 -0.4953
  170SOPE   C3319230   5.995   2.800   7.232 -1.0614  0.8548  0.4580
  170SOPE   H3X19231   5.917   2.798   7.152  0.8533 -2.5519 -1.4700
  170SOPE   H3Y19232   6.044   2.899   7.231 -0.4654  0.5640 -1.7597
  170SOPE   C3419233   5.924   2.785   7.363  1.0122 -1.5819 -0.7769
  170SOPE   H4X19234   5.853   2.699   7.362 -0.7131 -0.1899  0.2892
  170SOPE   H4Y19235   5.873   2.883   7.372  0.4394 -2.0189  0.7397
  170SOPE   C3519236   6.011   2.772   7.485  0.4347 -0.3726 -0.1564
  170SOPE   H5X19237   6.084   2.854   7.500 -0.6375  0.6318 -0.3314
  170SOPE   H5Y19238   6.071   2.679   7.482 -2.1324 -2.0644 -0.7924
  170SOPE   C3619239   5.928   2.768   7.610 -0.5665 -0.1402  0.3754
  170SOPE   H6X19240   5.875   2.671   7.619 -0.1812 -0.4051 -0.2238
  170SOPE   H6Y19241   5.844   2.840   7.598  0.2387  0.8143  0.3739
  170SOPE   C3719242   6.020   2.785   7.728 -0.1127 -0.1251 -0.8080
  170SOPE   H7X19243   6.062   2.887   7.721  0.0506 -0.2215 -1.2829
  170SOPE   H7Y19244   6.105   2.714   7.723  0.8612  0.9422  0.3341
  170SOPE   C3819245   5.942   2.763   7.858  0.4968  0.0023 -0.0529
  170SOPE   H8X19246   5.901   2.660   7.857 -2.8338  1.2565 -0.3404
  170SOPE   H8Y19247   5.861   2.838   7.870  0.3609 -0.0498 -0.6165
  170SOPE   C3919248   6.026   2.771   7.985  0.6092  0.0507 -0.4997
  170SOPE   H9X19249   6.028   2.882   7.991 -1.2374  0.1915 -2.1129
  170SOPE   H9Y19250   6.125   2.726   7.964  0.1415 -0.7665 -0.9856
  170SOPE  C31019251   5.965   2.705   8.115 -0.0758  0.5503 -0.8234
  170SOPE  H10X19252   5.934   2.599   8.101  0.8807  0.0501  0.6851
  170SOPE  H10Y19253   5.872   2.761   8.138  0.2691  1.1711 -0.9550
  170SOPE  C31119254   6.044   2.720   8.244  1.0868 -0.3082 -0.3237
  170SOPE  H11X19255   6.089   2.821   8.244  1.2370 -0.3705 -1.1430
  170SOPE  H11Y19256   6.127   2.647   8.248  1.8528  0.6612  1.7349
  170SOPE  C31219257   5.959   2.700   8.370  0.1754 -0.0153  0.7146
  170SOPE  H12X19258   5.927   2.595   8.359  1.6873 -0.7679  2.9990
  170SOPE  H12Y19259   5.865   2.760   8.371  0.6221  0.6953  0.6885
  170SOPE  C31319260   6.037   2.708   8.498 -0.1957 -0.3135  0.1835
  170SOPE  H13X19261   6.061   2.817   8.505 -0.5654 -0.2885  1.1066
  170SOPE  H13Y19262   6.126   2.644   8.483  1.8267  2.4121  0.1929
  170SOPE  C31419263   5.957   2.674   8.621  0.0106 -0.5666 -0.5192
  170SOPE  H14X19264   5.875   2.748   8.629  0.8527  0.2699  0.6625
  170SOPE  H14Y19265   6.022   2.684   8.711 -0.8940 -3.9582  0.5952
  170SOPE  C31519266   5.902   2.532   8.623  0.4449  0.9537 -0.4293
  170SOPE  H15X19267   5.970   2.472   8.559 -0.0184 -1.4516  1.2401
  170SOPE  H15Y19268   5.802   2.539   8.575  0.2731  0.0038 -0.2259
  170SOPE  C31619269   5.885   2.479   8.767  0.0822 -0.2844 -0.2965
  170SOPE  H16X19270   5.854   2.557   8.840  0.9243  1.5312 -1.8500
  170SOPE  H16Y19271   5.990   2.453   8.790 -0.5286 -3.8881 -1.2717
  170SOPE  C31719272   5.814   2.347   8.791  0.3388 -0.4945  0.0536
  170SOPE  H17X19273   5.854   2.265   8.727  0.1763 -0.2629 -0.3447
  170SOPE  H17Y19274   5.704   2.335   8.776 -0.2743 -0.9459  4.2612
  170SOPE  C31819275   5.845   2.303   8.936 -0.1323  0.1183 -0.1189
  170SOPE  H18X19276   5.821   2.383   9.009  0.4225  0.2823 -0.1126
  170SOPE  H18Y19277   5.952   2.276   8.948 -0.4060 -0.5691  0.7661
  170SOPE  H18Z19278   5.780   2.216   8.958 -0.6974  0.1298 -1.6418
  171SOPE     N19279   0.367   5.788   6.437  0.2834  0.1667  0.1359
  171SOPE   HN119280   0.454   5.841   6.418  0.1839  0.8803  1.6289
  171SOPE   HN219281   0.356   5.691   6.399 -0.6007  0.3311 -0.0518
  171SOPE   HN319282   0.295   5.857   6.407 -0.2995  0.5441  2.3377
  171SOPE   C1219283   0.333   5.763   6.585 -0.5078 -0.0591 -0.2567
  171SOPE  H12A19284   0.358   5.855   6.641 -2.9305  0.6495 -0.2538
  171SOPE  H12B19285   0.395   5.679   6.623 -1.9024 -0.1465  1.9585
  171SOPE   C1119286   0.186   5.737   6.615 -0.5190  0.6757 -0.1483
  171SOPE  H11A19287   0.119   5.825   6.606 -0.3557  0.9330  1.0709
  171SOPE  H11B19288   0.167   5.700   6.718 -0.9196 -0.0142 -0.4719
  171SOPE     P19289   0.035   5.685   6.414 -0.3226 -0.3428  0.1226
  171SOPE   O1319290   0.025   5.577   6.317  0.4502  0.4091 -0.0503
  171SOPE   O1419291   0.075   5.820   6.368 -0.2559  0.0600 -0.2268
  171SOPE   O1219292   0.145   5.642   6.517  0.2942  0.1108 -0.1537
  171SOPE   O1119293  -0.096   5.708   6.507 -0.6470 -0.2794  0.8181
  171SOPE    C119294  -0.128   5.620   6.612  0.5900 -0.8952 -0.2599
  171SOPE    HA19295  -0.072   5.655   6.701 -0.9694 -0.9721  0.7576
  171SOPE    HB19296  -0.104   5.513   6.593  2.4093 -0.4568 -0.5222
  171SOPE    C219297  -0.268   5.613   6.666 -0.2767 -0.1728  0.7531
  171SOPE    HS19298  -0.331   5.577   6.581 -1.2542 -0.6975  1.6747
  171SOPE   O2119299  -0.303   5.747   6.707  0.1146 -0.1328  0.1092
  171SOPE   C2119300  -0.426   5.775   6.709 -0.0678  0.7423  0.8577
  171SOPE   O2219301  -0.517   5.697   6.673 -0.3194 -0.2348  0.4539
  171SOPE   C2219302  -0.436   5.909   6.771  0.4439  0.1902 -1.0523
  171SOPE   H2R19303  -0.535   5.950   6.742 -1.6381 -2.3111  2.1915
  171SOPE   H2S19304  -0.354   5.976   6.736 -0.0667  1.1975 -0.3442
  171SOPE    C319305  -0.276   5.517   6.789  0.6372 -0.1079  0.3461
  171SOPE    HX19306  -0.245   5.417   6.752  0.6846  0.8221 -2.1993
  171SOPE    HY19307  -0.384   5.525   6.815  0.2981 -1.5160 -0.6052
  171SOPE   O3119308  -0.194   5.551   6.901 -0.1710  0.0433  0.4242
  171SOPE   C3119309  -0.261   5.577   7.018 -0.6126  0.6518  0.3478
  171SOPE   O3219310  -0.380   5.562   7.032  0.0481 -0.0772  0.0512
  171SOPE   C3219311  -0.164   5.608   7.135  0.0389 -0.0448 -0.9588
  171SOPE   H2X19312  -0.101   5.694   7.102  0.0100  0.2920 -0.1532
  171SOPE   H2Y19313  -0.103   5.518   7.154  2.4639  1.7373 -0.0014
  171SOPE   C2319314  -0.422   5.897   6.924 -0.3325  0.0689  0.4680
  171SOPE   H3R19315  -0.337   5.834   6.957 -0.8741 -0.9627 -0.0747
  171SOPE   H3S19316  -0.510   5.836   6.955 -1.1551  0.5140 -0.9308
  171SOPE   C2419317  -0.424   6.032   6.995  0.0848  0.5235  0.3008
  171SOPE   H4R19318  -0.327   6.084   6.976  0.3943  0.0259  0.4840
  171SOPE   H4S19319  -0.500   6.086   6.936 -0.2583  1.0575  1.2236
  171SOPE   C2519320  -0.465   6.014   7.149  0.9523 -0.2964 -0.0492
  171SOPE   H5R19321  -0.561   5.958   7.150  0.4440  0.5619  0.7403
  171SOPE   H5S19322  -0.384   5.964   7.206  1.8279 -0.0843 -1.0989
  171SOPE   C2619323  -0.505   6.149   7.214 -0.2183  0.3981  0.1753
  171SOPE   H6R19324  -0.417   6.215   7.225 -0.8596  1.4293 -0.8082
  171SOPE   H6S19325  -0.582   6.197   7.149  2.2832  0.3581 -2.9779
  171SOPE   C2719326  -0.576   6.127   7.352  0.6934 -0.8047  0.0859
  171SOPE   H7R19327  -0.601   6.227   7.394 -1.0579 -0.9319 -0.6114
  171SOPE   H7S19328  -0.677   6.085   7.334  0.4250 -0.1791  0.1095
  171SOPE   C2819329  -0.511   6.044   7.458 -0.2609  0.9251 -0.4125
  171SOPE   H8R19330  -0.584   6.040   7.543 -2.3129 -0.5285 -2.1733
  171SOPE   H8S19331  -0.504   5.942   7.415  0.2288  1.2841 -1.1761
  171SOPE   C2919332  -0.375   6.100   7.481  0.4793  0.0603 -0.2447
  171SOPE   H9119333  -0.296   6.076   7.409 -0.3137  1.1405 -1.4889
  171SOPE  C21019334  -0.343   6.170   7.599  0.2469  0.4292  0.2521
  171SOPE  H10119335  -0.236   6.194   7.599 -0.1776  2.4378 -0.5702
  171SOPE  C21119336  -0.432   6.197   7.724 -0.1786 -0.5050 -0.0813
  171SOPE  H11R19337  -0.538   6.191   7.693 -0.5998 -1.3545  1.4875
  171SOPE  H11S19338  -0.407   6.293   7.775 -2.8221  0.1552  0.0203
  171SOPE  C21219339  -0.404   6.099   7.836  0.2023 -0.1470  0.0737
  171SOPE  H12R19340  -0.301   6.108   7.877  0.0648  0.9304  0.2223
  171SOPE  H12S19341  -0.407   6.002   7.782 -0.9797 -0.0611 -0.0356
  171SOPE  C21319342  -0.497   6.086   7.956  0.0297 -0.5902  0.0009
  171SOPE  H13R19343  -0.451   6.019   8.032 -0.1643  0.7773  1.3565
  171SOPE  H13S19344  -0.581   6.027   7.915  0.9475 -0.5358 -1.9963
  171SOPE  C21419345  -0.556   6.212   8.016 -0.4129  0.0398  1.0967
  171SOPE  H14R19346  -0.578   6.281   7.932  0.8342  0.5387  1.1704
  171SOPE  H14S19347  -0.472   6.258   8.071 -2.0422  2.3378  1.7194
  171SOPE  C21519348  -0.682   6.174   8.096 -0.4652 -0.3790  0.2600
  171SOPE  H15R19349  -0.752   6.121   8.028 -1.5127  0.1464  0.9112
  171SOPE  H15S19350  -0.730   6.267   8.134  1.6299  1.7810 -2.2132
  171SOPE  C21619351  -0.646   6.078   8.211 -0.3688  0.4506 -0.1483
  171SOPE  H16R19352  -0.563   6.114   8.276 -0.0397  2.7354 -1.7438
  171SOPE  H16S19353  -0.613   5.980   8.172  1.7626  0.5947  1.2059
  171SOPE  C21719354  -0.765   6.060   8.299  0.4228 -0.4983 -0.6284
  171SOPE  H17R19355  -0.835   5.989   8.250 -0.4724 -0.7914  1.0479
  171SOPE  H17S19356  -0.823   6.153   8.321  0.0170 -1.0943  0.8870
  171SOPE  C21819357  -0.731   5.999   8.430 -0.1388  0.0872  0.2949
  171SOPE  H18R19358  -0.679   6.071   8.496 -0.6143 -0.6080  1.4397
  171SOPE  H18S19359  -0.670   5.907   8.416 -0.4273  0.0700 -0.9418
  171SOPE  H18T19360  -0.819   5.962   8.486  1.1591 -0.8196  1.7503
  171SOPE   C3319361  -0.249   5.648   7.261  0.1592 -0.1096 -0.5810
  171SOPE   H3X19362  -0.304   5.564   7.307 -0.1772  0.1081 -0.5889
  171SOPE   H3Y19363  -0.320   5.728   7.234 -0.8172 -1.1247 -1.0692
  171SOPE   C3419364  -0.158   5.698   7.375 -0.4058  0.5941  0.3536
  171SOPE   H4X19365  -0.101   5.786   7.335  0.3116 -0.3799 -0.8008
  171SOPE   H4Y19366  -0.080   5.623   7.399 -0.5322  0.7909  1.3933
  171SOPE   C3519367  -0.244   5.730   7.491  0.4683  0.1072  0.0549
  171SOPE   H5X19368  -0.351   5.721   7.460  0.2482 -0.2331  0.8836
  171SOPE   H5Y19369  -0.224   5.837   7.512 -1.4308  0.5894 -0.4448
  171SOPE   C3619370  -0.215   5.639   7.616 -0.0635 -0.2486 -0.0412
  171SOPE   H6X19371  -0.104   5.631   7.605 -0.1565 -1.6540 -0.0411
  171SOPE   H6Y19372  -0.251   5.535   7.602  3.2768 -1.3204 -1.2861
  171SOPE   C3719373  -0.257   5.684   7.754  0.1417  0.0886 -0.1581
  171SOPE   H7X19374  -0.356   5.645   7.786 -0.8020  3.2662  0.9759
  171SOPE   H7Y19375  -0.258   5.795   7.761  0.1255  0.0828 -0.0735
  171SOPE   C3819376  -0.168   5.634   7.873  0.1075  0.3563 -0.7775
  171SOPE   H8X19377  -0.077   5.696   7.882  0.0660  0.4052 -0.6872
  171SOPE   H8Y19378  -0.140   5.527   7.860  3.2950  0.7925  1.8654
  171SOPE   C3919379  -0.220   5.640   8.020  0.0334  0.5471  0.0947
  171SOPE   H9X19380  -0.137   5.607   8.086 -0.5141  1.5134  1.3013
  171SOPE   H9Y19381  -0.307   5.571   8.031  1.3773 -1.5625 -2.2474
  171SOPE  C31019382  -0.262   5.780   8.057 -0.6631  0.6109 -0.3501
  171SOPE  H10X19383  -0.323   5.830   7.979 -1.7376 -0.5896 -0.2913
  171SOPE  H10Y19384  -0.176   5.849   8.070  0.2207 -0.6934  0.9855
  171SOPE  C31119385  -0.349   5.796   8.184  0.3197  0.7070 -0.6263
  171SOPE  H11X19386  -0.430   5.722   8.169  0.8845  0.2182 -1.3145
  171SOPE  H11Y19387  -0.410   5.888   8.193 -0.1432  0.5871 -2.2584
  171SOPE  C31219388  -0.266   5.788   8.318  0.2492  0.5276  0.1682
  171SOPE  H12X19389  -0.205   5.880   8.319  0.5401  0.3292  0.5261
  171SOPE  H12Y19390  -0.200   5.699   8.313  1.3651  1.2243  2.0312
  171SOPE  C31319391  -0.363   5.775   8.437  0.3418  0.3981 -0.0189
  171SOPE  H13X19392  -0.432   5.861   8.426 -0.6421 -0.4319 -0.2828
  171SOPE  H13Y19393  -0.315   5.795   8.536 -0.9536  2.6012  0.1979
  171SOPE  C31419394  -0.442   5.642   8.443  0.0650 -0.2074 -0.6572
  171SOPE  H14X19395  -0.373   5.556   8.457 -1.8062 -1.5268  0.7165
  171SOPE  H14Y19396  -0.500   5.633   8.348  0.0910 -1.8160 -0.5363
  171SOPE  C31519397  -0.548   5.639   8.560 -0.0092  0.0957 -0.2915
  171SOPE  H15X19398  -0.632   5.701   8.524 -0.1677 -0.0427 -0.1567
  171SOPE  H15Y19399  -0.498   5.678   8.651  4.4082 -2.6171 -1.4040
  171SOPE  C31619400  -0.595   5.492   8.569 -0.1310  0.0262  0.1316
  171SOPE  H16X19401  -0.501   5.436   8.593 -0.0323  0.5424  0.9491
  171SOPE  H16Y19402  -0.638   5.444   8.479 -3.0471  1.3647  0.7848
  171SOPE  C31719403  -0.685   5.476   8.695 -0.5454  0.7306  0.2099
  171SOPE  H17X19404  -0.710   5.368   8.686 -0.1404  0.5985  0.6080
  171SOPE  H17Y19405  -0.780   5.529   8.676 -1.9397 -1.7120  0.2680
  171SOPE  C31819406  -0.615   5.503   8.825 -0.6739  0.3095 -0.3356
  171SOPE  H18X19407  -0.685   5.478   8.908 -1.8389 -0.4109 -1.5108
  171SOPE  H18Y19408  -0.589   5.610   8.839  1.3390 -0.1888 -0.1622
  171SOPE  H18Z19409  -0.519   5.447   8.831  0.3561  1.9117 -1.6175
  172SOPE     N19410   0.322   0.793   6.387  0.4518  0.4393 -0.2461
  172SOPE   HN119411   0.236   0.758   6.432  0.4541 -1.6424 -1.8132
  172SOPE   HN219412   0.371   0.852   6.458 -1.5304  1.9046 -0.0630
  172SOPE   HN319413   0.310   0.849   6.300 -2.3126 -1.1921 -0.9689
  172SOPE   C1219414   0.434   0.694   6.362 -0.5785 -0.2176 -1.0492
  172SOPE  H12A19415   0.390   0.633   6.280 -1.2194 -1.6827  0.3483
  172SOPE  H12B19416   0.462   0.630   6.449 -0.0318 -0.3140 -1.2878
  172SOPE   C1119417   0.566   0.772   6.316  0.1431  0.8646 -0.0936
  172SOPE  H11A19418   0.546   0.807   6.213 -1.6905  0.5083  0.1282
  172SOPE  H11B19419   0.655   0.705   6.320 -0.3449  0.1963 -0.2523
  172SOPE     P19420   0.669   1.006   6.359 -0.0947  0.0438  0.0203
  172SOPE   O1319421   0.650   1.021   6.214  0.0815 -0.9153  0.0597
  172SOPE   O1419422   0.807   0.983   6.408  0.5519  0.1771  0.2912
  172SOPE   O1219423   0.588   0.878   6.409  0.2200 -0.0163 -0.4682
  172SOPE   O1119424   0.611   1.133   6.435  0.3819 -0.1181 -0.5628
  172SOPE    C119425   0.473   1.156   6.456 -0.0208 -0.6333  0.1276
  172SOPE    HA19426   0.405   1.070   6.433  0.1032 -1.1761  1.7286
  172SOPE    HB19427   0.445   1.239   6.387 -1.1102 -2.1453 -1.3091
  172SOPE    C219428   0.442   1.207   6.603 -0.0508 -0.2338 -0.6426
  172SOPE    HS19429   0.499   1.301   6.618  0.3948 -0.8115  1.4514
  172SOPE   O2119430   0.488   1.115   6.703 -0.3515  0.0263  0.5369
  172SOPE   C2119431   0.457   0.993   6.699 -0.2046 -0.2184  0.4086
  172SOPE   O2219432   0.388   0.939   6.613  0.0764 -0.0982  0.1443
  172SOPE   C2219433   0.536   0.926   6.817 -0.9905 -0.2722 -0.0840
  172SOPE   H2R19434   0.535   0.999   6.901 -0.2811  0.3404 -0.6039
  172SOPE   H2S19435   0.641   0.911   6.784 -1.1322 -1.7963  0.1160
  172SOPE    C319436   0.293   1.249   6.630  0.0778  0.4516  0.5082
  172SOPE    HX19437   0.232   1.178   6.570  0.9289 -0.5063  0.7629
  172SOPE    HY19438   0.255   1.345   6.590 -0.4136 -1.2318 -3.2878
  172SOPE   O3119439   0.259   1.223   6.771 -0.0605  0.0136  0.0356
  172SOPE   C3119440   0.324   1.298   6.862  0.1889  0.0740 -0.2000
  172SOPE   O3219441   0.383   1.407   6.842 -0.4428  0.3512 -0.2158
  172SOPE   C3219442   0.300   1.248   7.003 -0.1564 -0.6921 -0.0786
  172SOPE   H2X19443   0.357   1.311   7.074 -2.1120 -0.9210  1.7714
  172SOPE   H2Y19444   0.342   1.145   7.007  0.8626 -0.2691  0.1948
  172SOPE   C2319445   0.477   0.804   6.884 -0.7546  0.0407  0.4595
  172SOPE   H3R19446   0.476   0.724   6.807  1.3001 -0.2681  0.7276
  172SOPE   H3S19447   0.371   0.825   6.907 -1.1643 -0.8054 -0.6291
  172SOPE   C2419448   0.549   0.766   7.007 -0.6178 -0.9062 -0.4448
  172SOPE   H4R19449   0.555   0.657   7.030 -3.6661 -0.9470  0.3176
  172SOPE   H4S19450   0.658   0.784   6.993 -0.1341 -1.4288  2.2958
  172SOPE   C2519451   0.512   0.838   7.140  0.1931 -0.5152 -0.1409
  172SOPE   H5R19452   0.554   0.941   7.135  0.6569 -0.4594  3.6271
  172SOPE   H5S19453   0.402   0.854   7.140  0.3839  1.1059 -2.6891
  172SOPE   C2619454   0.560   0.771   7.264 -0.3661 -0.1254 -0.9408
  172SOPE   H6R19455   0.517   0.669   7.272 -0.6078 -0.0479 -1.2683
  172SOPE   H6S19456   0.670   0.756   7.260 -0.2299  0.5200  0.1151
  172SOPE   C2719457   0.507   0.846   7.390 -0.3877  0.0869  0.3616
  172SOPE   H7R19458   0.566   0.940   7.387  1.2104 -0.8829  0.7870
  172SOPE   H7S19459   0.403   0.885   7.381  0.7182  2.8732 -1.1956
  172SOPE   C2819460   0.535   0.774   7.522  0.3113 -0.4917  0.7683
  172SOPE   H8R19461   0.449   0.704   7.528  0.1599 -0.1764  2.3830
  172SOPE   H8S19462   0.623   0.708   7.507  1.2502  0.7666  0.6189
  172SOPE   C2919463   0.546   0.867   7.644  0.1085 -0.0413  0.1295
  172SOPE   H9119464   0.636   0.929   7.634 -1.0623  1.5124 -1.1380
  172SOPE  C21019465   0.469   0.874   7.758 -0.6579 -0.1003 -0.2503
  172SOPE  H10119466   0.506   0.933   7.843 -0.2783 -0.7508  0.0374
  172SOPE  C21119467   0.337   0.798   7.777  0.4967  0.2096  0.0978
  172SOPE  H11R19468   0.316   0.726   7.696 -2.3915  1.0456  0.0373
  172SOPE  H11S19469   0.253   0.870   7.773  1.0783  0.8575 -0.6229
  172SOPE  C21219470   0.345   0.727   7.910  0.0756  0.1246 -0.7748
  172SOPE  H12R19471   0.431   0.657   7.917 -1.6636 -2.0794 -1.2401
  172SOPE  H12S19472   0.254   0.664   7.919 -1.0332  1.8879  0.7832
  172SOPE  C21319473   0.347   0.810   8.042 -0.4428  0.0084  0.7229
  172SOPE  H13R19474   0.261   0.879   8.038 -0.2756  0.1210 -1.0978
  172SOPE  H13S19475   0.442   0.866   8.053  0.8246 -2.1594  1.2601
  172SOPE  C21419476   0.328   0.717   8.154 -0.1290 -0.7353 -0.9968
  172SOPE  H14R19477   0.398   0.633   8.137  0.9252  0.0451 -0.5676
  172SOPE  H14S19478   0.226   0.673   8.146 -0.5643 -0.0437  0.5702
  172SOPE  C21519479   0.341   0.785   8.293 -0.6128 -0.1418 -0.2211
  172SOPE  H15R19480   0.450   0.799   8.310 -0.7799 -0.9572  1.6477
  172SOPE  H15S19481   0.318   0.705   8.367 -0.9385 -0.5385 -0.7415
  172SOPE  C21619482   0.255   0.909   8.319 -0.2256  0.3435  0.1053
  172SOPE  H16R19483   0.152   0.870   8.302 -0.2485  0.5728 -0.2873
  172SOPE  H16S19484   0.262   0.998   8.253 -1.0223  0.6518  0.4179
  172SOPE  C21719485   0.255   0.956   8.465 -0.4476 -0.4749  0.2749
  172SOPE  H17R19486   0.224   0.871   8.530 -2.4042 -1.5006 -1.9148
  172SOPE  H17S19487   0.180   1.036   8.478 -0.0144 -0.1375  0.6968
  172SOPE  C21819488   0.390   1.008   8.512  0.3065 -0.6135 -0.1549
  172SOPE  H18R19489   0.449   1.044   8.425 -1.0724  0.7631 -0.5473
  172SOPE  H18S19490   0.443   0.925   8.562 -0.5544  0.2129  2.2154
  172SOPE  H18T19491   0.384   1.083   8.594  1.3790 -1.5651  0.7926
  172SOPE   C3319492   0.147   1.237   7.043 -0.9066  0.3661  0.5272
  172SOPE   H3X19493   0.091   1.158   6.988  0.9423 -1.3042  0.9687
  172SOPE   H3Y19494   0.103   1.337   7.023 -0.8354  0.4376  0.7349
  172SOPE   C3419495   0.115   1.209   7.191  0.2753 -0.0780  0.4953
  172SOPE   H4X19496   0.011   1.245   7.204  0.0236 -0.1974 -1.0300
  172SOPE   H4Y19497   0.178   1.266   7.262  2.0987 -0.2207 -0.9400
  172SOPE   C3519498   0.120   1.057   7.219 -0.3169 -0.3769 -0.5520
  172SOPE   H5X19499   0.220   1.009   7.206  0.1251  0.3032  0.2667
  172SOPE   H5Y19500   0.055   1.015   7.140  1.1905  1.5902 -2.9134
  172SOPE   C3619501   0.064   1.022   7.357 -0.9572 -0.2013  0.7180
  172SOPE   H6X19502   0.072   0.914   7.379  1.9429 -0.1350  0.2033
  172SOPE   H6Y19503  -0.038   1.065   7.364 -0.9220  0.0809 -0.3570
  172SOPE   C3719504   0.145   1.081   7.472  0.5559 -0.3360 -0.1771
  172SOPE   H7X19505   0.152   1.189   7.451 -0.0420 -0.4780 -1.1454
  172SOPE   H7Y19506   0.245   1.035   7.489  0.1471 -0.2168  2.9907
  172SOPE   C3819507   0.068   1.052   7.602 -0.0739 -0.8114  1.1101
  172SOPE   H8X19508   0.071   0.945   7.634 -0.6480 -0.9243  0.7970
  172SOPE   H8Y19509  -0.033   1.092   7.579  0.3860 -0.4527 -0.3577
  172SOPE   C3919510   0.116   1.128   7.723  0.5266  0.0818  0.4466
  172SOPE   H9X19511   0.120   1.235   7.695  1.0456  0.0857  0.5285
  172SOPE   H9Y19512   0.219   1.095   7.744  0.9080  1.4258  0.7220
  172SOPE  C31019513   0.024   1.106   7.839  0.1962  0.1962  0.3438
  172SOPE  H10X19514   0.044   0.998   7.854  1.2273  0.5019  1.2589
  172SOPE  H10Y19515  -0.084   1.116   7.814  0.0438  0.2192  1.0004
  172SOPE  C31119516   0.058   1.187   7.965  0.1769  0.2053 -0.2959
  172SOPE  H11X19517   0.047   1.296   7.946 -1.6882  0.1528  0.4132
  172SOPE  H11Y19518   0.166   1.167   7.986  0.2843  3.0883  2.3459
  172SOPE  C31219519  -0.022   1.153   8.088  0.3205  0.0435  0.1803
  172SOPE  H12X19520  -0.024   1.042   8.094 -1.0133  0.0694  0.4649
  172SOPE  H12Y19521  -0.130   1.173   8.070  0.7332  0.0924 -2.3224
  172SOPE  C31319522   0.017   1.227   8.206  0.7314 -0.7789 -0.4461
  172SOPE  H13X19523   0.040   1.335   8.189  1.2925 -0.3861  2.4838
  172SOPE  H13Y19524   0.115   1.189   8.243  0.5909 -0.9531 -0.2480
  172SOPE  C31419525  -0.073   1.205   8.326 -0.3919  0.1957 -0.5775
  172SOPE  H14X19526  -0.059   1.103   8.366  1.4536  0.2578 -1.0202
  172SOPE  H14Y19527  -0.179   1.217   8.293 -0.4303 -1.1515 -0.9853
  172SOPE  C31519528  -0.047   1.305   8.448 -0.1540  0.2462  0.5362
  172SOPE  H15X19529   0.062   1.293   8.469 -0.4378 -1.7161  1.0396
  172SOPE  H15Y19530  -0.083   1.262   8.544  0.8496 -1.9574 -0.0414
  172SOPE  C31619531  -0.079   1.452   8.430  0.1999 -0.1767  0.6165
  172SOPE  H16X19532  -0.031   1.490   8.337 -2.4789  0.9561 -0.3481
  172SOPE  H16Y19533  -0.056   1.528   8.507 -0.4075  1.4169 -0.7445
  172SOPE  C31719534  -0.228   1.482   8.398  0.3384  0.6328  0.7252
  172SOPE  H17X19535  -0.252   1.442   8.297  1.4428  1.0354  0.2986
  172SOPE  H17Y19536  -0.253   1.590   8.398 -0.8881  0.4371 -3.0747
  172SOPE  C31819537  -0.321   1.423   8.502 -0.0666 -0.4809  0.3857
  172SOPE  H18X19538  -0.318   1.312   8.503 -0.0960 -0.4961 -1.0082
  172SOPE  H18Y19539  -0.426   1.459   8.499  1.1161  3.2441  1.4566
  172SOPE  H18Z19540  -0.277   1.460   8.597  0.9303 -0.6144 -0.0167
  173SAPI   C1219541   1.511   4.945  10.984 -0.6825 -0.1997  0.0385
  173SAPI    H219542   1.587   4.915  10.909  0.5960 -0.4369  1.3832
  173SAPI    O219543   1.455   4.822  11.035 -0.2481 -0.6760  0.4252
  173SAPI   HO219544   1.495   4.746  10.992 -2.9291 -1.1990 -1.2949
  173SAPI   C1319545   1.593   5.020  11.092  0.2588 -0.4972 -0.1036
  173SAPI    H319546   1.628   5.114  11.043 -1.7948 -1.3758 -3.4314
  173SAPI    O319547   1.699   4.937  11.143 -0.6904 -0.0684  0.1552
  173SAPI   HO319548   1.658   4.866  11.194  0.9879 -1.7548 -0.7610
  173SAPI   C1419549   1.502   5.072  11.204  0.4665  0.2221 -0.6942
  173SAPI    H419550   1.457   4.992  11.266  0.2530  1.4103  0.7133
  173SAPI    O419551   1.579   5.145  11.299  0.2748  0.4279 -0.1038
  173SAPI   HO419552   1.641   5.084  11.341  0.5641  0.5795 -0.3098
  173SAPI   C1519553   1.389   5.159  11.149 -0.6630 -0.5825  0.3439
  173SAPI    H519554   1.427   5.256  11.109  1.0230 -2.2871 -2.3656
  173SAPI    O519555   1.300   5.190  11.260  0.1633  0.1400  0.2508
  173SAPI   HO519556   1.209   5.184  11.231  0.3770 -2.4005 -0.0164
  173SAPI   C1619557   1.319   5.087  11.035 -0.0448  0.6458 -0.5461
  173SAPI    H619558   1.269   5.000  11.084 -1.3849  0.8306 -1.5401
  173SAPI    O619559   1.210   5.171  10.986 -0.3918  0.1989  0.3228
  173SAPI   HO619560   1.223   5.225  10.907 -3.4289  1.4779  0.5986
  173SAPI   C1119561   1.411   5.044  10.923  0.7261  0.4795 -0.2089
  173SAPI    H119562   1.469   5.135  10.897  0.7924 -0.6329 -4.3491
  173SAPI     P19563   1.412   4.982  10.672  0.4177  0.1281 -0.3187
  173SAPI   O1319564   1.332   4.885  10.591 -0.0716  0.5012 -0.3906
  173SAPI   O1419565   1.555   4.964  10.681  0.2518 -0.0717  0.3183
  173SAPI   O1219566   1.341   4.986  10.822  0.2035  0.0644  0.2753
  173SAPI   O1119567   1.386   5.125  10.617  0.1894  0.2785 -0.0061
  173SAPI    C119568   1.263   5.153  10.543 -0.2760  0.2430  0.5341
  173SAPI    HA19569   1.172   5.110  10.588 -2.7730  2.1006 -2.5049
  173SAPI    HB19570   1.249   5.263  10.550  1.1989  0.6259 -1.8377
  173SAPI    C219571   1.264   5.120  10.392  0.3698  0.4637 -0.4264
  173SAPI    HS19572   1.335   5.036  10.377  0.2281  0.5647 -1.7373
  173SAPI   O2119573   1.290   5.240  10.316  0.4574  0.7761  0.1075
  173SAPI   C2119574   1.413   5.249  10.272  0.1048  0.5674 -0.4340
  173SAPI   O2219575   1.497   5.161  10.285 -0.1336  0.3110 -0.0655
  173SAPI   C2219576   1.433   5.385  10.207 -0.5788 -0.5170 -1.0094
  173SAPI   H2R19577   1.333   5.420  10.175  0.7614  1.2609 -3.3897
  173SAPI   H2S19578   1.456   5.452  10.293  1.5692 -2.3295 -0.1267
  173SAPI    C319579   1.125   5.059  10.352  0.3211 -0.2783  0.5872
  173SAPI    HX19580   1.051   5.128  10.397  0.0124 -0.2929  0.1018
  173SAPI    HY19581   1.106   4.964  10.406 -2.0214  0.8337  1.8189
  173SAPI   O3119582   1.101   5.049  10.216 -0.5595  0.1673  0.0172
  173SAPI   C3119583   1.147   4.938  10.151 -0.8098 -0.8756 -0.3959
  173SAPI   O3219584   1.186   4.835  10.197 -0.3398 -0.5921 -0.3618
  173SAPI   C3219585   1.171   4.976  10.003  0.2045  0.3589  0.2722
  173SAPI   H2X19586   1.232   5.068  10.001 -0.5436  0.8369 -0.9729
  173SAPI   H2Y19587   1.068   4.993   9.965  0.4946 -2.9563 -2.2279
  173SAPI   C2319588   1.547   5.386  10.103  0.2146 -0.0582  0.6553
  173SAPI   H3R19589   1.637   5.371  10.165 -0.2112  0.6777  1.4621
  173SAPI   H3S19590   1.553   5.492  10.069 -1.7914 -0.6162 -1.6411
  173SAPI   C2419591   1.530   5.293   9.982 -0.0322 -0.0612 -0.5776
  173SAPI   H4R19592   1.520   5.188  10.018  0.6444  0.4687  1.2131
  173SAPI   H4S19593   1.611   5.309   9.908 -0.7022 -0.6271 -1.4444
  173SAPI   C2519594   1.394   5.330   9.926 -0.0283  0.0586 -0.1326
  173SAPI   H5R19595   1.309   5.294   9.985 -1.2459  1.7671 -0.8254
  173SAPI   C2619596   1.368   5.419   9.828 -0.2550  0.0263  0.4527
  173SAPI   H6R19597   1.263   5.429   9.794 -0.1256 -0.7690 -0.2304
  173SAPI   C2719598   1.461   5.502   9.746 -0.3713 -0.1660  0.1318
  173SAPI   H7R19599   1.419   5.511   9.644  1.2553 -1.9022 -0.7303
  173SAPI   H7S19600   1.561   5.454   9.743  0.6137  1.8829 -0.7017
  173SAPI   C2819601   1.468   5.640   9.800 -0.5347 -0.5076  0.4059
  173SAPI   H8R19602   1.420   5.651   9.898  1.5000 -0.0065  1.3789
  173SAPI   C2919603   1.542   5.740   9.741  0.3398  0.1182 -0.4247
  173SAPI   H9R19604   1.538   5.842   9.782 -0.0439 -0.5587  1.2381
  173SAPI  C21019605   1.614   5.719   9.612 -0.4797  0.0759 -0.0207
  173SAPI  H10R19606   1.585   5.627   9.559  2.1963 -0.2839 -0.9589
  173SAPI  H10S19607   1.724   5.726   9.629 -0.2709  0.6027 -1.5130
  173SAPI  C21119608   1.576   5.826   9.520 -0.1215 -0.9584  0.5426
  173SAPI  H11R19609   1.566   5.920   9.576  3.1132 -1.3065  1.7883
  173SAPI  C21219610   1.541   5.818   9.387  0.1355 -0.7771  0.1555
  173SAPI  H12R19611   1.500   5.910   9.341 -0.1939  0.5301  2.9126
  173SAPI  C21319612   1.542   5.702   9.292 -0.4599  0.2026 -0.2546
  173SAPI  H13R19613   1.636   5.646   9.309  1.4134  3.2754 -0.1333
  173SAPI  H13S19614   1.556   5.753   9.194 -0.3417  1.0820  0.2190
  173SAPI  C21419615   1.415   5.608   9.300 -0.0401  0.8220  0.0355
  173SAPI  H14R19616   1.398   5.569   9.401 -3.4507 -0.0399 -0.7920
  173SAPI  C21519617   1.338   5.576   9.201  0.6256 -0.0671  0.2381
  173SAPI  H15R19618   1.248   5.515   9.220  0.6952 -0.3133 -0.2158
  173SAPI  C21619619   1.353   5.601   9.055  0.6689 -0.3413 -0.4745
  173SAPI  H16R19620   1.388   5.705   9.034 -1.9106  1.1669  2.3631
  173SAPI  H16S19621   1.261   5.578   8.998 -1.7906  0.3656  3.0906
  173SAPI  C21719622   1.453   5.512   8.977 -0.4186 -0.0999 -0.5213
  173SAPI  H17R19623   1.415   5.408   8.980  1.1009 -0.6771 -0.6035
  173SAPI  H17S19624   1.548   5.516   9.035 -1.0295 -0.0691  0.4886
  173SAPI  C21819625   1.480   5.547   8.833 -0.2162 -0.9678 -0.0720
  173SAPI  H18R19626   1.542   5.463   8.793  1.0875 -0.6711  1.3182
  173SAPI  H18S19627   1.538   5.642   8.833  0.6280 -1.4572 -1.6228
  173SAPI  C21919628   1.354   5.560   8.748 -0.1245  0.6854 -0.6312
  173SAPI  H19R19629   1.291   5.643   8.786  1.1928  1.0741  0.7587
  173SAPI  H19S19630   1.300   5.463   8.745 -0.3591  0.8321 -1.2720
  173SAPI  C22019631   1.389   5.600   8.600 -0.5406  0.2512  0.3069
  173SAPI  H20R19632   1.483   5.545   8.579  0.1299  1.7912 -0.8638
  173SAPI  H20S19633   1.404   5.708   8.576 -2.4173  0.7971  1.4320
  173SAPI  H20T19634   1.316   5.546   8.535 -0.3810  1.8153 -1.2299
  173SAPI   C3319635   1.268   4.878   9.925 -0.0404  0.3421  0.2940
  173SAPI   H3X19636   1.209   4.786   9.905  1.9380 -0.9676  0.3533
  173SAPI   H3Y19637   1.355   4.868   9.993  1.2928  0.3963 -1.3933
  173SAPI   C3419638   1.315   4.949   9.794  0.5395 -0.3504  0.0096
  173SAPI   H4X19639   1.416   4.915   9.760 -1.0628 -4.0388 -1.3303
  173SAPI   H4Y19640   1.325   5.056   9.821 -1.2852 -0.8678  2.9491
  173SAPI   C3519641   1.205   4.931   9.690  0.4749 -0.7991 -0.1109
  173SAPI   H5X19642   1.106   4.928   9.739  0.6607 -1.2877  0.2347
  173SAPI   H5Y19643   1.231   4.835   9.640  1.6352 -0.0904 -0.9039
  173SAPI   C3619644   1.183   5.031   9.574  0.0509 -0.1012 -0.2176
  173SAPI   H6X19645   1.152   5.125   9.624 -3.4233 -0.3584 -1.7594
  173SAPI   H6Y19646   1.108   5.006   9.496 -0.6665  0.4707  0.2858
  173SAPI   C3719647   1.311   5.077   9.505  0.2714 -0.5850  0.1148
  173SAPI   H7X19648   1.388   5.113   9.577  1.1863  0.9664 -1.6004
  173SAPI   H7Y19649   1.286   5.163   9.439 -1.0092 -0.4629  0.7437
  173SAPI   C3819650   1.377   4.973   9.413 -0.1518  0.0705  0.1455
  173SAPI   H8X19651   1.300   4.947   9.338  0.4305  0.9857 -0.7807
  173SAPI   H8Y19652   1.397   4.880   9.471 -2.2218 -0.4291  0.1277
  173SAPI   C3919653   1.504   5.027   9.346 -0.4504  0.2173  0.2032
  173SAPI   H9X19654   1.562   5.075   9.427 -2.2390  0.7395  1.2085
  173SAPI   H9Y19655   1.475   5.097   9.265 -0.1138  1.0751  0.8180
  173SAPI  C31019656   1.584   4.904   9.291 -0.4850 -0.0326  0.0842
  173SAPI  H10X19657   1.522   4.848   9.218  0.7452  2.1083 -2.6996
  173SAPI  H10Y19658   1.607   4.837   9.377  2.7790  0.6140 -0.2069
  173SAPI  C31119659   1.717   4.929   9.236 -0.0631 -1.2167  0.4709
  173SAPI  H11X19660   1.772   4.991   9.309 -0.0365 -1.6712  0.8430
  173SAPI  H11Y19661   1.720   4.996   9.148  1.4242 -0.5204  1.0344
  173SAPI  C31219662   1.808   4.803   9.202  0.4250  0.0267  0.0942
  173SAPI  H12X19663   1.761   4.738   9.126 -1.2971  0.3409  0.8568
  173SAPI  H12Y19664   1.816   4.746   9.298 -0.9288  2.1011  1.4874
  173SAPI  C31319665   1.943   4.848   9.146 -0.0665 -0.5055  0.2299
  173SAPI  H13X19666   2.008   4.918   9.201  0.2056  0.7191 -1.6314
  173SAPI  H13Y19667   1.927   4.900   9.049  0.6506  2.1487  1.4853
  173SAPI  C31419668   2.022   4.720   9.101 -0.2478 -0.4144 -0.9661
  173SAPI  H14X19669   1.967   4.664   9.023  0.6316 -1.9178 -0.5160
  173SAPI  H14Y19670   2.034   4.672   9.200 -1.1093  1.0512 -0.1216
  173SAPI  C31519671   2.158   4.770   9.048 -0.8940 -0.3496  0.1222
  173SAPI  H15X19672   2.222   4.680   9.045 -2.3263 -1.3765 -0.2005
  173SAPI  H15Y19673   2.208   4.843   9.115 -0.4905  0.4546 -1.0249
  173SAPI  C31619674   2.152   4.831   8.914 -0.5749  0.0508  0.6550
  173SAPI  H16X19675   2.143   4.941   8.903  0.0280 -0.3095 -4.3450
  173SAPI  H16Y19676   2.066   4.782   8.865 -0.6169  0.9233 -0.1518
  173SAPI  C31719677   2.276   4.808   8.828  0.0702 -0.6023 -0.5952
  173SAPI  H17X19678   2.293   4.699   8.817  2.0790 -0.3695 -0.0949
  173SAPI  H17Y19679   2.364   4.844   8.886  0.3967 -1.9611 -0.2280
  173SAPI  C31819680   2.290   4.895   8.699 -0.1284 -0.0865 -0.1880
  173SAPI  H18X19681   2.392   4.890   8.655  0.0025 -0.1079  0.1131
  173SAPI  H18Y19682   2.279   5.003   8.723 -0.1925 -0.4778  1.5947
  173SAPI  H18Z19683   2.215   4.863   8.624  0.6418 -1.0906 -0.5433
  174SAPI   C1219684   5.210   5.999  10.994  0.0137  0.3455  0.4843
  174SAPI    H219685   5.239   6.049  10.899 -1.1649  0.9144  0.4140
  174SAPI    O219686   5.100   5.908  10.966  0.1618 -0.4671  0.0502
  174SAPI   HO219687   5.023   5.955  11.000  0.5345  0.6446 -0.6343
  174SAPI   C1319688   5.331   5.934  11.055 -0.4657 -0.1595  0.4841
  174SAPI    H319689   5.405   6.015  11.069 -1.9044  0.8424  2.4045
  174SAPI    O319690   5.393   5.840  10.970  0.2906 -0.2924  0.6791
  174SAPI   HO319691   5.321   5.786  10.936 -0.4775 -0.1640  2.0886
  174SAPI   C1419692   5.297   5.871  11.191  0.0613  0.3285 -0.5122
  174SAPI    H419693   5.235   5.784  11.162  0.6931  0.0865 -1.1740
  174SAPI    O419694   5.413   5.807  11.247 -0.1555 -0.3139  0.6018
  174SAPI   HO419695   5.476   5.880  11.249  0.6286 -0.8448 -2.3348
  174SAPI   C1519696   5.230   5.971  11.288 -0.3757 -0.2215  0.8503
  174SAPI    H519697   5.313   6.040  11.316 -0.3129 -0.0740  0.3110
  174SAPI    O519698   5.180   5.901  11.403 -0.1132  0.3977 -0.0406
  174SAPI   HO519699   5.181   5.966  11.474  1.2894 -0.6431  0.9170
  174SAPI   C1619700   5.124   6.054  11.217 -0.6942 -0.6471 -0.3503
  174SAPI    H619701   5.033   5.992  11.197 -0.9504 -0.6873  0.9102
  174SAPI    O619702   5.086   6.158  11.306  0.1334 -0.0954  0.2933
  174SAPI   HO619703   5.167   6.209  11.312 -0.2272  0.5436 -0.2123
  174SAPI   C1119704   5.173   6.118  11.085  0.6046 -0.0876  0.0391
  174SAPI    H119705   5.271   6.169  11.099 -0.7730  2.5157  0.5959
  174SAPI     P19706   5.121   6.347  10.961 -0.6421 -0.1740 -0.0179
  174SAPI   O1319707   5.250   6.385  11.021 -0.1613 -0.0273 -0.2764
  174SAPI   O1419708   5.014   6.442  10.981  0.7406 -0.3520 -0.7386
  174SAPI   O1219709   5.072   6.209  11.029 -0.0392  0.1369 -0.3284
  174SAPI   O1119710   5.136   6.305  10.809  0.0377 -0.0164  0.2241
  174SAPI    C119711   5.043   6.228  10.739  0.5561 -0.2644  0.1640
  174SAPI    HA19712   5.093   6.131  10.715  0.5136  0.0400 -1.1922
  174SAPI    HB19713   4.952   6.217  10.802  1.3872 -0.2409  1.3866
  174SAPI    C219714   5.002   6.290  10.597 -0.1128  0.8148  0.2558
  174SAPI    HS19715   4.941   6.217  10.540  2.5446  0.2326 -1.9716
  174SAPI   O2119716   5.122   6.324  10.525  0.3098 -0.6689  0.8264
  174SAPI   C2119717   5.184   6.226  10.464 -0.0146  0.0510 -0.4974
  174SAPI   O2219718   5.151   6.106  10.470  0.3749 -0.3486  0.1728
  174SAPI   C2219719   5.307   6.281  10.384 -0.1804  0.7823  0.4978
  174SAPI   H2R19720   5.272   6.377  10.339 -1.5585  0.5782  1.0830
  174SAPI   H2S19721   5.389   6.305  10.454  0.2105  0.2125  0.2375
  174SAPI    C319722   4.915   6.417  10.619  0.4926 -1.0034  0.8841
  174SAPI    HX19723   4.947   6.481  10.704  1.2130  0.0778 -0.1880
  174SAPI    HY19724   4.816   6.374  10.644 -0.3197  0.4659  0.2790
  174SAPI   O3119725   4.904   6.494  10.488 -0.0598 -0.2044  0.0060
  174SAPI   C3119726   4.996   6.583  10.467  0.3264 -0.3321 -0.0105
  174SAPI   O3219727   5.078   6.632  10.544 -0.7199  0.3145 -0.5044
  174SAPI   C3219728   4.987   6.610  10.321 -0.2481  0.5266  0.2025
  174SAPI   H2X19729   4.894   6.668  10.305 -1.1652 -1.3043 -1.2168
  174SAPI   H2Y19730   4.969   6.518  10.262  0.2867 -0.5505  1.6912
  174SAPI   C2319731   5.366   6.180  10.278 -0.1793  0.4546 -0.1887
  174SAPI   H3R19732   5.408   6.085  10.319  2.0481  0.9092 -1.3462
  174SAPI   H3S19733   5.459   6.227  10.240  0.9151 -0.2633  1.4940
  174SAPI   C2419734   5.267   6.148  10.167 -0.1584  0.4075  0.3978
  174SAPI   H4R19735   5.200   6.070  10.210  0.0884  0.5667  1.0721
  174SAPI   H4S19736   5.316   6.102  10.078 -0.4708  0.2884  0.2873
  174SAPI   C2519737   5.190   6.271  10.116 -0.2631  0.8441  0.6250
  174SAPI   H5R19738   5.097   6.291  10.171 -1.1768  0.3469 -0.6885
  174SAPI   C2619739   5.216   6.356  10.008  0.1929 -0.2399  0.0619
  174SAPI   H6R19740   5.155   6.447   9.997  1.1107  0.5642  1.5309
  174SAPI   C2719741   5.329   6.351   9.913  0.4830 -0.3862 -0.1318
  174SAPI   H7R19742   5.330   6.252   9.863  0.8853 -0.3906 -0.1146
  174SAPI   H7S19743   5.429   6.349   9.960  0.1453 -2.4207  0.5335
  174SAPI   C2819744   5.336   6.467   9.813 -0.3810  0.1878  0.3859
  174SAPI   H8R19745   5.381   6.557   9.858 -2.5443  0.7976  1.3527
  174SAPI   C2919746   5.281   6.468   9.695 -0.0626 -0.7278 -0.2230
  174SAPI   H9R19747   5.276   6.556   9.629 -1.9271 -0.3216  0.4259
  174SAPI  C21019748   5.215   6.350   9.630  0.3298 -1.2361 -0.0298
  174SAPI  H10R19749   5.108   6.378   9.617  0.3747 -0.6585  0.7680
  174SAPI  H10S19750   5.212   6.268   9.705 -1.1018 -1.0914  0.0907
  174SAPI  C21119751   5.273   6.308   9.497  0.2508 -0.0080 -0.1106
  174SAPI  H11R19752   5.340   6.221   9.497 -1.4339 -1.3398 -1.2946
  174SAPI  C21219753   5.224   6.339   9.372  0.2245  0.1394 -0.8141
  174SAPI  H12R19754   5.275   6.300   9.282 -0.0987 -0.0391 -0.9218
  174SAPI  C21319755   5.110   6.438   9.333  0.0161 -0.8366  0.3323
  174SAPI  H13R19756   5.088   6.512   9.413 -1.3021 -0.9613  0.0802
  174SAPI  H13S19757   5.016   6.381   9.325 -0.2668 -0.3716  0.3259
  174SAPI  C21419758   5.141   6.528   9.212  0.6084 -0.1901 -0.1012
  174SAPI  H14R19759   5.237   6.578   9.229  0.9423 -0.5411 -0.9142
  174SAPI  C21519760   5.069   6.537   9.103  0.0428 -1.2917  0.1597
  174SAPI  H15R19761   5.104   6.605   9.024  1.0160 -0.2594  1.4658
  174SAPI  C21619762   4.952   6.450   9.074  0.2074 -0.1366 -0.3570
  174SAPI  H16R19763   4.865   6.518   9.087  0.1445 -0.4818  1.0265
  174SAPI  H16S19764   4.931   6.358   9.132 -2.9461  0.9138  0.2603
  174SAPI  C21719765   4.978   6.396   8.927  1.0114  0.2393 -0.5134
  174SAPI  H17R19766   4.993   6.485   8.862  2.9879  0.7546  0.6257
  174SAPI  H17S19767   4.877   6.359   8.897  1.2180 -1.3414  0.6987
  174SAPI  C21819768   5.091   6.293   8.903 -0.0318  0.9573  0.9847
  174SAPI  H18R19769   5.096   6.217   8.984  0.4956 -0.8505 -0.7235
  174SAPI  H18S19770   5.182   6.356   8.917  0.0728  0.7218  1.3638
  174SAPI  C21919771   5.080   6.229   8.767  0.0505  0.2508  0.2288
  174SAPI  H19R19772   5.012   6.143   8.783  0.0467 -0.1334 -1.7227
  174SAPI  H19S19773   5.177   6.185   8.734 -0.8479 -1.0444 -0.7687
  174SAPI  C22019774   5.040   6.316   8.648 -0.9417  0.1945 -0.1752
  174SAPI  H20R19775   4.932   6.337   8.642 -1.1633 -0.8724 -0.0473
  174SAPI  H20S19776   5.065   6.271   8.550 -0.0288 -0.4574  0.3481
  174SAPI  H20T19777   5.090   6.414   8.664 -0.5635  0.5353 -3.1395
  174SAPI   C3319778   5.106   6.699  10.265  0.0037 -0.3850 -0.2848
  174SAPI   H3X19779   5.194   6.638  10.235  1.5254  0.8827  1.4726
  174SAPI   H3Y19780   5.145   6.775  10.336 -0.7516  1.4887 -1.8088
  174SAPI   C3419781   5.063   6.785  10.137 -0.1277 -0.4806  0.3572
  174SAPI   H4X19782   5.151   6.845  10.104  0.7073 -1.4785  0.7453
  174SAPI   H4Y19783   4.990   6.862  10.169  0.3130 -1.1268  3.0607
  174SAPI   C3519784   5.007   6.698  10.025  0.0735 -0.2709  0.0895
  174SAPI   H5X19785   4.909   6.647  10.037 -1.1858  2.3309  1.1522
  174SAPI   H5Y19786   5.085   6.620  10.015  2.1058  1.5752  1.2012
  174SAPI   C3619787   5.011   6.780   9.890  0.1831  0.3825  0.7765
  174SAPI   H6X19788   5.110   6.827   9.874  1.6930 -2.3496  1.7360
  174SAPI   H6Y19789   4.932   6.859   9.888  2.1851  2.4613  1.2592
  174SAPI   C3719790   4.972   6.692   9.776 -0.0274  0.9531 -0.0701
  174SAPI   H7X19791   4.877   6.643   9.807  0.9689 -1.0057 -0.0239
  174SAPI   H7Y19792   5.057   6.624   9.756  0.1347  1.0251  0.3663
  174SAPI   C3819793   4.934   6.763   9.645 -0.4083 -0.2006 -0.5176
  174SAPI   H8X19794   4.855   6.836   9.671  0.8296  0.6570  0.9458
  174SAPI   H8Y19795   4.901   6.681   9.578  0.1573 -2.4480  1.8416
  174SAPI   C3919796   5.047   6.848   9.588  0.0129 -0.3260 -0.4975
  174SAPI   H9X19797   5.134   6.784   9.563  0.3580 -0.2448  0.4778
  174SAPI   H9Y19798   5.081   6.924   9.661  0.8139 -2.4998  1.4248
  174SAPI  C31019799   5.030   6.919   9.455 -0.4794  0.1130 -0.3440
  174SAPI  H10X19800   5.099   7.006   9.445 -3.2359  2.3532 -0.5399
  174SAPI  H10Y19801   4.924   6.949   9.467  0.3143  2.3135  1.5433
  174SAPI  C31119802   5.046   6.830   9.331  0.2793  0.4354  0.3410
  174SAPI  H11X19803   4.995   6.734   9.352  2.5440 -0.6469  1.0702
  174SAPI  H11Y19804   5.146   6.793   9.301 -0.3003 -0.4307 -0.5086
  174SAPI  C31219805   4.977   6.884   9.202  0.2046  0.7902 -0.2082
  174SAPI  H12X19806   4.869   6.899   9.223  0.3607  0.4483  0.8943
  174SAPI  H12Y19807   4.988   6.803   9.126 -1.5966  1.5201 -1.2545
  174SAPI  C31319808   5.056   7.009   9.142  1.1223  1.1418 -0.6062
  174SAPI  H13X19809   5.166   6.996   9.127  1.1140 -1.1711  0.8922
  174SAPI  H13Y19810   5.041   7.093   9.213  1.1478  0.6969 -0.0616
  174SAPI  C31419811   4.995   7.042   9.003 -0.0207 -0.6954 -0.3300
  174SAPI  H14X19812   5.013   7.148   8.976  1.0219 -0.3333  1.7125
  174SAPI  H14Y19813   4.885   7.033   9.010 -0.3484  1.2384 -2.2997
  174SAPI  C31519814   5.060   6.952   8.899  0.3041  0.3277 -0.6133
  174SAPI  H15X19815   5.015   6.850   8.906  3.0437 -0.9597 -0.9734
  174SAPI  H15Y19816   5.168   6.947   8.924 -0.2370  4.2936  3.2153
  174SAPI  C31619817   5.045   6.996   8.753  0.0219 -0.7500 -0.2933
  174SAPI  H16X19818   5.099   7.092   8.741 -3.2929  1.1274 -0.8655
  174SAPI  H16Y19819   4.941   7.026   8.728 -0.0250 -1.3722 -0.8413
  174SAPI  C31719820   5.093   6.898   8.654  0.1986  0.6395 -0.7366
  174SAPI  H17X19821   5.029   6.807   8.656  0.1761  0.6641  1.5672
  174SAPI  H17Y19822   5.197   6.879   8.686 -0.4898 -2.9851 -0.4734
  174SAPI  C31819823   5.107   6.937   8.508  0.3926 -0.6432  0.1031
  174SAPI  H18X19824   5.136   6.853   8.441  0.4408  0.2495 -1.0123
  174SAPI  H18Y19825   5.163   7.032   8.498 -2.2218  1.1320  1.7057
  174SAPI  H18Z19826   5.006   6.968   8.472 -0.1865 -3.0705 -0.4776
  175SAPI   C1219827   1.415   4.648   6.336 -0.3895  0.5282 -0.5112
  175SAPI    H219828   1.382   4.655   6.442  0.0540 -0.8521 -0.2630
  175SAPI    O219829   1.555   4.682   6.318  0.4625  0.1913 -0.1374
  175SAPI   HO219830   1.565   4.763   6.368  0.3322  0.8225 -1.1089
  175SAPI   C1319831   1.393   4.504   6.285  0.8609 -0.1113  0.3816
  175SAPI    H319832   1.284   4.493   6.302  0.4010  1.2823 -1.4772
  175SAPI    O319833   1.466   4.415   6.369  0.3437  0.0372  0.1818
  175SAPI   HO319834   1.560   4.411   6.349  0.2578 -0.1954 -0.1968
  175SAPI   C1419835   1.422   4.497   6.135 -0.7461 -0.6155  0.0477
  175SAPI    H419836   1.524   4.535   6.116 -0.3575 -1.4790  0.3888
  175SAPI    O419837   1.405   4.364   6.092  0.0664 -0.3413 -0.0248
  175SAPI   HO419838   1.481   4.310   6.113  2.2522  2.9168  0.9445
  175SAPI   C1519839   1.324   4.588   6.059  0.3222 -0.1829  0.1013
  175SAPI    H519840   1.222   4.564   6.094 -0.2085  1.0364 -0.5826
  175SAPI    O519841   1.332   4.579   5.919 -0.1506 -0.1171  0.0349
  175SAPI   HO519842   1.388   4.503   5.901 -1.6097 -1.0062 -0.8540
  175SAPI   C1619843   1.352   4.732   6.108  0.0096  0.5682  0.1698
  175SAPI    H619844   1.456   4.757   6.077 -0.1081  0.9720  0.0950
  175SAPI    O619845   1.269   4.829   6.042 -0.0635 -0.6043 -0.0104
  175SAPI   HO619846   1.175   4.815   6.054 -0.5754 -0.0790 -3.0607
  175SAPI   C1119847   1.330   4.748   6.259 -0.6280  0.4956 -0.4337
  175SAPI    H119848   1.223   4.718   6.269 -0.7414  1.3648  1.2173
  175SAPI     P19849   1.239   4.956   6.392  0.0045 -0.1425 -0.1075
  175SAPI   O1319850   1.111   4.956   6.320 -0.3738  0.2993 -0.0984
  175SAPI   O1419851   1.287   5.090   6.428  0.6850  0.1391  0.0474
  175SAPI   O1219852   1.353   4.882   6.301  0.1986 -0.1522  0.1217
  175SAPI   O1119853   1.221   4.869   6.526 -0.1179 -0.2646  0.3359
  175SAPI    C119854   1.330   4.846   6.609 -0.1778  0.1776  1.3522
  175SAPI    HA19855   1.335   4.741   6.644  2.1932 -1.0175 -2.2644
  175SAPI    HB19856   1.432   4.839   6.565 -1.0710 -4.1826 -0.3254
  175SAPI    C219857   1.325   4.929   6.743 -0.3267 -0.0407 -0.0378
  175SAPI    HS19858   1.382   4.873   6.821 -1.7624 -0.6110  0.6260
  175SAPI   O2119859   1.187   4.940   6.788  0.1587  0.1608  0.1122
  175SAPI   C2119860   1.135   4.828   6.837  0.5728 -0.0861 -0.1873
  175SAPI   O2219861   1.189   4.716   6.849 -0.0282  0.0482 -0.3026
  175SAPI   C2219862   0.987   4.865   6.882  0.4891 -0.4368 -0.2545
  175SAPI   H2R19863   0.963   4.973   6.868 -1.0770 -0.9732 -1.8876
  175SAPI   H2S19864   0.919   4.804   6.820  0.8738 -1.4157  0.2759
  175SAPI    C319865   1.375   5.073   6.722  0.6662  0.2788 -0.6343
  175SAPI    HX19866   1.305   5.134   6.662 -0.6309  2.0580  2.5922
  175SAPI    HY19867   1.464   5.067   6.656  1.7599 -0.5023  0.8750
  175SAPI   O3119868   1.409   5.151   6.842  0.2161 -0.1538 -0.6312
  175SAPI   C3119869   1.532   5.114   6.887 -0.3654 -0.6108 -0.1512
  175SAPI   O3219870   1.610   5.039   6.831  0.2498 -0.0947 -0.0077
  175SAPI   C3219871   1.561   5.181   7.027 -0.7453  0.2586 -0.3369
  175SAPI   H2X19872   1.597   5.286   7.021 -0.8031  0.1915 -2.1447
  175SAPI   H2Y19873   1.626   5.112   7.085 -1.8769 -1.9750 -1.6401
  175SAPI   C2319874   0.957   4.830   7.031 -0.1022  0.0429 -0.0214
  175SAPI   H3R19875   1.022   4.749   7.069  1.5604  1.6626  0.6313
  175SAPI   H3S19876   0.848   4.810   7.039 -0.3063  1.5525  1.3873
  175SAPI   C2419877   1.009   4.943   7.122 -0.2286 -0.2987  0.2569
  175SAPI   H4R19878   0.925   5.002   7.164  0.8136  1.5768 -0.2213
  175SAPI   H4S19879   1.073   5.011   7.061  0.6366 -1.2408  0.0977
  175SAPI   C2519880   1.089   4.889   7.236 -0.5556 -0.6819  0.1512
  175SAPI   H5R19881   1.183   4.845   7.201  0.7591  1.7136  0.5870
  175SAPI   C2619882   1.062   4.875   7.368  0.6647 -0.2238  0.0746
  175SAPI   H6R19883   1.137   4.834   7.437  2.8403  2.7942 -0.4155
  175SAPI   C2719884   0.924   4.914   7.430  0.1622 -0.0485 -0.2437
  175SAPI   H7R19885   0.889   4.851   7.515 -1.0487 -0.2324 -0.8621
  175SAPI   H7S19886   0.842   4.885   7.361 -0.3608  0.5725  0.1051
  175SAPI   C2819887   0.918   5.059   7.476 -0.5853 -1.4030  0.1046
  175SAPI   H8R19888   0.937   5.134   7.397 -1.1293  0.9346  2.1335
  175SAPI   C2919889   0.919   5.105   7.600  0.2154 -0.1458 -0.6561
  175SAPI   H9R19890   0.907   5.214   7.613  1.0786 -0.3230  1.8876
  175SAPI  C21019891   0.908   5.020   7.725  0.4806  0.0585 -0.5821
  175SAPI  H10R19892   0.994   5.058   7.784 -1.0895  0.9556  1.1867
  175SAPI  H10S19893   0.928   4.912   7.713 -0.0508 -0.0462 -0.5276
  175SAPI  C21119894   0.783   5.047   7.805  0.3008 -0.0913  0.0280
  175SAPI  H11R19895   0.697   4.993   7.762  0.5037  0.7657 -1.4726
  175SAPI  C21219896   0.769   5.108   7.920 -1.0365  0.7736  0.3299
  175SAPI  H12R19897   0.671   5.133   7.962 -1.2250 -2.9501  2.3658
  175SAPI  C21319898   0.886   5.165   8.002  0.9465  0.3337  0.3833
  175SAPI  H13R19899   0.898   5.270   7.967  0.8735 -0.1506 -1.1274
  175SAPI  H13S19900   0.972   5.096   7.985 -0.2562 -0.8272 -1.0947
  175SAPI  C21419901   0.865   5.180   8.153  0.1486 -0.2565  0.3945
  175SAPI  H14R19902   0.811   5.274   8.173  0.3667  0.1585 -0.9242
  175SAPI  C21519903   0.902   5.093   8.244 -0.1852  0.1047 -0.0425
  175SAPI  H15R19904   0.885   5.103   8.353  1.8231 -1.1524  0.4072
  175SAPI  C21619905   0.972   4.967   8.197 -0.3970 -0.0378  0.1043
  175SAPI  H16R19906   1.074   5.000   8.169 -0.7640  2.9133  2.0334
  175SAPI  H16S19907   0.923   4.926   8.107 -1.1429  0.9061  0.0730
  175SAPI  C21719908   0.973   4.851   8.294  0.5885 -0.2654  0.3394
  175SAPI  H17R19909   0.871   4.820   8.324  0.6912  0.0262  0.9840
  175SAPI  H17S19910   1.034   4.871   8.385  1.0622 -0.1758  0.0049
  175SAPI  C21819911   1.036   4.720   8.238 -0.1129 -0.7369  0.0963
  175SAPI  H18R19912   1.136   4.753   8.204 -0.0388  0.0077  1.0065
  175SAPI  H18S19913   0.965   4.686   8.159 -0.8998  0.4934  0.2459
  175SAPI  C21919914   1.061   4.617   8.345  0.0231 -0.5093  0.1439
  175SAPI  H19R19915   0.963   4.608   8.397 -0.1924 -0.0395 -0.1661
  175SAPI  H19S19916   1.146   4.653   8.406  1.7937 -1.7063 -1.5467
  175SAPI  C22019917   1.113   4.479   8.293  0.2203 -0.0334  0.2359
  175SAPI  H20R19918   1.113   4.398   8.369  1.8758 -0.7146 -0.4660
  175SAPI  H20S19919   1.221   4.494   8.268 -0.6481  0.9195 -3.1599
  175SAPI  H20T19920   1.063   4.439   8.202  0.3742  1.0321 -0.3228
  175SAPI   C3319921   1.422   5.201   7.099 -0.1119 -0.9186 -0.0575
  175SAPI   H3X19922   1.352   5.253   7.030  0.8794 -0.4078 -0.6966
  175SAPI   H3Y19923   1.429   5.265   7.189  1.1423 -2.1745  0.7715
  175SAPI   C3419924   1.352   5.074   7.145 -0.1879 -0.2886 -0.6096
  175SAPI   H4X19925   1.311   5.014   7.062 -0.4355  1.9168 -2.1148
  175SAPI   H4Y19926   1.267   5.103   7.211  1.0030 -0.7415  1.1786
  175SAPI   C3519927   1.440   4.979   7.228 -0.1933 -0.5349  0.4512
  175SAPI   H5X19928   1.529   4.946   7.170 -0.5475 -0.4113 -0.1686
  175SAPI   H5Y19929   1.378   4.889   7.243 -1.3104  0.0567 -0.4827
  175SAPI   C3619930   1.488   5.032   7.363 -0.7436  0.1331 -0.3044
  175SAPI   H6X19931   1.534   5.132   7.346 -1.5705  0.4842 -0.5198
  175SAPI   H6Y19932   1.570   4.968   7.403 -0.9311  0.8606  1.2788
  175SAPI   C3719933   1.375   5.043   7.473  0.2911 -0.2480  0.0411
  175SAPI   H7X19934   1.342   4.938   7.486  0.7854 -0.3888  0.1809
  175SAPI   H7Y19935   1.296   5.111   7.435  0.4032 -0.8836 -1.3337
  175SAPI   C3819936   1.411   5.123   7.600  0.0496 -0.3991 -0.1324
  175SAPI   H8X19937   1.445   5.226   7.575 -0.8597  0.6402  2.6759
  175SAPI   H8Y19938   1.496   5.064   7.642 -0.0016 -0.5845 -0.2919
  175SAPI   C3919939   1.300   5.112   7.696 -0.3705  0.3005  0.1765
  175SAPI   H9X19940   1.271   5.005   7.707 -1.0362  0.4192 -0.3308
  175SAPI   H9Y19941   1.216   5.171   7.653 -0.4682  0.7935  1.0312
  175SAPI  C31019942   1.344   5.174   7.832 -0.4306  0.8411  0.3856
  175SAPI  H10X19943   1.368   5.280   7.808  2.2156 -0.2329 -1.9311
  175SAPI  H10Y19944   1.437   5.120   7.857 -2.6205 -4.5591 -2.3875
  175SAPI  C31119945   1.254   5.163   7.954  0.3479 -0.0556 -0.8676
  175SAPI  H11X19946   1.215   5.060   7.966 -0.9836  0.3475 -1.5264
  175SAPI  H11Y19947   1.168   5.232   7.937 -0.3054 -1.2038 -2.3200
  175SAPI  C31219948   1.337   5.214   8.076 -0.1704 -0.2391  1.0019
  175SAPI  H12X19949   1.331   5.325   8.067 -0.2666 -0.4391 -1.5663
  175SAPI  H12Y19950   1.437   5.167   8.080  0.0565  0.2806  1.4317
  175SAPI  C31319951   1.273   5.166   8.211 -0.0039 -0.4475  0.2753
  175SAPI  H13X19952   1.267   5.056   8.215  1.1571 -0.5598 -0.8785
  175SAPI  H13Y19953   1.166   5.195   8.217  0.2046  0.0648  1.9245
  175SAPI  C31419954   1.342   5.216   8.340  1.0414 -0.2275  0.0998
  175SAPI  H14X19955   1.349   5.326   8.353 -0.1585 -0.2049  0.6109
  175SAPI  H14Y19956   1.441   5.169   8.360  0.6102 -1.0168  0.3615
  175SAPI  C31519957   1.251   5.168   8.458 -0.4643 -0.2184 -0.0489
  175SAPI  H15X19958   1.321   5.190   8.542  1.2223 -1.6314 -1.0397
  175SAPI  H15Y19959   1.228   5.060   8.461  0.5903 -0.4206  1.2052
  175SAPI  C31619960   1.119   5.245   8.473  0.5083 -0.9013 -0.8044
  175SAPI  H16X19961   1.048   5.254   8.388 -0.3033  0.7176  0.0134
  175SAPI  H16Y19962   1.141   5.347   8.511  1.5535 -1.1419 -0.7540
  175SAPI  C31719963   1.023   5.194   8.591 -0.7338  1.1444 -0.1714
  175SAPI  H17X19964   1.087   5.200   8.681 -0.0178  0.3917 -0.6197
  175SAPI  H17Y19965   1.000   5.086   8.578 -0.8515  0.9776  1.3467
  175SAPI  C31819966   0.887   5.267   8.614  0.1559  0.5837 -0.3994
  175SAPI  H18X19967   0.832   5.228   8.702  0.1575 -0.8991 -1.0416
  175SAPI  H18Y19968   0.820   5.252   8.526  1.4592 -5.5574 -0.5512
  175SAPI  H18Z19969   0.902   5.375   8.637  1.8409 -0.3575  3.1320
  176SAPI   C1219970   0.730   3.054   6.633  0.1941 -0.0865 -0.2944
  176SAPI    H219971   0.796   3.024   6.717  0.1567  1.3498  0.2665
  176SAPI    O219972   0.672   2.940   6.584  0.1295  0.3904 -0.2118
  176SAPI   HO219973   0.705   2.871   6.643 -1.0612 -0.8834 -1.0067
  176SAPI   C1319974   0.631   3.142   6.708 -0.3060 -0.3929  0.9261
  176SAPI    H319975   0.695   3.218   6.758 -0.6867  0.6025 -0.0803
  176SAPI    O319976   0.575   3.075   6.819 -0.5303  0.0928 -0.0752
  176SAPI   HO319977   0.493   3.034   6.792 -1.5166  0.8063  1.7527
  176SAPI   C1419978   0.528   3.201   6.614  0.2196 -0.0951  0.2298
  176SAPI    H419979   0.466   3.123   6.564  0.0053  0.3613 -0.2201
  176SAPI    O419980   0.430   3.283   6.676  0.1932 -0.2695  0.6882
  176SAPI   HO419981   0.466   3.358   6.724 -0.8185  0.7066 -0.0644
  176SAPI   C1519982   0.600   3.275   6.505  0.0046 -0.1123  0.6319
  176SAPI    H519983   0.670   3.348   6.551 -0.4325 -0.4413  1.8605
  176SAPI    O519984   0.509   3.341   6.423  0.2392  0.0706 -0.2301
  176SAPI   HO519985   0.498   3.429   6.459  0.2153  0.0649 -0.2240
  176SAPI   C1619986   0.698   3.183   6.430  0.0150 -0.5659  0.2106
  176SAPI    H619987   0.636   3.101   6.388 -1.9151  0.1225  1.6499
  176SAPI    O619988   0.766   3.253   6.329 -1.0726  0.1881  0.3683
  176SAPI   HO619989   0.856   3.269   6.358 -1.3471  0.3164  1.1546
  176SAPI   C1119990   0.804   3.131   6.525  0.2178  0.6723  0.1408
  176SAPI    H119991   0.853   3.216   6.577 -0.6383  1.6503 -0.6341
  176SAPI     P19992   1.053   3.008   6.528 -0.0975 -0.1781 -0.0168
  176SAPI   O1319993   1.094   3.143   6.575  0.3650  0.3037 -0.2594
  176SAPI   O1419994   1.139   2.937   6.430  0.1139 -0.0566 -0.0632
  176SAPI   O1219995   0.901   3.041   6.466  0.9715 -0.2466 -0.2034
  176SAPI   O1119996   1.014   2.923   6.648  0.0878 -0.4891  0.0400
  176SAPI    C119997   1.045   2.783   6.655 -0.0512  0.0406 -0.3733
  176SAPI    HA19998   1.067   2.743   6.554  1.8960  0.5704 -0.1805
  176SAPI    HB19999   1.135   2.781   6.720 -0.1112  1.2797 -0.2268
  176SAPI    C220000   0.924   2.710   6.724 -0.2909 -0.2084 -1.0960
  176SAPI    HS20001   0.852   2.688   6.641 -0.2727  0.4361 -1.2876
  176SAPI   O2120002   0.856   2.791   6.821 -0.7052 -0.4671 -0.2108
  176SAPI   C2120003   0.754   2.760   6.891  0.3663  0.0530  0.8813
  176SAPI   O2220004   0.671   2.673   6.868 -0.0600 -0.6020  0.1599
  176SAPI   C2220005   0.751   2.857   7.016  1.3620  0.7819  0.2888
  176SAPI   H2R20006   0.832   2.819   7.080  0.6956 -1.7614 -0.3237
  176SAPI   H2S20007   0.781   2.961   6.992  1.2148  1.2320  1.9954
  176SAPI    C320008   0.965   2.573   6.787 -0.1860  0.3013 -0.1524
  176SAPI    HX20009   0.992   2.505   6.704 -1.4279 -1.3514  0.7659
  176SAPI    HY20010   0.877   2.525   6.835 -0.8178  0.9000 -0.6914
  176SAPI   O3120011   1.072   2.589   6.883 -0.1951  0.1023 -0.3365
  176SAPI   C3120012   1.038   2.568   7.013 -0.5332 -0.4961  0.1026
  176SAPI   O3220013   0.931   2.529   7.053  0.2215  0.3382 -0.5681
  176SAPI   C3220014   1.159   2.604   7.107 -0.6215  0.1659  0.0490
  176SAPI   H2X20015   1.235   2.648   7.039 -1.3409  0.8748 -0.3131
  176SAPI   H2Y20016   1.196   2.513   7.158  0.9067 -0.7865 -2.6639
  176SAPI   C2320017   0.618   2.856   7.096  0.3457  0.4146  0.3486
  176SAPI   H3R20018   0.589   2.750   7.110  2.1557  0.0556  1.6331
  176SAPI   H3S20019   0.545   2.914   7.036 -1.2264 -1.7595  0.1257
  176SAPI   C2420020   0.626   2.908   7.243 -0.5772 -0.4297 -0.8600
  176SAPI   H4R20021   0.680   2.829   7.299 -0.7488 -0.3522 -0.5829
  176SAPI   H4S20022   0.530   2.919   7.298  0.0195 -1.2114  0.3511
  176SAPI   C2520023   0.703   3.039   7.247  0.3067 -0.6371  0.6744
  176SAPI   H5R20024   0.812   3.034   7.263  0.4573  1.6388  0.5185
  176SAPI   C2620025   0.640   3.157   7.262 -0.3327 -0.6422 -0.2702
  176SAPI   H6R20026   0.706   3.245   7.268 -2.9341  1.3286  0.4432
  176SAPI   C2720027   0.494   3.190   7.262 -0.3811  0.3875  0.4837
  176SAPI   H7R20028   0.477   3.270   7.336  1.2825  1.2858 -0.0647
  176SAPI   H7S20029   0.444   3.094   7.288  0.8534  0.1972  2.2113
  176SAPI   C2820030   0.441   3.220   7.125  0.4848 -0.4676  0.5408
  176SAPI   H8R20031   0.512   3.197   7.044  1.1790 -1.2969  1.3805
  176SAPI   C2920032   0.317   3.255   7.082 -0.4256 -1.0655  0.1993
  176SAPI   H9R20033   0.291   3.251   6.976  2.3458 -1.2912 -0.5243
  176SAPI  C21020034   0.202   3.277   7.181 -0.3440 -0.0906  0.1414
  176SAPI  H10R20035   0.177   3.385   7.180 -1.8550 -0.4360 -1.6486
  176SAPI  H10S20036   0.236   3.262   7.286 -1.1416 -2.4033  0.0832
  176SAPI  C21120037   0.079   3.195   7.158  0.2352  0.7107 -0.5224
  176SAPI  H11R20038   0.045   3.190   7.054 -0.5761  1.2799 -0.2872
  176SAPI  C21220039   0.008   3.127   7.254  0.4827  0.0251 -0.5608
  176SAPI  H12R20040  -0.076   3.062   7.228  0.8574 -0.9173  0.5427
  176SAPI  C21320041   0.034   3.106   7.400 -0.5478 -0.0401 -0.1364
  176SAPI  H13R20042   0.133   3.056   7.413 -0.9392 -0.1710  2.7187
  176SAPI  H13S20043  -0.029   3.027   7.446 -1.4026  0.3854 -0.5737
  176SAPI  C21420044   0.032   3.229   7.485  0.1817  0.3820  0.0340
  176SAPI  H14R20045   0.094   3.314   7.451 -0.5920  0.6750 -0.6468
  176SAPI  C21520046  -0.023   3.244   7.606  0.3136 -0.5258  0.2355
  176SAPI  H15R20047  -0.013   3.341   7.656  0.1596 -1.2969  1.8186
  176SAPI  C21620048  -0.106   3.148   7.677  0.4001  0.4544  0.0287
  176SAPI  H16R20049  -0.111   3.043   7.640  0.9387  0.7039 -0.7553
  176SAPI  H16S20050  -0.213   3.177   7.678  0.6350  1.3504 -0.6730
  176SAPI  C21720051  -0.062   3.142   7.825 -0.0380  0.5420  0.5384
  176SAPI  H17R20052  -0.139   3.092   7.888 -2.4791  1.1689 -1.8539
  176SAPI  H17S20053  -0.049   3.247   7.858  2.4336  0.0212  1.3475
  176SAPI  C21820054   0.067   3.065   7.845  0.8672  0.2425  0.7197
  176SAPI  H18R20055   0.152   3.119   7.797  0.7577 -1.3586 -1.3415
  176SAPI  H18S20056   0.055   2.966   7.796  1.6590  1.4516 -2.0095
  176SAPI  C21920057   0.110   3.041   7.991  0.0878  0.1630 -0.6742
  176SAPI  H19R20058   0.186   2.959   7.990 -0.6051 -0.5331  1.4461
  176SAPI  H19S20059   0.019   2.994   8.034  0.5920 -0.6025 -0.4347
  176SAPI  C22020060   0.164   3.164   8.061  0.3133 -0.0745  0.1194
  176SAPI  H20R20061   0.266   3.184   8.022  0.3719 -1.0302 -0.2440
  176SAPI  H20S20062   0.158   3.154   8.171  2.0729  0.7939  0.2993
  176SAPI  H20T20063   0.110   3.254   8.025  0.1557 -0.6900 -1.2313
  176SAPI   C3320064   1.119   2.718   7.207  0.9540 -0.1390  0.1569
  176SAPI   H3X20065   1.082   2.808   7.153  0.3462 -1.1881 -1.1949
  176SAPI   H3Y20066   1.217   2.744   7.252  1.2707  0.6897 -0.9719
  176SAPI   C3420067   1.031   2.679   7.329 -1.0950  0.2535  0.4023
  176SAPI   H4X20068   1.066   2.585   7.375 -0.9803  0.7859  1.4233
  176SAPI   H4Y20069   0.945   2.647   7.267 -1.0249  0.4673  0.1885
  176SAPI   C3520070   0.997   2.786   7.433 -1.1658  0.1370  0.5478
  176SAPI   H5X20071   0.976   2.882   7.381 -1.6462  1.0193  2.3186
  176SAPI   H5Y20072   1.092   2.801   7.488 -0.2710  0.5400 -1.0583
  176SAPI   C3620073   0.878   2.752   7.511  0.4772 -0.0979 -0.0871
  176SAPI   H6X20074   0.903   2.658   7.563 -2.9273 -0.5222  0.9031
  176SAPI   H6Y20075   0.790   2.739   7.444  0.7044  1.6167 -0.7639
  176SAPI   C3720076   0.852   2.849   7.623 -0.9890  0.1082 -0.3657
  176SAPI   H7X20077   0.757   2.832   7.679 -0.0433 -1.2336  0.8327
  176SAPI   H7Y20078   0.839   2.952   7.582  1.0465  0.5674  0.0992
  176SAPI   C3820079   0.974   2.848   7.720  0.4492 -0.2293  0.2326
  176SAPI   H8X20080   1.044   2.915   7.667  0.8290 -0.5264  0.3548
  176SAPI   H8Y20081   1.024   2.750   7.733  0.1628 -0.2712  1.0927
  176SAPI   C3920082   0.956   2.897   7.866 -0.4124  0.2105  0.1233
  176SAPI   H9X20083   0.860   2.847   7.890 -0.1262 -0.3428  0.1317
  176SAPI   H9Y20084   0.950   3.007   7.855  2.9255  0.5541  1.1062
  176SAPI  C31020085   1.062   2.837   7.954  0.0327 -0.2142  0.3375
  176SAPI  H10X20086   1.159   2.890   7.961  0.2631 -0.4449 -0.9135
  176SAPI  H10Y20087   1.075   2.731   7.924  2.0553  0.6854 -2.1902
  176SAPI  C31120088   1.004   2.822   8.097  0.5224 -1.1596 -0.8737
  176SAPI  H11X20089   1.067   2.752   8.156  0.2369 -1.4755 -0.9449
  176SAPI  H11Y20090   0.898   2.790   8.099  0.2275 -0.2311 -1.3413
  176SAPI  C31220091   1.022   2.953   8.165 -0.4534 -0.2837 -0.2469
  176SAPI  H12X20092   0.947   3.024   8.124 -0.9998 -1.7172 -1.7632
  176SAPI  H12Y20093   1.129   2.982   8.149  0.1201 -2.9900 -1.5286
  176SAPI  C31320094   1.007   2.948   8.325 -0.3825 -0.1829  0.4361
  176SAPI  H13X20095   0.916   2.890   8.354 -0.1770 -0.6488  0.1625
  176SAPI  H13Y20096   0.988   3.052   8.359 -1.0643  0.0524 -0.6071
  176SAPI  C31420097   1.125   2.890   8.397  0.0828  0.0540  0.2442
  176SAPI  H14X20098   1.212   2.954   8.374 -0.7883  1.8565  1.7788
  176SAPI  H14Y20099   1.135   2.784   8.365 -1.5549  0.0835 -0.4235
  176SAPI  C31520100   1.096   2.881   8.552 -0.4100 -0.0440 -0.3305
  176SAPI  H15X20101   1.006   2.817   8.561  2.0417 -4.0625 -2.9663
  176SAPI  H15Y20102   1.063   2.978   8.597 -1.7122 -0.8583  0.5105
  176SAPI  C31620103   1.206   2.819   8.632 -0.3575  0.2095  1.2649
  176SAPI  H16X20104   1.268   2.905   8.666  0.8401 -0.2707  0.3271
  176SAPI  H16Y20105   1.261   2.758   8.557  0.9694 -0.1665  2.5228
  176SAPI  C31720106   1.156   2.735   8.756  0.4795 -0.1797 -0.1286
  176SAPI  H17X20107   1.241   2.680   8.802 -1.8156 -3.4621  0.4116
  176SAPI  H17Y20108   1.091   2.665   8.700  0.8822  1.5941 -2.8997
  176SAPI  C31820109   1.071   2.808   8.861 -0.3662 -0.1722  0.7116
  176SAPI  H18X20110   0.989   2.862   8.810 -0.7660  0.0234  1.5561
  176SAPI  H18Y20111   1.136   2.874   8.922  0.8455 -2.5099  2.0621
  176SAPI  H18Z20112   1.028   2.732   8.930 -3.0852  1.5601  0.9824
  177SLPC     N20113   5.973   0.397  11.233 -0.0024  0.0807 -0.1042
  177SLPC   C1320114   5.828   0.377  11.248  0.2076 -0.5362  0.6321
  177SLPC  H13A20115   5.818   0.297  11.319 -1.5296 -2.2765 -1.5152
  177SLPC  H13B20116   5.783   0.461  11.299  0.0946 -0.6658  0.7447
  177SLPC  H13C20117   5.777   0.365  11.154 -0.8705  0.9130  1.0096
  177SLPC   C1420118   6.029   0.275  11.173 -0.1391 -0.2922  0.2164
  177SLPC  H14A20119   6.136   0.271  11.185  0.0719  1.4127 -0.9837
  177SLPC  H14B20120   5.988   0.181  11.207  1.2232 -0.8623  0.3339
  177SLPC  H14C20121   6.020   0.274  11.066  1.6735  0.9707  0.0464
  177SLPC   C1520122   6.029   0.404  11.372  0.5700 -0.0745 -0.4282
  177SLPC  H15A20123   5.975   0.475  11.433 -0.9761 -0.6915 -1.0253
  177SLPC  H15B20124   6.018   0.309  11.422  0.6156  0.4289  0.5531
  177SLPC  H15C20125   6.132   0.433  11.376  0.4086  0.5918 -1.0600
  177SLPC   C1220126   6.006   0.524  11.156 -0.4823 -0.6615 -0.2280
  177SLPC  H12A20127   5.957   0.614  11.190  0.2867 -0.6819  0.9688
  177SLPC  H12B20128   5.980   0.517  11.052  1.5946  0.5216 -0.8524
  177SLPC   C1120129   6.152   0.578  11.162 -0.4196 -0.3363  0.3945
  177SLPC  H11A20130   6.189   0.604  11.264  2.2327 -1.2192 -0.3113
  177SLPC  H11B20131   6.137   0.673  11.106 -0.4531 -0.4670  0.1835
  177SLPC     P20132   6.340   0.510  10.975 -0.0713 -0.8661 -0.2008
  177SLPC   O1320133   6.449   0.602  11.020 -0.7438  0.2053 -0.0820
  177SLPC   O1420134   6.376   0.376  10.930  0.1876 -0.2262 -0.0043
  177SLPC   O1220135   6.243   0.489  11.101  0.3827 -0.0205  0.2394
  177SLPC   O1120136   6.257   0.584  10.863 -0.5899  0.7297 -0.0319
  177SLPC    C120137   6.153   0.520  10.789  0.0923 -0.3289 -0.7319
  177SLPC    HA20138   6.130   0.422  10.836 -1.1974  0.8158  1.0705
  177SLPC    HB20139   6.067   0.590  10.783 -1.0213 -1.6387 -0.2313
  177SLPC    C220140   6.212   0.498  10.648 -0.4471 -0.5317  0.2788
  177SLPC    HS20141   6.295   0.423  10.646  0.6431  0.6517  0.6217
  177SLPC   O2120142   6.248   0.631  10.596 -0.1449 -0.6972 -0.3916
  177SLPC   C2120143   6.376   0.650  10.584 -1.3272  0.8080  0.0484
  177SLPC   O2220144   6.462   0.567  10.612  0.3541  0.0513  0.1343
  177SLPC   C2220145   6.404   0.798  10.542 -0.0583 -0.7080  0.5952
  177SLPC   H2R20146   6.367   0.805  10.437 -0.1466 -1.7469  0.5548
  177SLPC   H2S20147   6.349   0.869  10.607 -1.9981 -1.1405 -0.5368
  177SLPC    C320148   6.112   0.436  10.550 -0.1013 -0.2551  0.0215
  177SLPC    HX20149   6.014   0.489  10.551 -1.1388 -2.0190 -2.7494
  177SLPC    HY20150   6.088   0.331  10.575 -0.6232 -0.5403 -1.6554
  177SLPC   O3120151   6.153   0.412  10.414 -1.1210  0.0239  0.2443
  177SLPC   C3120152   6.127   0.508  10.319 -0.6912 -0.1882 -0.4908
  177SLPC   O3220153   6.084   0.614  10.352  0.3314 -0.5833 -0.3749
  177SLPC   C3220154   6.194   0.480  10.185  0.1506  0.7043  0.4654
  177SLPC   H2X20155   6.226   0.374  10.190  0.2798  0.7492  0.6074
  177SLPC   H2Y20156   6.282   0.547  10.191 -1.1893  2.5182  0.4348
  177SLPC   C2320157   6.554   0.838  10.553  0.3254 -0.8412  0.2122
  177SLPC   H3R20158   6.622   0.769  10.499 -0.1195 -3.3149  2.7020
  177SLPC   H3S20159   6.575   0.840  10.662  0.9530 -0.0740  0.0845
  177SLPC   C2420160   6.590   0.974  10.494  0.0355 -0.1285  0.1270
  177SLPC   H4R20161   6.699   0.987  10.514  0.5398 -1.6731 -1.5070
  177SLPC   H4S20162   6.535   1.046  10.559 -0.1918  0.4913 -0.7542
  177SLPC   C2520163   6.556   0.997  10.347 -0.1566 -0.2773 -0.3809
  177SLPC   H5R20164   6.447   0.990  10.330 -0.1739 -1.5647  0.1467
  177SLPC   H5S20165   6.616   0.925  10.286 -0.4762  0.1507 -1.1992
  177SLPC   C2620166   6.606   1.132  10.310  0.1185 -0.0557  0.7216
  177SLPC   H6R20167   6.717   1.140  10.307  0.0278  1.1015  0.1291
  177SLPC   H6S20168   6.562   1.215  10.368  0.2384 -0.2840  1.1381
  177SLPC   C2720169   6.568   1.154  10.163  0.5559 -0.3395 -0.1108
  177SLPC   H7R20170   6.567   1.264  10.145 -3.0938 -0.3736 -0.5506
  177SLPC   H7S20171   6.465   1.124  10.135 -0.3552  0.7181  2.0797
  177SLPC   C2820172   6.661   1.093  10.050 -0.2280  0.0634 -0.1475
  177SLPC   H8R20173   6.662   0.983  10.066 -1.5264  0.1876  0.8966
  177SLPC   H8S20174   6.766   1.127  10.057 -0.8360  1.7245  1.2766
  177SLPC   C2920175   6.592   1.132   9.922 -0.4200 -0.0864  0.7060
  177SLPC   H9R20176   6.628   1.233   9.897  0.7695  0.1090  3.0349
  177SLPC  C21020177   6.504   1.062   9.839  0.1701  0.4152 -0.1617
  177SLPC  H10R20178   6.463   1.113   9.751  1.7477  1.9173 -0.0376
  177SLPC  C21120179   6.460   0.922   9.857  0.2383 -0.0524 -0.0698
  177SLPC  H11R20180   6.482   0.880   9.957  2.5873  1.4962  0.0780
  177SLPC  H11S20181   6.349   0.929   9.853  0.0318 -1.4719  2.3413
  177SLPC  C21220182   6.507   0.829   9.748  0.3141 -0.1445 -0.6368
  177SLPC  H12R20183   6.518   0.878   9.651  1.8998  0.2517 -0.2712
  177SLPC  C21320184   6.555   0.703   9.769  0.2600 -0.0381 -0.0057
  177SLPC  H13R20185   6.594   0.642   9.686  1.6890 -1.2035  1.5039
  177SLPC  C21420186   6.561   0.609   9.884 -0.2847  0.3768  0.8064
  177SLPC  H14R20187   6.519   0.513   9.847  0.2393 -0.0544  1.3269
  177SLPC  H14S20188   6.503   0.634   9.975 -0.7448 -0.8350  0.8500
  177SLPC  C21520189   6.711   0.583   9.916 -0.4743 -0.7326 -0.1606
  177SLPC  H15R20190   6.775   0.671   9.939 -0.7821 -0.6207  0.2803
  177SLPC  H15S20191   6.765   0.527   9.837 -0.0112 -1.1675  0.4596
  177SLPC  C21620192   6.715   0.505  10.043  0.1646 -0.3801 -0.1585
  177SLPC  H16R20193   6.818   0.461  10.050  0.8445  1.0306 -1.1516
  177SLPC  H16S20194   6.646   0.419  10.028 -1.4851  0.3324  2.9538
  177SLPC  C21720195   6.674   0.577  10.167 -0.0421 -0.4590  0.0503
  177SLPC  H17R20196   6.576   0.630  10.161 -0.0538 -0.3792  0.9061
  177SLPC  H17S20197   6.749   0.657  10.184  1.8287 -2.1387 -0.1131
  177SLPC  C21820198   6.681   0.483  10.295 -0.1644 -0.5179 -0.5800
  177SLPC  H18R20199   6.623   0.393  10.267 -1.2572  0.7303 -2.5467
  177SLPC  H18S20200   6.631   0.532  10.381  0.2257 -1.6782  0.3202
  177SLPC  H18T20201   6.784   0.462  10.330 -0.7691 -2.4643  0.0881
  177SLPC   C3320202   6.114   0.515  10.053 -0.1690  0.4284  0.6210
  177SLPC   H3X20203   6.084   0.621  10.059 -0.2547  0.3449  1.7621
  177SLPC   H3Y20204   6.030   0.451  10.018 -0.3132 -0.3014  2.2679
  177SLPC   C3420205   6.220   0.495   9.934 -0.0124  0.9154  0.0253
  177SLPC   H4X20206   6.277   0.401   9.948  0.0772  1.1625  1.4051
  177SLPC   H4Y20207   6.286   0.584   9.923  1.3122 -0.0294  0.2952
  177SLPC   C3520208   6.151   0.497   9.794 -0.6641 -0.4183  0.0950
  177SLPC   H5X20209   6.121   0.602   9.772  0.4115 -0.5065 -1.9322
  177SLPC   H5Y20210   6.059   0.435   9.799 -0.3106 -0.8909  0.6853
  177SLPC   C3620211   6.236   0.458   9.670 -0.3370 -0.2257 -0.3447
  177SLPC   H6X20212   6.241   0.347   9.663 -1.7549 -0.3221 -0.0822
  177SLPC   H6Y20213   6.342   0.486   9.687  0.2485 -0.7679 -2.9404
  177SLPC   C3720214   6.165   0.502   9.538  0.0932 -0.0412 -0.3130
  177SLPC   H7X20215   6.150   0.612   9.545  1.3955  0.0985  0.5349
  177SLPC   H7Y20216   6.076   0.437   9.522  0.0420  0.4213 -1.9982
  177SLPC   C3820217   6.263   0.506   9.414  0.1126 -0.5725  0.1352
  177SLPC   H8X20218   6.289   0.398   9.412  2.3979 -0.0156 -1.1413
  177SLPC   H8Y20219   6.355   0.568   9.414  0.9566 -1.7886  1.4788
  177SLPC   C3920220   6.190   0.534   9.286 -0.8554 -0.4625  0.8346
  177SLPC   H9X20221   6.176   0.644   9.281 -1.8344 -0.6321 -0.3860
  177SLPC   H9Y20222   6.086   0.498   9.297 -1.5208  1.0712 -0.1825
  177SLPC  C31020223   6.265   0.469   9.168  0.0789 -0.0878  0.1883
  177SLPC  H10X20224   6.272   0.358   9.177 -0.0245 -0.0586  0.6354
  177SLPC  H10Y20225   6.369   0.506   9.163  0.4260 -0.9500  0.7696
  177SLPC  C31120226   6.208   0.493   9.019  0.3867 -0.5427 -0.6494
  177SLPC  H11X20227   6.240   0.420   8.941 -2.6209 -2.0014 -0.6052
  177SLPC  H11Y20228   6.240   0.598   9.000 -1.6018  0.3264  0.6524
  177SLPC  C31220229   6.053   0.498   9.020  0.5032  0.2257 -0.0621
  177SLPC  H12X20230   6.022   0.585   9.082 -0.4086 -0.6889  0.7939
  177SLPC  H12Y20231   6.014   0.410   9.076  1.0698  1.0710  1.7127
  177SLPC  C31320232   5.980   0.512   8.884  0.6349  0.5346  0.2848
  177SLPC  H13X20233   5.872   0.499   8.908  0.6902  0.7103  0.6300
  177SLPC  H13Y20234   6.007   0.423   8.823  0.1203 -0.9848  2.1923
  177SLPC  C31420235   5.995   0.645   8.808  0.7568 -0.6053 -0.6528
  177SLPC  H14X20236   6.097   0.650   8.764  0.8639  0.3135 -0.3103
  177SLPC  H14Y20237   5.989   0.726   8.883 -0.9094 -3.0768  1.9801
  177SLPC  C31520238   5.896   0.678   8.693  0.2478 -0.0615 -0.7571
  177SLPC  H15X20239   5.793   0.674   8.734  0.2193  0.8224 -0.7402
  177SLPC  H15Y20240   5.909   0.597   8.618 -3.8681 -1.3698 -0.1640
  177SLPC  C31620241   5.923   0.799   8.607 -0.1351  0.1453 -0.2354
  177SLPC  H16X20242   5.845   0.787   8.528  0.4725  1.2644 -1.0198
  177SLPC  H16Y20243   6.027   0.796   8.566  0.5096 -1.5268  1.4642
  177SLPC  C31720244   5.916   0.936   8.684 -0.1360  0.8561 -0.4055
  177SLPC  H17X20245   5.987   0.935   8.769  0.2208 -1.2708 -0.6929
  177SLPC  H17Y20246   5.810   0.946   8.715 -0.0504 -0.8666  0.4595
  177SLPC  C31820247   5.937   1.053   8.591 -0.7620  0.2518 -0.5369
  177SLPC  H18X20248   5.884   1.145   8.624 -0.3708  0.8480 -1.5304
  177SLPC  H18Y20249   5.915   1.040   8.483 -0.7910  1.7882 -0.7267
  177SLPC  H18Z20250   6.046   1.072   8.599 -0.2723 -2.4095 -0.4939
  178SLPC     N20251   2.165   2.180  11.108 -0.2629  0.3283  0.4245
  178SLPC   C1320252   2.097   2.216  10.978 -0.0474  0.4974 -0.8436
  178SLPC  H13A20253   2.011   2.154  10.959 -0.8549  0.4989  2.4628
  178SLPC  H13B20254   2.056   2.316  10.978  0.8263  0.9164  1.8401
  178SLPC  H13C20255   2.165   2.200  10.895 -0.4278 -0.7421 -0.9195
  178SLPC   C1420256   2.288   2.275  11.112  0.7460  0.4996 -0.1918
  178SLPC  H14A20257   2.372   2.249  11.174  1.7427  2.3653 -0.7242
  178SLPC  H14B20258   2.328   2.274  11.012 -0.1644  2.2926 -0.5987
  178SLPC  H14C20259   2.263   2.379  11.126  0.4252  0.3450  0.4515
  178SLPC   C1520260   2.215   2.042  11.097  0.5149 -0.0859 -0.6564
  178SLPC  H15A20261   2.286   2.031  11.016 -1.2069 -0.5298 -2.1290
  178SLPC  H15B20262   2.260   2.004  11.188 -0.6037 -2.3207 -1.0201
  178SLPC  H15C20263   2.129   1.981  11.078  0.0055  0.8353 -1.3512
  178SLPC   C1220264   2.080   2.213  11.229  0.2571 -0.1097  0.4368
  178SLPC  H12A20265   2.033   2.310  11.217  2.9504  1.0001 -1.7599
  178SLPC  H12B20266   2.140   2.227  11.318  1.0206  1.4128 -0.2916
  178SLPC   C1120267   1.968   2.110  11.257 -0.9040  0.0442 -0.1064
  178SLPC  H11A20268   1.945   2.135  11.363  0.1688  1.0250 -0.0918
  178SLPC  H11B20269   2.009   2.007  11.257 -2.2781 -0.5224  0.8917
  178SLPC     P20270   1.798   2.007  11.086  0.3010 -0.2330  0.0204
  178SLPC   O1320271   1.862   1.878  11.127 -0.1800 -0.2488 -0.5189
  178SLPC   O1420272   1.647   2.016  11.084 -0.3468 -0.0278  0.2554
  178SLPC   O1220273   1.856   2.134  11.172  0.3429  0.2081 -0.6822
  178SLPC   O1120274   1.845   2.041  10.941  0.0229 -0.2342  0.0056
  178SLPC    C120275   1.774   1.973  10.835 -0.0915  0.4235  0.1521
  178SLPC    HA20276   1.759   1.867  10.864 -0.1456  0.1509 -0.8511
  178SLPC    HB20277   1.670   2.009  10.818 -0.6174 -1.0600  0.1454
  178SLPC    C220278   1.848   1.967  10.701  0.5290  0.0097  0.2016
  178SLPC    HS20279   1.947   1.929  10.735  0.2172 -0.5233  0.5219
  178SLPC   O2120280   1.847   2.103  10.644 -0.2114  0.5750  0.5428
  178SLPC   C2120281   1.962   2.131  10.580  0.2563 -0.1689  0.2831
  178SLPC   O2220282   2.066   2.066  10.589  0.4637  0.6716  0.0114
  178SLPC   C2220283   1.953   2.260  10.504  0.1902  0.7149  0.7753
  178SLPC   H2R20284   1.968   2.339  10.581  0.4430 -0.8077  2.3234
  178SLPC   H2S20285   2.043   2.271  10.439 -0.5964  0.6209 -0.3432
  178SLPC    C320286   1.807   1.866  10.589  0.6128 -0.2627 -0.1111
  178SLPC    HX20287   1.796   1.766  10.635 -1.1429  0.6417  1.5152
  178SLPC    HY20288   1.886   1.869  10.511 -0.9359  1.7004 -1.6708
  178SLPC   O3120289   1.693   1.912  10.516 -0.3276  0.2822 -0.3228
  178SLPC   C3120290   1.568   1.885  10.559  0.7231  0.3840 -0.6595
  178SLPC   O3220291   1.533   1.827  10.666  0.2192 -0.5285 -0.3076
  178SLPC   C3220292   1.477   1.964  10.468 -0.8704 -0.0192 -0.5226
  178SLPC   H2X20293   1.377   1.916  10.473 -0.4778 -0.5527  4.5833
  178SLPC   H2Y20294   1.507   1.937  10.365 -0.1990  0.0383 -0.3411
  178SLPC   C2320295   1.827   2.297  10.423 -0.2320  0.6407  0.2398
  178SLPC   H3R20296   1.813   2.407  10.411 -0.5320  0.6429  0.5819
  178SLPC   H3S20297   1.731   2.284  10.478 -0.1449 -1.1155 -0.0238
  178SLPC   C2420298   1.819   2.210  10.297  0.9601  0.3650 -0.3376
  178SLPC   H4R20299   1.790   2.106  10.324  2.8398  0.6118  2.8378
  178SLPC   H4S20300   1.910   2.185  10.239 -1.3032 -0.9145 -3.5124
  178SLPC   C2520301   1.718   2.277  10.194 -0.0196  0.6589 -0.0724
  178SLPC   H5R20302   1.778   2.345  10.129  1.8840  0.7216  1.7219
  178SLPC   H5S20303   1.653   2.356  10.239  0.5433  1.2840 -0.3449
  178SLPC   C2620304   1.640   2.167  10.125 -0.7905  0.2462 -0.0950
  178SLPC   H6R20305   1.585   2.106  10.200  0.3500  0.4934  0.9840
  178SLPC   H6S20306   1.718   2.108  10.072  0.8275  2.9674 -0.8123
  178SLPC   C2720307   1.551   2.226  10.017  0.9475  0.4012  0.3443
  178SLPC   H7R20308   1.612   2.310   9.978  0.9461  0.6443  0.8530
  178SLPC   H7S20309   1.458   2.262  10.067  0.3890 -0.4940 -0.0391
  178SLPC   C2820310   1.501   2.134   9.903  0.0802 -0.4915 -0.0065
  178SLPC   H8R20311   1.449   2.055   9.961  0.4965  0.8937  2.3316
  178SLPC   H8S20312   1.578   2.086   9.839 -1.6126 -0.7954 -1.8992
  178SLPC   C2920313   1.393   2.205   9.829 -0.1647  0.3089  0.0681
  178SLPC   H9R20314   1.301   2.218   9.887 -0.2954 -0.9063  0.1422
  178SLPC  C21020315   1.400   2.243   9.698  0.0804 -0.0351  0.2265
  178SLPC  H10R20316   1.309   2.288   9.656  0.0696  0.1641  0.4608
  178SLPC  C21120317   1.521   2.248   9.609  0.0264  0.6589  0.2164
  178SLPC  H11R20318   1.617   2.221   9.659  0.6944 -0.9590 -1.8461
  178SLPC  H11S20319   1.529   2.353   9.573  0.5105  0.7653  0.6269
  178SLPC  C21220320   1.516   2.149   9.491 -0.5584 -0.1035  0.3478
  178SLPC  H12R20321   1.480   2.046   9.505  2.6118 -1.3983 -0.6253
  178SLPC  C21320322   1.557   2.187   9.372  0.7378 -0.0131 -0.1212
  178SLPC  H13R20323   1.554   2.108   9.296 -1.3881 -0.3678  0.2844
  178SLPC  C21420324   1.617   2.316   9.331 -0.3785  1.0220  0.4692
  178SLPC  H14R20325   1.721   2.327   9.368 -0.5252 -0.9770  1.5539
  178SLPC  H14S20326   1.552   2.402   9.358 -1.1067  0.5175  0.3388
  178SLPC  C21520327   1.627   2.329   9.172  0.4737  0.6702  0.3550
  178SLPC  H15R20328   1.699   2.259   9.125  0.2794  2.3370 -2.5618
  178SLPC  H15S20329   1.661   2.433   9.151  0.8898  0.5035  0.2008
  178SLPC  C21620330   1.496   2.297   9.104  0.6903  0.0109 -0.2546
  178SLPC  H16R20331   1.415   2.356   9.154 -1.3968 -1.8112 -1.4179
  178SLPC  H16S20332   1.480   2.188   9.111  1.6115 -0.1096 -0.0149
  178SLPC  C21720333   1.488   2.333   8.958 -0.0616  0.0220 -0.0634
  178SLPC  H17R20334   1.412   2.266   8.913 -0.6324 -1.2018  2.6628
  178SLPC  H17S20335   1.582   2.310   8.904  1.3949  1.1406  1.9124
  178SLPC  C21820336   1.454   2.477   8.922  0.1096 -0.7789 -0.1095
  178SLPC  H18R20337   1.525   2.552   8.963  1.3520 -1.0588 -1.6664
  178SLPC  H18S20338   1.352   2.506   8.954  0.6700 -0.2796  1.2576
  178SLPC  H18T20339   1.462   2.505   8.814 -2.6110  1.9084  0.3141
  178SLPC   C3320340   1.485   2.120  10.496  0.2114  0.3272  0.2490
  178SLPC   H3X20341   1.566   2.166  10.435  2.3721 -1.7289  1.4848
  178SLPC   H3Y20342   1.508   2.139  10.603  0.0979  1.3319  0.1057
  178SLPC   C3420343   1.355   2.185  10.458 -0.1773 -0.3425 -0.1975
  178SLPC   H4X20344   1.285   2.138  10.531  0.3257  1.1441  1.2736
  178SLPC   H4Y20345   1.326   2.160  10.353  0.3514 -1.1665 -0.1546
  178SLPC   C3520346   1.354   2.337  10.485 -0.2109  0.8157  0.9053
  178SLPC   H5X20347   1.444   2.396  10.457  1.3300 -2.8664 -2.3963
  178SLPC   H5Y20348   1.344   2.330  10.595 -1.8822 -2.5347  0.5946
  178SLPC   C3620349   1.231   2.409  10.424 -0.3344 -0.2998 -0.3182
  178SLPC   H6X20350   1.211   2.508  10.469 -3.1729  0.2692 -2.6712
  178SLPC   H6Y20351   1.145   2.351  10.461 -0.4211  0.9753  1.5157
  178SLPC   C3720352   1.225   2.416  10.269 -0.2047  0.2105  0.6214
  178SLPC   H7X20353   1.267   2.322  10.228  1.8080  1.7017 -0.8077
  178SLPC   H7Y20354   1.290   2.503  10.246  0.9194 -1.3184 -2.2742
  178SLPC   C3820355   1.088   2.441  10.208 -0.3859 -0.0793  0.7015
  178SLPC   H8X20356   1.063   2.542  10.246  1.6721  0.1642  1.4469
  178SLPC   H8Y20357   1.012   2.370  10.248 -1.5537  1.0330  0.5070
  178SLPC   C3920358   1.096   2.448  10.054  0.3726 -0.2367  0.5366
  178SLPC   H9X20359   1.148   2.364  10.003 -0.4431 -0.6284  0.3406
  178SLPC   H9Y20360   1.159   2.536  10.029 -3.4279  1.9325 -1.9299
  178SLPC  C31020361   0.966   2.480   9.979 -0.2303 -0.0800  0.0720
  178SLPC  H10X20362   0.950   2.589   9.993 -0.0553 -0.0970  0.3993
  178SLPC  H10Y20363   0.876   2.431  10.021 -0.7661  1.0773  0.3013
  178SLPC  C31120364   0.969   2.467   9.829  0.0162 -0.0832 -0.2012
  178SLPC  H11X20365   0.871   2.513   9.806 -0.7924 -0.0708  3.0575
  178SLPC  H11Y20366   0.961   2.359   9.801 -0.3981  0.6898 -3.2366
  178SLPC  C31220367   1.082   2.526   9.750 -0.3020  0.2948  0.7235
  178SLPC  H12X20368   1.175   2.476   9.786  1.7505  2.1479 -1.7227
  178SLPC  H12Y20369   1.098   2.634   9.773  1.4235  0.7716 -2.4308
  178SLPC  C31320370   1.076   2.496   9.597  0.5136 -0.1597  1.4520
  178SLPC  H13X20371   0.992   2.555   9.554  1.4211 -0.9240 -1.4709
  178SLPC  H13Y20372   1.053   2.387   9.593 -4.3804  0.7920  0.1126
  178SLPC  C31420373   1.203   2.531   9.522 -0.5838  0.2903 -0.2797
  178SLPC  H14X20374   1.283   2.477   9.578 -2.7589  0.4339  3.1561
  178SLPC  H14Y20375   1.206   2.642   9.534  0.3731  0.1713  0.7110
  178SLPC  C31520376   1.208   2.487   9.374  0.2749  0.3454 -0.2220
  178SLPC  H15X20377   1.308   2.478   9.326  0.6462  0.1664  0.5822
  178SLPC  H15Y20378   1.165   2.385   9.375 -2.2324  1.3876  0.1884
  178SLPC  C31620379   1.115   2.579   9.297  0.4943  0.4844 -0.0957
  178SLPC  H16X20380   1.138   2.688   9.302 -1.1067  0.9406 -1.8509
  178SLPC  H16Y20381   1.014   2.575   9.344  0.7137  1.5441  0.4840
  178SLPC  C31720382   1.113   2.535   9.151  0.3017 -0.2852  0.6253
  178SLPC  H17X20383   1.210   2.564   9.104 -0.9769  2.5422 -0.3900
  178SLPC  H17Y20384   1.032   2.593   9.102  0.6729 -0.4843 -0.2485
  178SLPC  C31820385   1.102   2.380   9.132 -0.2886 -0.3507  0.2445
  178SLPC  H18X20386   1.042   2.374   9.039  0.0153 -0.4256  0.0499
  178SLPC  H18Y20387   1.044   2.328   9.211 -0.4630 -1.8717 -0.8630
  178SLPC  H18Z20388   1.199   2.326   9.125 -1.1454 -1.5907 -2.4748
  179SLPC     N20389   3.591   5.353  10.429  0.1074 -0.1651  0.2286
  179SLPC   C1320390   3.683   5.230  10.437  0.6530 -0.8823 -0.0127
  179SLPC  H13A20391   3.616   5.145  10.448  1.4686 -1.6627 -0.9301
  179SLPC  H13B20392   3.739   5.198  10.351 -0.5438 -1.7989 -0.4759
  179SLPC  H13C20393   3.749   5.243  10.521  1.7694  1.4410 -1.1973
  179SLPC   C1420394   3.652   5.485  10.423  0.1004  0.1553  0.5034
  179SLPC  H14A20395   3.716   5.500  10.509  0.1276 -2.9073  1.0558
  179SLPC  H14B20396   3.708   5.492  10.331 -0.3847  2.7335  0.3504
  179SLPC  H14C20397   3.580   5.566  10.425 -1.4125 -1.1839  1.1519
  179SLPC   C1520398   3.512   5.326  10.550 -1.3240  0.1081  0.2599
  179SLPC  H15A20399   3.431   5.396  10.562 -2.7012 -1.4450  0.2085
  179SLPC  H15B20400   3.456   5.236  10.525 -0.8448 -0.1630  0.1462
  179SLPC  H15C20401   3.573   5.305  10.636 -2.1694 -0.5974  0.7034
  179SLPC   C1220402   3.496   5.326  10.313 -0.1964 -1.0161 -0.5557
  179SLPC  H12A20403   3.436   5.239  10.330 -1.9035  0.3935  0.8036
  179SLPC  H12B20404   3.553   5.302  10.224 -0.7060 -1.5864 -0.7256
  179SLPC   C1120405   3.403   5.440  10.269  0.0878  0.1027  0.0686
  179SLPC  H11A20406   3.351   5.418  10.173 -2.9490 -0.3438  1.7413
  179SLPC  H11B20407   3.468   5.528  10.254 -0.1584  0.0709 -1.2007
  179SLPC     P20408   3.276   5.604  10.443  0.2702 -0.4012 -0.0063
  179SLPC   O1320409   3.174   5.581  10.548  0.1348  0.1825 -0.8314
  179SLPC   O1420410   3.407   5.658  10.485  0.2910 -0.0800 -0.2930
  179SLPC   O1220411   3.297   5.471  10.363  0.6835  0.1123  0.9775
  179SLPC   O1120412   3.225   5.703  10.338  0.1392  0.6733  0.5272
  179SLPC    C120413   3.151   5.649  10.223  0.6961 -0.0490 -0.3236
  179SLPC    HA20414   3.224   5.632  10.140 -0.4120 -2.8339 -0.7950
  179SLPC    HB20415   3.097   5.555  10.247  1.0918  0.5863  3.2596
  179SLPC    C220416   3.049   5.759  10.178  0.2838 -0.1217 -0.4249
  179SLPC    HS20417   3.007   5.728  10.080 -2.6463  1.2509  0.3347
  179SLPC   O2120418   3.109   5.888  10.162 -0.6558 -0.0535  0.6993
  179SLPC   C2120419   3.187   5.897  10.062  0.3871 -0.3431 -0.5948
  179SLPC   O2220420   3.191   5.814   9.973  0.4163  0.5166  0.2712
  179SLPC   C2220421   3.250   6.037  10.066 -0.3523 -0.3617 -0.3815
  179SLPC   H2R20422   3.257   6.066  10.174  2.7978 -1.0778 -0.3467
  179SLPC   H2S20423   3.344   6.045  10.008 -2.2327  1.0474 -3.3538
  179SLPC    C320424   2.932   5.769  10.270  0.6736  0.2472  0.2894
  179SLPC    HX20425   2.966   5.822  10.362  1.4869 -1.7171  1.1303
  179SLPC    HY20426   2.895   5.667  10.291  2.1908  0.0206  1.9681
  179SLPC   O3120427   2.823   5.832  10.207 -0.2048  0.1974 -0.5118
  179SLPC   C3120428   2.805   5.959  10.230  0.5937  0.7334 -0.2374
  179SLPC   O3220429   2.874   6.040  10.291 -0.0174 -0.5281  0.1594
  179SLPC   C3220430   2.681   6.006  10.155  0.4167  0.2277  0.0425
  179SLPC   H2X20431   2.637   6.089  10.215 -0.8239  0.5271 -1.2574
  179SLPC   H2Y20432   2.609   5.921  10.151  2.8036 -1.7333 -2.8881
  179SLPC   C2320433   3.143   6.145  10.018  0.0247  0.4338  0.1268
  179SLPC   H3R20434   3.179   6.248  10.042 -4.1578  1.9654  0.2355
  179SLPC   H3S20435   3.057   6.132  10.088  0.9347 -1.4041  0.9443
  179SLPC   C2420436   3.107   6.139   9.873 -0.4370 -0.2471 -0.0676
  179SLPC   H4R20437   3.015   6.195   9.844  1.3790  2.3770 -0.9311
  179SLPC   H4S20438   3.085   6.031   9.855  0.4487 -0.5137  0.3910
  179SLPC   C2520439   3.219   6.189   9.780  0.1728  0.5441  0.2014
  179SLPC   H5R20440   3.313   6.138   9.813  0.0155 -0.5988 -1.0731
  179SLPC   H5S20441   3.236   6.298   9.784 -0.3704  0.6228  0.4117
  179SLPC   C2620442   3.200   6.147   9.627 -0.8221 -0.5499  0.6601
  179SLPC   H6R20443   3.208   6.036   9.625  0.4215 -0.4641  0.4017
  179SLPC   H6S20444   3.284   6.186   9.566 -0.2634  2.9572  3.4552
  179SLPC   C2720445   3.070   6.202   9.579  0.0967 -0.3482 -0.4004
  179SLPC   H7R20446   3.052   6.300   9.627  0.2343 -1.3372  1.7215
  179SLPC   H7S20447   2.999   6.125   9.614 -2.9881  2.3204 -0.5618
  179SLPC   C2820448   3.062   6.199   9.419  0.0335 -0.3011 -0.6214
  179SLPC   H8R20449   2.960   6.227   9.386  0.0696  0.9064  0.2754
  179SLPC   H8S20450   3.070   6.094   9.384  0.1126  0.3216 -2.5086
  179SLPC   C2920451   3.161   6.284   9.351  0.1746  0.3100  0.7110
  179SLPC   H9R20452   3.223   6.346   9.418  0.6606 -0.6171  1.1265
  179SLPC  C21020453   3.187   6.292   9.218 -0.4197  0.2650 -0.0919
  179SLPC  H10R20454   3.237   6.384   9.182  0.6997 -0.9946 -1.8486
  179SLPC  C21120455   3.121   6.212   9.108  0.3986  0.8132  0.8186
  179SLPC  H11R20456   3.042   6.273   9.060  1.0408 -0.8962 -2.5790
  179SLPC  H11S20457   3.059   6.138   9.162 -0.1562  1.8586  1.6158
  179SLPC  C21220458   3.210   6.167   8.998  0.6728 -0.3445 -0.1928
  179SLPC  H12R20459   3.286   6.242   8.969  1.4361 -0.2496  1.9478
  179SLPC  C21320460   3.212   6.051   8.932  0.0081  1.1838  0.2136
  179SLPC  H13R20461   3.288   6.037   8.854  0.2496 -0.9946  0.8055
  179SLPC  C21420462   3.124   5.932   8.957 -0.1926  0.1531 -0.1918
  179SLPC  H14R20463   3.064   5.940   9.050 -1.0690  0.2163 -0.7649
  179SLPC  H14S20464   3.187   5.840   8.965 -0.5565 -0.0168  0.8764
  179SLPC  C21520465   3.032   5.918   8.838  0.0307 -0.0058 -0.1408
  179SLPC  H15R20466   2.988   6.019   8.824 -0.3061 -0.2168 -0.6381
  179SLPC  H15S20467   2.953   5.843   8.862 -0.4094  0.0661 -1.3218
  179SLPC  C21620468   3.100   5.841   8.721 -0.0771 -0.1626  0.5308
  179SLPC  H16R20469   3.118   5.737   8.757 -0.0863 -0.7743 -1.1567
  179SLPC  H16S20470   3.196   5.891   8.693 -0.2898  0.2397  0.5186
  179SLPC  C21720471   3.014   5.827   8.595  0.4017 -1.0321  0.3496
  179SLPC  H17R20472   3.009   5.921   8.537  0.1247 -1.6954 -0.6998
  179SLPC  H17S20473   2.907   5.810   8.617  0.2699 -0.3283  0.2768
  179SLPC  C21820474   3.069   5.726   8.494  0.6943 -0.4347 -1.0304
  179SLPC  H18R20475   3.058   5.621   8.529  1.1385 -0.4759 -1.0115
  179SLPC  H18S20476   3.174   5.743   8.461  1.4995  0.2942  1.7637
  179SLPC  H18T20477   3.014   5.752   8.401  1.3803  1.6672 -0.8728
  179SLPC   C3320478   2.705   6.080  10.019 -0.1104 -0.9309 -0.5440
  179SLPC   H3X20479   2.760   6.174  10.037  0.4458 -1.0863 -1.4231
  179SLPC   H3Y20480   2.606   6.121   9.989 -0.4127  0.1517  1.8067
  179SLPC   C3420481   2.764   6.004   9.905  0.5246 -0.2882  0.3408
  179SLPC   H4X20482   2.723   5.902   9.917  1.3817 -0.6484  0.2513
  179SLPC   H4Y20483   2.873   5.983   9.919  0.5627  1.0824  2.2188
  179SLPC   C3520484   2.738   6.051   9.760  0.2476 -0.0503 -0.2095
  179SLPC   H5X20485   2.798   6.140   9.732 -1.3987  1.4409  0.8405
  179SLPC   H5Y20486   2.630   6.077   9.769  0.6905  1.6308  0.3233
  179SLPC   C3620487   2.746   5.940   9.653  0.8209 -0.7764 -0.1153
  179SLPC   H6X20488   2.688   5.858   9.702 -0.2831  1.5975  2.6582
  179SLPC   H6Y20489   2.847   5.909   9.618  1.4682  2.7149 -1.5321
  179SLPC   C3720490   2.672   5.980   9.527 -0.1600  0.4780 -0.2085
  179SLPC   H7X20491   2.716   6.076   9.492  1.4846  0.4141  1.6197
  179SLPC   H7Y20492   2.565   6.004   9.547  0.0436  0.4511  0.9138
  179SLPC   C3820493   2.697   5.871   9.420 -0.0492  0.0830 -0.4780
  179SLPC   H8X20494   2.640   5.782   9.456 -0.1044  1.1072  2.0608
  179SLPC   H8Y20495   2.802   5.834   9.417 -0.0549 -0.4591  3.0325
  179SLPC   C3920496   2.669   5.921   9.277  0.2330  0.4052  0.1892
  179SLPC   H9X20497   2.727   5.852   9.211 -1.0647 -0.7302  0.2069
  179SLPC   H9Y20498   2.722   6.017   9.263  0.3458  1.0167  4.2407
  179SLPC  C31020499   2.523   5.918   9.244  0.3166  0.1007  0.3177
  179SLPC  H10X20500   2.475   5.997   9.305 -0.1392 -0.3179  0.5078
  179SLPC  H10Y20501   2.466   5.823   9.258 -0.5643  0.5140 -0.3930
  179SLPC  C31120502   2.502   5.943   9.090  0.3659  0.4388  0.1278
  179SLPC  H11X20503   2.535   5.863   9.021 -0.4019  0.5661 -0.3908
  179SLPC  H11Y20504   2.564   6.030   9.060 -1.4028  2.1219  1.2145
  179SLPC  C31220505   2.352   5.970   9.061  0.3444  0.6943 -0.3598
  179SLPC  H12X20506   2.307   6.041   9.134  1.5391  2.0617 -0.9031
  179SLPC  H12Y20507   2.291   5.880   9.081  1.3839  0.0022 -0.2624
  179SLPC  C31320508   2.335   6.016   8.920  0.6934  0.3754 -0.0786
  179SLPC  H13X20509   2.371   5.932   8.856 -0.6994 -0.2653 -0.0310
  179SLPC  H13Y20510   2.403   6.104   8.913  0.6086  0.5827  1.6494
  179SLPC  C31420511   2.192   6.049   8.868 -0.7070  0.6422 -0.8876
  179SLPC  H14X20512   2.139   6.117   8.939  1.6345  2.0568 -0.4212
  179SLPC  H14Y20513   2.123   5.964   8.849 -1.7137  1.6660 -1.9460
  179SLPC  C31520514   2.195   6.126   8.737 -0.9310  0.2274  0.0854
  179SLPC  H15X20515   2.240   6.228   8.745  0.1314 -0.1821 -0.5169
  179SLPC  H15Y20516   2.088   6.141   8.713 -0.5820  0.6866 -1.2326
  179SLPC  C31620517   2.265   6.047   8.622 -0.2091 -0.2542 -0.0647
  179SLPC  H16X20518   2.234   5.942   8.610 -2.0825  0.2792 -0.0164
  179SLPC  H16Y20519   2.373   6.040   8.650 -0.6552 -1.1889  1.4356
  179SLPC  C31720520   2.262   6.123   8.494 -0.2003 -0.3708  0.2960
  179SLPC  H17X20521   2.337   6.204   8.479 -0.3712 -0.4683 -1.1846
  179SLPC  H17Y20522   2.161   6.165   8.473  0.5994  0.9158 -1.0975
  179SLPC  C31820523   2.300   6.028   8.374  0.0380  0.0794 -0.1573
  179SLPC  H18X20524   2.407   5.997   8.374  0.9042  2.8124  2.4958
  179SLPC  H18Y20525   2.284   6.080   8.277 -1.1144 -1.0342 -0.5796
  179SLPC  H18Z20526   2.228   5.943   8.370  1.1361 -0.8548 -0.3317
  180SLPC     N20527   3.680   3.538  11.076 -0.2487 -0.1152 -0.2947
  180SLPC   C1320528   3.536   3.586  11.062  0.1115  1.3204 -0.2609
  180SLPC  H13A20529   3.539   3.648  10.973 -1.1421 -1.4951 -2.3480
  180SLPC  H13B20530   3.462   3.509  11.046  1.5991 -1.0152  3.4248
  180SLPC  H13C20531   3.504   3.650  11.143 -1.0024 -0.6909  0.9208
  180SLPC   C1420532   3.691   3.436  11.191  0.1967  0.0426  0.0053
  180SLPC  H14A20533   3.790   3.439  11.232  1.7005 -2.8262 -3.1221
  180SLPC  H14B20534   3.623   3.458  11.272  0.7717 -2.6982  1.2791
  180SLPC  H14C20535   3.675   3.334  11.159  0.2407 -0.3911  1.3280
  180SLPC   C1520536   3.754   3.665  11.114  0.0326  0.2784  0.0186
  180SLPC  H15A20537   3.860   3.650  11.133 -0.1079  0.4973  1.0027
  180SLPC  H15B20538   3.732   3.738  11.038 -1.6782 -3.3615 -3.1067
  180SLPC  H15C20539   3.717   3.690  11.212 -2.3110 -0.7970 -0.5550
  180SLPC   C1220540   3.733   3.470  10.952 -0.7784 -0.0583 -0.0629
  180SLPC  H12A20541   3.667   3.386  10.932 -1.2977  0.5006 -0.7451
  180SLPC  H12B20542   3.825   3.417  10.972  0.0193  0.1535 -2.9817
  180SLPC   C1120543   3.747   3.569  10.832 -0.5086  0.4262 -0.0198
  180SLPC  H11A20544   3.665   3.644  10.830 -0.3418  0.6340  0.8656
  180SLPC  H11B20545   3.754   3.503  10.743  1.3019  0.2481  0.2285
  180SLPC     P20546   4.009   3.582  10.804  0.0134  0.2781  0.1244
  180SLPC   O1320547   4.116   3.681  10.850  0.0839  0.0509 -0.1301
  180SLPC   O1420548   4.026   3.438  10.837  0.4210 -0.0762  0.1382
  180SLPC   O1220549   3.875   3.639  10.862  0.2937 -0.3152  0.1334
  180SLPC   O1120550   3.980   3.594  10.652 -0.0375  0.1329 -0.0094
  180SLPC    C120551   4.071   3.635  10.547  0.3856 -0.4376  0.0744
  180SLPC    HA20552   4.073   3.746  10.549  2.3159 -0.4718  1.2170
  180SLPC    HB20553   4.170   3.592  10.571 -0.5028 -4.6232 -3.1704
  180SLPC    C220554   4.031   3.579  10.407  0.1107 -0.2846 -0.0789
  180SLPC    HS20555   4.115   3.600  10.337  2.0805  2.1424  2.8866
  180SLPC   O2120556   3.907   3.631  10.356  0.7592  0.5187  0.0583
  180SLPC   C2120557   3.905   3.762  10.339  0.1803  0.1731  0.3238
  180SLPC   O2220558   4.000   3.839  10.337  0.7190 -0.0181  0.0837
  180SLPC   C2220559   3.762   3.809  10.321  0.2531  0.2745  0.1161
  180SLPC   H2R20560   3.702   3.747  10.391 -0.9319  0.3287 -0.8285
  180SLPC   H2S20561   3.761   3.914  10.357  1.6402  0.1363  0.5892
  180SLPC    C320562   4.038   3.426  10.415  0.1150  0.4437 -0.3647
  180SLPC    HX20563   3.945   3.402  10.470  1.6231  0.8268  2.4257
  180SLPC    HY20564   4.126   3.397  10.476 -1.0415 -0.5666  0.8620
  180SLPC   O3120565   4.039   3.356  10.288  0.0870  0.1120  0.1653
  180SLPC   C3120566   4.156   3.296  10.262 -0.0127 -0.6168  1.1691
  180SLPC   O3220567   4.264   3.318  10.312 -0.1588  0.0207 -0.0520
  180SLPC   C3220568   4.128   3.172  10.171  0.2483 -0.5452  0.1073
  180SLPC   H2X20569   4.025   3.185  10.130  0.2249  0.2959  0.4310
  180SLPC   H2Y20570   4.145   3.079  10.229  0.6151 -0.3585  0.2974
  180SLPC   C2320571   3.712   3.791  10.172  0.2456  0.0059  0.1248
  180SLPC   H3R20572   3.603   3.809  10.159  0.0742  0.1630  1.6663
  180SLPC   H3S20573   3.723   3.685  10.139 -0.1050 -0.3468  1.1309
  180SLPC   C2420574   3.805   3.883  10.094 -0.2571 -0.2182 -0.1265
  180SLPC   H4R20575   3.904   3.832  10.102  0.5626  1.5651  1.3748
  180SLPC   H4S20576   3.822   3.982  10.140 -0.2279 -0.7753  1.0877
  180SLPC   C2520577   3.759   3.898   9.948 -0.2655 -0.0843  0.9602
  180SLPC   H5R20578   3.688   3.984   9.950 -1.6224 -1.1866  0.7725
  180SLPC   H5S20579   3.709   3.809   9.904  0.3289  0.4771 -0.8684
  180SLPC   C2620580   3.879   3.919   9.861  0.0281  0.9278 -0.9466
  180SLPC   H6R20581   3.953   3.838   9.877 -0.4993  0.2724 -1.7695
  180SLPC   H6S20582   3.927   4.011   9.899  1.8469  0.1128 -1.1969
  180SLPC   C2720583   3.838   3.929   9.715 -0.7198 -0.2667 -0.0349
  180SLPC   H7R20584   3.757   4.004   9.701 -0.5480  0.4922  2.7143
  180SLPC   H7S20585   3.786   3.836   9.686 -0.3443 -0.2165 -0.8748
  180SLPC   C2820586   3.956   3.963   9.619  0.0460 -0.4625 -0.2333
  180SLPC   H8R20587   4.036   3.886   9.626  0.7345  0.3017  0.3400
  180SLPC   H8S20588   3.993   4.063   9.649  2.4678 -0.5259 -2.7908
  180SLPC   C2920589   3.921   3.962   9.472  0.1415 -0.4300 -0.2229
  180SLPC   H9R20590   3.885   3.863   9.441 -0.7452 -1.0031  2.4972
  180SLPC  C21020591   3.914   4.063   9.385  0.3880  0.5442 -0.2937
  180SLPC  H10R20592   3.879   4.043   9.283  1.2365 -0.1376 -0.4561
  180SLPC  C21120593   3.947   4.206   9.421  0.0141  0.2717  0.4518
  180SLPC  H11R20594   3.947   4.231   9.529 -2.6442  0.7561  0.3797
  180SLPC  H11S20595   3.862   4.269   9.389  0.5425  1.2958  1.0382
  180SLPC  C21220596   4.079   4.244   9.365  0.0871 -0.6011 -0.3849
  180SLPC  H12R20597   4.167   4.206   9.419  1.1243  0.2327 -1.4451
  180SLPC  C21320598   4.097   4.310   9.242 -0.1698  0.3294  0.4912
  180SLPC  H13R20599   4.197   4.333   9.201  0.3358  0.2169  1.6178
  180SLPC  C21420600   3.984   4.368   9.166  0.4277  0.2781 -0.1491
  180SLPC  H14R20601   3.904   4.418   9.225 -0.2030  0.7382 -1.3932
  180SLPC  H14S20602   3.945   4.282   9.109 -2.2791  0.0553  1.9086
  180SLPC  C21520603   4.033   4.482   9.063 -0.0035 -0.2465 -0.2197
  180SLPC  H15R20604   3.943   4.492   8.999 -0.6531  2.2610  1.0245
  180SLPC  H15S20605   4.116   4.451   8.995  1.9235  1.0083  1.4913
  180SLPC  C21620606   4.076   4.618   9.124  0.4369  0.0222 -1.0364
  180SLPC  H16R20607   4.174   4.605   9.174  0.8030 -2.8452 -2.4173
  180SLPC  H16S20608   4.020   4.642   9.217 -1.6410  0.7454 -2.4434
  180SLPC  C21720609   4.101   4.735   9.024 -0.2517  0.0791 -0.0724
  180SLPC  H17R20610   4.164   4.681   8.950 -1.2126 -1.8421  0.4768
  180SLPC  H17S20611   4.170   4.810   9.068 -0.3730  0.1254  0.0374
  180SLPC  C21820612   3.981   4.799   8.954 -0.3658  0.2265 -0.6440
  180SLPC  H18R20613   3.999   4.847   8.855 -2.6906 -0.0454 -1.2311
  180SLPC  H18S20614   3.926   4.870   9.019 -0.4587 -0.9242  0.5497
  180SLPC  H18T20615   3.912   4.717   8.924 -1.6056  0.1130  2.4022
  180SLPC   C3320616   4.216   3.167  10.043  0.0106 -0.1643  0.3897
  180SLPC   H3X20617   4.323   3.174  10.072  0.5212 -2.6400 -0.7055
  180SLPC   H3Y20618   4.190   3.254   9.979 -0.7913  0.4326  1.5144
  180SLPC   C3420619   4.208   3.032   9.971 -0.0799  0.1615  0.3382
  180SLPC   H4X20620   4.100   3.020   9.946  0.2484 -1.8453 -0.2380
  180SLPC   H4Y20621   4.240   2.946  10.035  1.9064  1.2453  0.8486
  180SLPC   C3520622   4.294   3.033   9.849  0.0869 -0.5508 -0.8709
  180SLPC   H5X20623   4.296   2.927   9.818  2.0980 -1.3687  1.8723
  180SLPC   H5Y20624   4.403   3.048   9.865 -0.6303  4.5335  0.2172
  180SLPC   C3620625   4.232   3.110   9.726 -0.6859  0.0421 -0.2428
  180SLPC   H6X20626   4.245   3.216   9.756  1.1447  0.2502 -1.6838
  180SLPC   H6Y20627   4.127   3.076   9.733 -0.8786  0.9916  1.7733
  180SLPC   C3720628   4.303   3.077   9.601 -0.2023  0.2716  0.6267
  180SLPC   H7X20629   4.309   2.966   9.599 -0.0235  0.1268  4.7950
  180SLPC   H7Y20630   4.406   3.118   9.587  0.1015 -0.4687  0.6631
  180SLPC   C3820631   4.224   3.114   9.476 -0.4000 -0.0493  0.0381
  180SLPC   H8X20632   4.213   3.224   9.471  2.3856  0.2372 -0.6157
  180SLPC   H8Y20633   4.125   3.065   9.489  1.6305 -4.9481 -1.8421
  180SLPC   C3920634   4.278   3.055   9.341  0.1493 -0.0950  0.2431
  180SLPC   H9X20635   4.280   2.944   9.348  0.4517 -0.0666  0.6396
  180SLPC   H9Y20636   4.384   3.087   9.326 -1.0090  1.9184 -4.6961
  180SLPC  C31020637   4.198   3.098   9.213 -0.4424  0.1401  0.1712
  180SLPC  H10X20638   4.194   3.209   9.200  0.5031  0.3392  1.4787
  180SLPC  H10Y20639   4.094   3.067   9.238 -0.8318 -0.0059 -1.6052
  180SLPC  C31120640   4.244   3.029   9.090  0.1533 -0.0207 -0.0430
  180SLPC  H11X20641   4.217   2.922   9.102  1.6358 -0.2782  1.2408
  180SLPC  H11Y20642   4.355   3.031   9.087  0.1409  0.9352  0.0337
  180SLPC  C31220643   4.185   3.092   8.965 -0.0609 -0.6465 -0.1352
  180SLPC  H12X20644   4.201   3.202   8.970 -2.1873 -0.3317  0.5624
  180SLPC  H12Y20645   4.075   3.077   8.953 -0.3545  0.1411  1.3941
  180SLPC  C31320646   4.227   3.039   8.831 -0.2453  0.0884 -0.5359
  180SLPC  H13X20647   4.338   3.040   8.827 -0.2504 -0.4334 -0.8537
  180SLPC  H13Y20648   4.188   3.117   8.761 -0.3445 -0.0700 -0.6567
  180SLPC  C31420649   4.166   2.901   8.800  0.6027  0.7409  0.6374
  180SLPC  H14X20650   4.055   2.894   8.800  0.7107 -1.5131 -0.9775
  180SLPC  H14Y20651   4.198   2.849   8.893  0.6468  1.6951  1.1609
  180SLPC  C31520652   4.216   2.837   8.671 -0.6478 -0.2923 -0.3828
  180SLPC  H15X20653   4.187   2.900   8.584 -0.8134 -1.1335 -0.9372
  180SLPC  H15Y20654   4.160   2.741   8.664 -2.0637  0.2879  2.1971
  180SLPC  C31620655   4.366   2.826   8.672  0.5180 -0.0866 -0.2821
  180SLPC  H16X20656   4.407   2.809   8.773 -2.2336  0.6989  1.0104
  180SLPC  H16Y20657   4.406   2.926   8.643  0.4373 -0.3260 -1.2323
  180SLPC  C31720658   4.435   2.731   8.572 -0.4090  0.4252 -0.0873
  180SLPC  H17X20659   4.410   2.762   8.469  0.5460  0.3161 -0.3541
  180SLPC  H17Y20660   4.393   2.630   8.592 -1.1454  0.2414 -2.4117
  180SLPC  C31820661   4.583   2.725   8.582 -0.1701 -0.3955 -0.0670
  180SLPC  H18X20662   4.607   2.686   8.684 -0.8860 -3.4984 -1.0423
  180SLPC  H18Y20663   4.627   2.826   8.567 -1.6154  1.0281  4.5321
  180SLPC  H18Z20664   4.621   2.644   8.516 -0.6478 -0.2171 -0.5567
  181SLPC     N20665   6.459   1.497  11.521  0.3274  0.5601 -0.2961
  181SLPC   C1320666   6.359   1.478  11.635 -0.4133  0.4790  0.0512
  181SLPC  H13A20667   6.298   1.389  11.623 -0.5546  0.3800  1.4455
  181SLPC  H13B20668   6.415   1.464  11.726  1.0372 -1.2629 -1.0916
  181SLPC  H13C20669   6.300   1.569  11.630  3.3172  2.9543 -0.2766
  181SLPC   C1420670   6.575   1.400  11.530 -0.3709  0.1639  0.2158
  181SLPC  H14A20671   6.546   1.296  11.524 -0.1048  0.1335 -0.6042
  181SLPC  H14B20672   6.649   1.413  11.453 -0.6473 -1.0059 -0.2727
  181SLPC  H14C20673   6.627   1.407  11.624  1.3127 -1.5305 -0.5569
  181SLPC   C1520674   6.516   1.632  11.524 -0.0856  0.0909 -0.6612
  181SLPC  H15A20675   6.440   1.707  11.511  0.4283  0.7686  0.1805
  181SLPC  H15B20676   6.560   1.650  11.621  0.3220 -0.9108 -0.6586
  181SLPC  H15C20677   6.600   1.636  11.455 -0.1401  0.8047 -0.6930
  181SLPC   C1220678   6.392   1.474  11.384  0.0486 -0.5998 -0.5498
  181SLPC  H12A20679   6.323   1.557  11.376 -0.2710 -0.9151 -1.1202
  181SLPC  H12B20680   6.331   1.385  11.377 -0.4750 -0.1647 -1.6831
  181SLPC   C1120681   6.481   1.481  11.257  1.2048 -0.2476  0.3854
  181SLPC  H11A20682   6.575   1.423  11.250  0.3546 -1.5609 -0.3632
  181SLPC  H11B20683   6.510   1.587  11.239  0.7364 -0.3992 -1.3685
  181SLPC     P20684   6.290   1.511  11.084  0.1475  0.1179  0.2188
  181SLPC   O1320685   6.163   1.431  11.082  0.5271 -0.7290  0.3043
  181SLPC   O1420686   6.277   1.649  11.142  0.3569  0.2708  0.0358
  181SLPC   O1220687   6.399   1.430  11.159  0.0828  0.5684 -0.1116
  181SLPC   O1120688   6.344   1.527  10.941 -0.0857  0.8508 -0.9247
  181SLPC    C120689   6.488   1.539  10.916 -0.1183 -0.5485 -0.4428
  181SLPC    HA20690   6.538   1.568  11.011  1.2884 -0.9467 -1.0553
  181SLPC    HB20691   6.528   1.443  10.876 -1.3538 -1.3796  0.2794
  181SLPC    C220692   6.519   1.643  10.804  0.3425 -0.1483 -0.3592
  181SLPC    HS20693   6.513   1.748  10.841 -2.2823 -0.3857 -0.0099
  181SLPC   O2120694   6.420   1.627  10.698  0.5947 -0.7461 -0.0128
  181SLPC   C2120695   6.393   1.723  10.616  0.5218 -0.6108  0.6785
  181SLPC   O2220696   6.435   1.838  10.623 -0.0457  0.2449 -0.5126
  181SLPC   C2220697   6.299   1.683  10.506  0.2884  0.6925 -0.1825
  181SLPC   H2R20698   6.214   1.626  10.549  2.7854 -1.8802  1.5860
  181SLPC   H2S20699   6.256   1.777  10.464 -0.1233 -0.0334 -1.3991
  181SLPC    C320700   6.655   1.632  10.742 -0.5678  0.3653 -0.6705
  181SLPC    HX20701   6.721   1.671  10.823 -0.1261 -2.3209  0.3268
  181SLPC    HY20702   6.655   1.695  10.651  0.8127  0.2259 -0.7875
  181SLPC   O3120703   6.688   1.499  10.697 -0.4568  0.1082  0.3974
  181SLPC   C3120704   6.806   1.489  10.648  0.1732 -0.5988 -0.1910
  181SLPC   O3220705   6.894   1.576  10.647  0.8697  0.0036 -0.4890
  181SLPC   C3220706   6.824   1.348  10.583 -0.9630 -0.2352  0.2052
  181SLPC   H2X20707   6.734   1.311  10.528 -1.2692 -0.2958  0.7433
  181SLPC   H2Y20708   6.838   1.285  10.673 -0.0446  0.4061  0.5080
  181SLPC   C2320709   6.357   1.588  10.405 -0.1785  0.1411 -1.0767
  181SLPC   H3R20710   6.392   1.496  10.458  0.3927  1.1901  0.3716
  181SLPC   H3S20711   6.435   1.649  10.354  1.4924 -1.8533 -1.0146
  181SLPC   C2420712   6.258   1.537  10.301 -0.0119 -1.0893  0.2199
  181SLPC   H4R20713   6.179   1.614  10.284  1.0762 -0.2886 -1.3874
  181SLPC   H4S20714   6.217   1.446  10.348 -0.6260  0.7658  3.4146
  181SLPC   C2520715   6.335   1.493  10.179 -0.0856  0.4019  0.3408
  181SLPC   H5R20716   6.415   1.423  10.213 -0.9827  0.1309  1.9741
  181SLPC   H5S20717   6.383   1.585  10.140 -0.2892  0.3597 -0.0076
  181SLPC   C2620718   6.245   1.433  10.071 -0.0600  0.0739  0.1921
  181SLPC   H6R20719   6.165   1.510  10.058  0.2000  0.3203  0.0542
  181SLPC   H6S20720   6.201   1.334  10.094  0.3367 -0.2249 -0.3338
  181SLPC   C2720721   6.328   1.419   9.946  0.0338 -0.7281 -0.3557
  181SLPC   H7R20722   6.420   1.359   9.963  0.5837  0.8928  2.9210
  181SLPC   H7S20723   6.372   1.512   9.905 -0.8208 -0.7087 -1.2356
  181SLPC   C2820724   6.239   1.364   9.831  0.8287 -0.2346 -0.4546
  181SLPC   H8R20725   6.152   1.433   9.835 -0.4564 -1.9882  3.6042
  181SLPC   H8S20726   6.207   1.260   9.850  1.5842 -0.4798 -0.4778
  181SLPC   C2920727   6.298   1.364   9.690  0.1025  0.0018  0.5559
  181SLPC   H9R20728   6.406   1.345   9.687  0.1549  0.5216 -2.3147
  181SLPC  C21020729   6.228   1.383   9.581  0.4590  0.9146  0.2869
  181SLPC  H10R20730   6.278   1.384   9.483  0.3981  0.1437  0.2451
  181SLPC  C21120731   6.084   1.412   9.580  0.0964 -0.3323 -0.0928
  181SLPC  H11R20732   6.038   1.408   9.682 -1.4771  3.1040 -0.5782
  181SLPC  H11S20733   6.035   1.348   9.504 -2.5675 -0.3883  1.5839
  181SLPC  C21220734   6.066   1.556   9.537 -0.2406  0.0087  0.0551
  181SLPC  H12R20735   6.081   1.629   9.618  2.7372 -0.1052 -0.3507
  181SLPC  C21320736   6.034   1.604   9.412  0.2898 -0.4904  1.1959
  181SLPC  H13R20737   6.014   1.710   9.393  0.7864 -0.4778  0.7603
  181SLPC  C21420738   6.009   1.501   9.298  0.0960 -0.2528 -0.8457
  181SLPC  H14R20739   5.918   1.537   9.246 -0.3584 -1.7529 -1.0924
  181SLPC  H14S20740   5.974   1.401   9.331 -0.0778 -0.4674 -1.6578
  181SLPC  C21520741   6.112   1.500   9.182 -0.4946 -0.5012 -0.5523
  181SLPC  H15R20742   6.214   1.484   9.222 -0.2289 -0.6410 -1.2783
  181SLPC  H15S20743   6.105   1.605   9.145 -1.0667 -0.2508  0.2710
  181SLPC  C21620744   6.078   1.397   9.070 -0.1669  0.0856  0.7732
  181SLPC  H16R20745   5.977   1.424   9.034 -1.2391 -1.8689  2.2352
  181SLPC  H16S20746   6.059   1.302   9.123  2.2927 -1.0433 -0.2764
  181SLPC  C21720747   6.176   1.390   8.951  0.2022  0.0991  0.6431
  181SLPC  H17R20748   6.280   1.403   8.988  0.5678 -0.8774 -0.0213
  181SLPC  H17S20749   6.158   1.472   8.878  0.2269 -1.4172 -1.0970
  181SLPC  C21820750   6.152   1.261   8.871 -0.0529  0.8919  0.1243
  181SLPC  H18R20751   6.182   1.173   8.933  0.6931 -0.4998 -2.1516
  181SLPC  H18S20752   6.213   1.238   8.782  0.1420 -1.9779  0.9310
  181SLPC  H18T20753   6.044   1.261   8.846 -0.3032 -1.8377  0.9714
  181SLPC   C3320754   6.951   1.332  10.499 -0.3526  0.7178  0.6097
  181SLPC   H3X20755   6.957   1.224  10.477  0.2745  0.5706  1.4954
  181SLPC   H3Y20756   7.036   1.364  10.564 -0.8726  0.7370  1.2902
  181SLPC   C3420757   6.940   1.405  10.362 -0.0919 -0.3707  0.6511
  181SLPC   H4X20758   6.927   1.516  10.365  1.0740 -0.1695 -1.0900
  181SLPC   H4Y20759   6.847   1.361  10.320  0.9287 -0.9160 -1.0563
  181SLPC   C3520760   7.051   1.399  10.250 -0.0220 -0.3835  0.0083
  181SLPC   H5X20761   7.153   1.419  10.290 -0.0606  3.1395 -1.5053
  181SLPC   H5Y20762   7.025   1.466  10.166 -1.8254  1.1071  1.6969
  181SLPC   C3620763   7.069   1.259  10.184  0.8403  0.0351  0.4877
  181SLPC   H6X20764   6.972   1.208  10.169  1.0041  0.3866 -1.9927
  181SLPC   H6Y20765   7.105   1.195  10.268 -2.7128  0.6755  2.5957
  181SLPC   C3720766   7.164   1.258  10.065 -0.4660  0.0203  0.1226
  181SLPC   H7X20767   7.182   1.151  10.044  0.9733  0.6188 -1.8079
  181SLPC   H7Y20768   7.267   1.293  10.086 -0.3739  0.2898 -0.7787
  181SLPC   C3820769   7.112   1.327   9.939  0.8935 -0.8627  0.4727
  181SLPC   H8X20770   7.106   1.433   9.972 -3.0905 -0.9195  0.1556
  181SLPC   H8Y20771   7.009   1.306   9.903  0.2316 -0.0084  1.8233
  181SLPC   C3920772   7.199   1.304   9.817 -0.2046 -0.3350 -0.4814
  181SLPC   H9X20773   7.219   1.196   9.801  0.9413 -0.1989 -0.0122
  181SLPC   H9Y20774   7.298   1.350   9.839  0.2615 -1.9412  0.9020
  181SLPC  C31020775   7.133   1.359   9.693 -0.3218  0.1956  0.0178
  181SLPC  H10X20776   7.121   1.469   9.706 -1.0229 -0.2060  3.4513
  181SLPC  H10Y20777   7.040   1.302   9.677 -1.4985  2.3579 -0.9432
  181SLPC  C31120778   7.211   1.347   9.562  0.1021  0.9053  0.0839
  181SLPC  H11X20779   7.269   1.254   9.545  0.0401  0.4404  2.2219
  181SLPC  H11Y20780   7.290   1.425   9.553 -1.3396  2.2970 -0.7418
  181SLPC  C31220781   7.119   1.354   9.437  0.0505  0.4531 -0.0650
  181SLPC  H12X20782   7.066   1.451   9.448  1.5556  1.6765 -3.0182
  181SLPC  H12Y20783   7.049   1.271   9.415  0.6687 -0.4955  1.4837
  181SLPC  C31320784   7.202   1.357   9.313  0.0716 -0.5316 -0.3302
  181SLPC  H13X20785   7.260   1.262   9.312  1.0580  0.0582  0.2566
  181SLPC  H13Y20786   7.273   1.442   9.318  0.5704 -0.8592 -1.7450
  181SLPC  C31420787   7.108   1.374   9.188 -0.4692 -0.2875  0.3347
  181SLPC  H14X20788   7.051   1.469   9.200 -0.3934 -0.3877  1.5129
  181SLPC  H14Y20789   7.032   1.294   9.201  1.8405 -2.7225 -0.7722
  181SLPC  C31520790   7.179   1.360   9.047 -0.2899  0.1121 -0.6348
  181SLPC  H15X20791   7.234   1.267   9.073  2.3048  2.3069  2.1520
  181SLPC  H15Y20792   7.259   1.435   9.028  1.0399 -0.7141  1.5433
  181SLPC  C31620793   7.078   1.333   8.935 -0.0633 -0.7931  0.2849
  181SLPC  H16X20794   7.023   1.429   8.934  1.0739 -0.1285  0.5912
  181SLPC  H16Y20795   7.010   1.250   8.963 -2.1781  0.9621  0.4957
  181SLPC  C31720796   7.136   1.304   8.796  0.2336 -0.3292 -0.4866
  181SLPC  H17X20797   7.193   1.209   8.799 -0.3168 -0.8548 -3.8685
  181SLPC  H17Y20798   7.209   1.382   8.767  0.2716  0.1928  0.9902
  181SLPC  C31820799   7.018   1.286   8.694 -0.2340  0.1321  0.1469
  181SLPC  H18X20800   6.962   1.192   8.711  2.1025 -1.3104  0.0506
  181SLPC  H18Y20801   7.063   1.283   8.592 -1.2831 -3.4335 -0.2891
  181SLPC  H18Z20802   6.936   1.362   8.700 -1.7452 -1.5553  1.3534
  182SLPC     N20803   5.075   1.819  11.146 -0.5853 -0.0780 -0.0362
  182SLPC   C1320804   5.197   1.900  11.098  0.8685  0.1006  0.4931
  182SLPC  H13A20805   5.222   1.874  10.996  2.9506  1.1498  0.7022
  182SLPC  H13B20806   5.179   2.006  11.091  1.8062  0.4498  2.7539
  182SLPC  H13C20807   5.284   1.877  11.158 -0.0355  0.6830  2.0799
  182SLPC   C1420808   5.030   1.895  11.264  0.0616  0.6592 -0.0711
  182SLPC  H14A20809   4.937   1.864  11.309  0.1861 -1.3460 -1.1386
  182SLPC  H14B20810   5.105   1.897  11.342  1.7384  3.0783 -1.6972
  182SLPC  H14C20811   5.020   1.999  11.240 -2.4312  0.4416 -0.1309
  182SLPC   C1520812   5.115   1.682  11.174  0.4064  1.4863 -0.3614
  182SLPC  H15A20813   5.133   1.625  11.084  0.3066  1.0833 -0.1286
  182SLPC  H15B20814   5.200   1.671  11.241  1.1984 -1.1282 -1.7263
  182SLPC  H15C20815   5.027   1.637  11.218 -0.4303 -1.0947 -4.4222
  182SLPC   C1220816   4.967   1.826  11.037 -0.0419 -0.1177  0.5543
  182SLPC  H12A20817   4.950   1.926  11.000 -1.1716  0.2325  1.9929
  182SLPC  H12B20818   4.873   1.802  11.085 -0.0596 -0.8538  0.1693
  182SLPC   C1120819   4.977   1.731  10.916 -0.0620  0.1873  0.7144
  182SLPC  H11A20820   4.900   1.760  10.842 -1.1709 -0.0129  1.7822
  182SLPC  H11B20821   4.954   1.632  10.959  1.8512 -0.9857 -0.9014
  182SLPC     P20822   5.143   1.613  10.755  0.5698  0.1311  0.3814
  182SLPC   O1320823   5.239   1.521  10.824  0.4850  0.0609 -0.0609
  182SLPC   O1420824   5.015   1.551  10.696 -0.2528  0.4835 -0.6952
  182SLPC   O1220825   5.107   1.729  10.858 -0.3096 -0.4019 -0.1200
  182SLPC   O1120826   5.208   1.687  10.631 -0.3226  0.0324 -0.0985
  182SLPC    C120827   5.268   1.818  10.652  0.2874 -0.0521 -0.5605
  182SLPC    HA20828   5.306   1.844  10.753 -0.6659 -1.9873  0.3225
  182SLPC    HB20829   5.350   1.826  10.578  0.1786 -2.1048 -0.9300
  182SLPC    C220830   5.167   1.936  10.619  0.3804  0.2968 -0.3104
  182SLPC    HS20831   5.080   1.924  10.686  0.7761 -0.3134  0.0994
  182SLPC   O2120832   5.125   1.929  10.484 -0.1320  0.1959  0.0002
  182SLPC   C2120833   5.010   1.983  10.452 -0.0672 -0.7009  0.4570
  182SLPC   O2220834   4.934   2.042  10.528 -0.4648 -0.2879 -0.1860
  182SLPC   C2220835   4.979   1.968  10.294 -0.6716 -0.4202  0.7654
  182SLPC   H2R20836   4.939   1.868  10.266 -0.5584 -0.8705  2.1555
  182SLPC   H2S20837   4.890   2.034  10.284  0.9403  1.5442 -0.9767
  182SLPC    C320838   5.214   2.075  10.644  0.1839 -0.0850  0.5378
  182SLPC    HX20839   5.235   2.088  10.752  0.3216  1.1642  0.3743
  182SLPC    HY20840   5.138   2.148  10.608  0.9727 -0.2443 -1.5321
  182SLPC   O3120841   5.336   2.095  10.563 -0.7518 -0.4005 -0.1772
  182SLPC   C3120842   5.434   2.168  10.606  0.8774 -0.1064  0.2643
  182SLPC   O3220843   5.436   2.229  10.709  0.7450  0.0577 -0.2339
  182SLPC   C3220844   5.554   2.188  10.506  0.8282 -0.5074 -0.6245
  182SLPC   H2X20845   5.635   2.156  10.575  1.0288  1.0526 -0.1201
  182SLPC   H2Y20846   5.552   2.298  10.490  1.0594 -0.8417 -3.1273
  182SLPC   C2320847   5.090   2.008  10.206 -0.3553 -0.7317  0.1468
  182SLPC   H3R20848   5.171   1.932  10.212  0.0004 -0.3252  0.5589
  182SLPC   H3S20849   5.145   2.099  10.240  2.5670 -2.4549  0.1951
  182SLPC   C2420850   5.055   2.026  10.056  0.2051  0.4793  0.4205
  182SLPC   H4R20851   4.993   2.118  10.056  1.4753  1.3917 -2.3642
  182SLPC   H4S20852   5.006   1.945   9.998  0.3685 -1.1054  2.4227
  182SLPC   C2520853   5.174   2.085   9.982  0.3997  0.0827  0.2151
  182SLPC   H5R20854   5.254   2.012   9.959 -1.2545 -1.0507 -2.1838
  182SLPC   H5S20855   5.205   2.179  10.033 -0.6613  0.3139  0.4490
  182SLPC   C2620856   5.126   2.141   9.849  0.4299  1.7320 -0.4429
  182SLPC   H6R20857   5.060   2.230   9.859 -1.4410  0.4759 -1.3270
  182SLPC   H6S20858   5.060   2.067   9.799 -2.1393  2.3760  1.8205
  182SLPC   C2720859   5.246   2.182   9.758 -0.1319  0.0207 -0.1644
  182SLPC   H7R20860   5.286   2.095   9.702 -0.0331  0.2770 -0.4900
  182SLPC   H7S20861   5.325   2.225   9.824  1.5062 -2.3422 -0.5250
  182SLPC   C2820862   5.207   2.285   9.652 -0.2898 -0.5436 -0.2340
  182SLPC   H8R20863   5.180   2.375   9.711 -1.3505 -0.1044 -1.3713
  182SLPC   H8S20864   5.111   2.260   9.602  0.5706  0.2125 -2.3018
  182SLPC   C2920865   5.315   2.336   9.562 -0.0985 -0.1599  0.4183
  182SLPC   H9R20866   5.394   2.393   9.615  0.0496  0.9000 -0.9073
  182SLPC  C21020867   5.331   2.307   9.430  0.2233 -0.3675 -0.5788
  182SLPC  H10R20868   5.415   2.343   9.369  0.0760 -0.9412 -1.1241
  182SLPC  C21120869   5.238   2.218   9.352 -0.4802 -0.4126  0.0831
  182SLPC  H11R20870   5.232   2.251   9.246  1.4381  0.7720  0.3210
  182SLPC  H11S20871   5.132   2.223   9.385 -0.2333 -1.3558  1.0697
  182SLPC  C21220872   5.288   2.072   9.359  0.5553  0.3779 -0.7520
  182SLPC  H12R20873   5.301   2.040   9.464 -0.2117  2.1150 -0.1050
  182SLPC  C21320874   5.334   1.988   9.266  0.4376 -0.2072  0.0375
  182SLPC  H13R20875   5.372   1.889   9.293  2.0608  0.0449 -1.1666
  182SLPC  C21420876   5.345   2.013   9.116 -0.2874  0.7201 -0.4269
  182SLPC  H14R20877   5.254   2.069   9.086 -1.6563  0.0849  2.3837
  182SLPC  H14S20878   5.356   1.915   9.065  2.0255 -0.0554  1.4458
  182SLPC  C21520879   5.457   2.099   9.056  0.0786  0.0525  0.0842
  182SLPC  H15R20880   5.555   2.048   9.068  0.9990  1.9178  0.7219
  182SLPC  H15S20881   5.452   2.201   9.099 -1.0428 -0.2577  0.7079
  182SLPC  C21620882   5.433   2.123   8.906  0.5464  0.0890 -0.3262
  182SLPC  H16R20883   5.498   2.204   8.869 -1.1270  1.7784  0.3222
  182SLPC  H16S20884   5.333   2.171   8.894  0.7920  0.7716  0.3265
  182SLPC  C21720885   5.443   1.994   8.818  0.2237 -0.1158 -0.1145
  182SLPC  H17R20886   5.400   2.026   8.720  0.4412 -1.1698 -0.5558
  182SLPC  H17S20887   5.383   1.908   8.852  0.3089  0.4356  1.4516
  182SLPC  C21820888   5.579   1.956   8.770 -0.3323 -0.3798 -0.4600
  182SLPC  H18R20889   5.578   1.859   8.715  0.4034 -0.9343  0.4844
  182SLPC  H18S20890   5.652   1.953   8.854 -0.5635 -1.8300 -0.2990
  182SLPC  H18T20891   5.609   2.039   8.703  0.3698  1.0362  1.5737
  182SLPC   C3320892   5.543   2.097  10.383  0.5936 -0.2815  0.1177
  182SLPC   H3X20893   5.456   2.122  10.319 -0.0077 -1.8046  0.3053
  182SLPC   H3Y20894   5.525   1.992  10.417  0.3966 -0.2916 -0.0195
  182SLPC   C3420895   5.671   2.113  10.294  0.2909 -0.4104  0.5403
  182SLPC   H4X20896   5.767   2.090  10.346  0.5939  2.5517  1.3550
  182SLPC   H4Y20897   5.672   2.221  10.268  0.5089 -0.2411  1.2428
  182SLPC   C3520898   5.659   2.035  10.159  0.7657  0.3888 -0.2261
  182SLPC   H5X20899   5.571   2.071  10.101  2.0567  0.6899 -2.0501
  182SLPC   H5Y20900   5.640   1.927  10.176 -2.0174  0.5677 -1.9263
  182SLPC   C3620901   5.791   2.048  10.083  0.3259 -0.6242 -0.0188
  182SLPC   H6X20902   5.875   2.040  10.155  0.6165 -1.5594 -0.4513
  182SLPC   H6Y20903   5.791   2.158  10.064 -2.4009 -0.4455  0.8091
  182SLPC   C3720904   5.802   1.971   9.953  0.9041 -0.1036 -0.0613
  182SLPC   H7X20905   5.710   1.993   9.894  0.3793 -1.6533  0.1730
  182SLPC   H7Y20906   5.813   1.863   9.975  2.0648 -0.0218 -0.1909
  182SLPC   C3820907   5.913   2.021   9.859 -0.1382  0.6410 -0.2037
  182SLPC   H8X20908   6.016   2.015   9.899 -0.2062  0.9498  0.0234
  182SLPC   H8Y20909   5.892   2.130   9.863  1.9297  1.0338  0.3417
  182SLPC   C3920910   5.907   1.971   9.716  0.1493 -0.9045  0.4811
  182SLPC   H9X20911   5.814   1.995   9.660  1.8112  0.8426 -1.6548
  182SLPC   H9Y20912   5.936   1.864   9.710  3.1413 -0.0057 -3.3362
  182SLPC  C31020913   6.006   2.048   9.633  0.2382  0.5306 -0.0758
  182SLPC  H10X20914   6.108   2.023   9.669  0.2021  0.7560  0.1834
  182SLPC  H10Y20915   5.993   2.158   9.646  2.3376  0.6780  1.0618
  182SLPC  C31120916   6.004   2.010   9.488 -0.4617 -0.3012 -0.4015
  182SLPC  H11X20917   5.934   2.080   9.438 -1.5548  0.9012  2.6592
  182SLPC  H11Y20918   5.966   1.907   9.470 -0.6562 -0.4960  1.0350
  182SLPC  C31220919   6.144   2.040   9.429  0.0847  0.2618  0.6425
  182SLPC  H12X20920   6.214   1.967   9.476  0.6985  0.5174  0.1399
  182SLPC  H12Y20921   6.168   2.146   9.453  0.4348  0.1723  0.6990
  182SLPC  C31320922   6.144   2.030   9.278 -0.3080 -0.3447 -0.1317
  182SLPC  H13X20923   6.239   2.057   9.227 -0.3359 -0.1709 -0.0885
  182SLPC  H13Y20924   6.078   2.111   9.241 -0.6810 -0.3115  0.6091
  182SLPC  C31420925   6.089   1.901   9.220 -0.1060  0.2848  0.2126
  182SLPC  H14X20926   5.989   1.871   9.260 -0.0070  1.9650  1.7753
  182SLPC  H14Y20927   6.162   1.818   9.232 -0.3045  0.1174  0.2797
  182SLPC  C31520928   6.062   1.938   9.072 -0.3375  0.1364 -0.0482
  182SLPC  H15X20929   6.159   1.948   9.018 -1.4049  0.2647 -1.9818
  182SLPC  H15Y20930   6.013   2.037   9.063  0.7559  0.4974 -2.3938
  182SLPC  C31620931   5.973   1.838   8.992 -0.2543 -0.1865  0.3051
  182SLPC  H16X20932   5.872   1.827   9.038 -0.5059 -2.1453 -0.6467
  182SLPC  H16Y20933   6.011   1.737   9.020 -1.9111 -1.3699 -1.5006
  182SLPC  C31720934   5.968   1.850   8.840 -0.1367  0.0590 -0.2246
  182SLPC  H17X20935   6.072   1.876   8.808  0.4343 -1.4070  0.4130
  182SLPC  H17Y20936   5.912   1.943   8.818  0.9509  0.4169 -1.5530
  182SLPC  C31820937   5.915   1.732   8.755 -0.1806 -0.7884 -0.8818
  182SLPC  H18X20938   5.923   1.766   8.650 -2.6660 -2.2886 -1.6055
  182SLPC  H18Y20939   5.808   1.736   8.787  0.1754 -0.1935  0.2556
  182SLPC  H18Z20940   5.960   1.633   8.781  0.6341  0.1804  1.5777
  183SLPC     N20941   6.731   3.038  10.792 -0.3877 -0.0365 -0.0248
  183SLPC   C1320942   6.654   3.042  10.659 -0.3089  0.2456 -0.3965
  183SLPC  H13A20943   6.570   2.979  10.634 -0.6446 -0.5521  2.5947
  183SLPC  H13B20944   6.624   3.146  10.653 -1.6751 -0.1810 -1.0870
  183SLPC  H13C20945   6.732   3.026  10.586  0.9223  0.3487  0.8772
  183SLPC   C1420946   6.650   3.103  10.894  0.7136 -0.3245 -0.3179
  183SLPC  H14A20947   6.569   3.042  10.931  0.3746 -1.1939 -2.3827
  183SLPC  H14B20948   6.705   3.132  10.982  1.3073  0.0285 -0.8026
  183SLPC  H14C20949   6.619   3.199  10.855  0.4607  0.0435  0.7693
  183SLPC   C1520950   6.851   3.122  10.783  0.0907  0.5603 -0.0733
  183SLPC  H15A20951   6.827   3.222  10.751 -1.4344 -0.0557 -0.8922
  183SLPC  H15B20952   6.888   3.134  10.884 -3.0292  0.7847  1.0777
  183SLPC  H15C20953   6.924   3.076  10.717  0.3162 -2.6229  2.2246
  183SLPC   C1220954   6.770   2.895  10.828  0.1440 -0.4463 -0.1357
  183SLPC  H12A20955   6.679   2.838  10.839 -0.5111  0.4795 -0.6587
  183SLPC  H12B20956   6.834   2.892  10.915  1.7780  0.3336 -1.2751
  183SLPC   C1120957   6.839   2.816  10.713  0.4809 -0.1005  0.1077
  183SLPC  H11A20958   6.773   2.809  10.624  1.7553  0.5331 -0.9023
  183SLPC  H11B20959   6.849   2.710  10.747  0.3767 -0.2774 -0.4061
  183SLPC     P20960   7.090   2.840  10.770  0.1683 -0.2351  0.0749
  183SLPC   O1320961   7.152   2.973  10.809 -0.1054  0.3167  0.1561
  183SLPC   O1420962   7.049   2.745  10.877 -0.2683  0.1762  0.6065
  183SLPC   O1220963   6.967   2.874  10.675  0.7095  0.2934 -0.3353
  183SLPC   O1120964   7.188   2.757  10.675 -0.3261 -0.1353  0.1913
  183SLPC    C120965   7.270   2.825  10.572  0.3906  0.6167  0.2470
  183SLPC    HA20966   7.318   2.914  10.617  1.2096 -0.5098  1.6529
  183SLPC    HB20967   7.353   2.759  10.538 -1.1291 -1.3135  0.2118
  183SLPC    C220968   7.187   2.854  10.446  0.0565  0.0725 -0.0857
  183SLPC    HS20969   7.083   2.882  10.475  0.2512 -0.3006  0.9826
  183SLPC   O2120970   7.203   2.746  10.355 -0.3077 -0.1946  0.2390
  183SLPC   C2120971   7.089   2.688  10.310  0.6820 -0.1823  0.4640
  183SLPC   O2220972   6.974   2.708  10.351 -0.0272  0.3815  0.3657
  183SLPC   C2220973   7.113   2.577  10.208 -0.0180  0.5092  0.3379
  183SLPC   H2R20974   7.211   2.595  10.159 -0.0721  1.1622  0.4636
  183SLPC   H2S20975   7.104   2.481  10.262 -1.5190  1.1798  1.3142
  183SLPC    C320976   7.259   2.972  10.373 -0.1948 -0.2394  0.7928
  183SLPC    HX20977   7.353   2.937  10.325  2.1409  3.2238  2.6257
  183SLPC    HY20978   7.283   3.047  10.452 -2.6528 -2.1195  3.4233
  183SLPC   O3120979   7.181   3.036  10.261 -0.4095  0.1602  0.1571
  183SLPC   C3120980   7.075   3.096  10.307 -0.1468  0.0981  0.0792
  183SLPC   O3220981   7.050   3.115  10.425  0.5813  0.4876 -0.3176
  183SLPC   C3220982   6.985   3.146  10.189  0.1481 -0.2708  0.2203
  183SLPC   H2X20983   7.040   3.213  10.120 -0.6765 -0.9289 -1.0951
  183SLPC   H2Y20984   6.900   3.198  10.238  0.2092 -0.4480  0.5159
  183SLPC   C2320985   6.999   2.566  10.090 -0.0729 -0.0906  0.0378
  183SLPC   H3R20986   6.899   2.557  10.137  0.1810 -1.2417  0.3668
  183SLPC   H3S20987   7.011   2.467  10.042 -2.2519  0.2806 -1.3578
  183SLPC   C2420988   6.995   2.673   9.984 -0.3616  0.1725  0.4540
  183SLPC   H4R20989   7.099   2.698   9.954  0.8852 -4.8794  0.1204
  183SLPC   H4S20990   6.941   2.764  10.019  0.4063  1.2760 -1.1617
  183SLPC   C2520991   6.922   2.623   9.863  0.1962  0.8772 -0.4144
  183SLPC   H5R20992   6.901   2.714   9.803 -1.3835  1.2079  0.6183
  183SLPC   H5S20993   6.834   2.559   9.888  1.9582 -1.6701 -0.4992
  183SLPC   C2620994   7.005   2.530   9.767  0.1760 -0.4576  0.0264
  183SLPC   H6R20995   7.023   2.433   9.818 -1.5005 -0.4783  0.6231
  183SLPC   H6S20996   7.101   2.584   9.753  0.5941 -0.6437  1.9539
  183SLPC   C2720997   6.924   2.510   9.637  0.4688 -0.0046 -0.5836
  183SLPC   H7R20998   6.886   2.604   9.591  1.3403  0.5875 -0.1050
  183SLPC   H7S20999   6.828   2.467   9.672 -0.0674  1.7879  0.2001
  183SLPC   C2821000   6.998   2.418   9.539  0.2863 -0.2185 -0.1190
  183SLPC   H8R21001   6.917   2.358   9.491 -0.9740 -2.0218  4.0241
  183SLPC   H8S21002   7.050   2.343   9.602 -1.4629 -1.1679  0.2395
  183SLPC   C2921003   7.096   2.500   9.456 -0.1674  0.0031  0.7576
  183SLPC   H9R21004   7.176   2.551   9.512  0.2348  0.0665  0.1260
  183SLPC  C21021005   7.102   2.501   9.323  0.2681  0.1780 -0.0851
  183SLPC  H10R21006   7.178   2.566   9.276 -2.3775  0.4028 -4.3868
  183SLPC  C21121007   7.009   2.425   9.233  0.7248 -0.6625  0.4044
  183SLPC  H11R21008   6.977   2.510   9.169 -1.3304 -0.5678  1.5291
  183SLPC  H11S21009   6.915   2.385   9.276  0.4357 -1.7260 -1.2023
  183SLPC  C21221010   7.079   2.324   9.156  0.7332  0.0070  0.2778
  183SLPC  H12R21011   7.122   2.239   9.211 -2.2735 -1.2846  0.7292
  183SLPC  C21321012   7.085   2.310   9.024  0.1180 -0.0424 -0.7653
  183SLPC  H13R21013   7.135   2.217   8.992  2.2027  0.7711  0.0193
  183SLPC  C21421014   7.033   2.396   8.915 -0.4309 -0.0926 -0.0382
  183SLPC  H14R21015   7.119   2.414   8.846 -2.0222  1.3594 -1.7079
  183SLPC  H14S21016   6.998   2.490   8.962  0.3713 -0.8739  2.2065
  183SLPC  C21521017   6.912   2.327   8.841  0.6217  0.1040 -0.1766
  183SLPC  H15R21018   6.831   2.324   8.917  1.6889  1.1249  1.0236
  183SLPC  H15S21019   6.934   2.220   8.824  1.8436  0.5738 -1.6067
  183SLPC  C21621020   6.862   2.396   8.715 -0.3113  0.6858  0.8506
  183SLPC  H16R21021   6.777   2.337   8.674  2.1896 -0.1313 -3.3778
  183SLPC  H16S21022   6.935   2.376   8.634 -2.0990 -1.2769 -0.3319
  183SLPC  C21721023   6.825   2.543   8.734 -0.3139 -0.1079  0.0149
  183SLPC  H17R21024   6.813   2.583   8.632  0.1895  0.0440  0.0146
  183SLPC  H17S21025   6.910   2.601   8.775 -0.6819  0.3307  0.1613
  183SLPC  C21821026   6.699   2.576   8.817  0.1645 -0.6059 -0.3398
  183SLPC  H18R21027   6.719   2.527   8.915  0.3962 -0.6397 -0.4028
  183SLPC  H18S21028   6.607   2.535   8.772 -1.4402  0.7435  1.6151
  183SLPC  H18T21029   6.687   2.686   8.835  1.2756 -0.6463  0.7646
  183SLPC   C3321030   6.945   3.026  10.105  0.5390  0.6451  0.9101
  183SLPC   H3X21031   6.915   2.938  10.165  1.0186 -1.2167 -1.5315
  183SLPC   H3Y21032   7.039   3.006  10.049 -0.1315  0.2541 -0.0798
  183SLPC   C3421033   6.832   3.055  10.005  0.7251 -0.2590  0.3168
  183SLPC   H4X21034   6.737   3.080  10.056 -1.3532  0.7148 -3.8419
  183SLPC   H4Y21035   6.810   2.960   9.952  2.2229 -0.5501  0.1710
  183SLPC   C3521036   6.868   3.162   9.904  0.3167  0.1842 -0.0025
  183SLPC   H5X21037   6.979   3.168   9.900  0.5038 -1.0628  2.4569
  183SLPC   H5Y21038   6.826   3.255   9.949  0.5071  1.4854 -2.4425
  183SLPC   C3621039   6.825   3.135   9.765  0.5696  0.2151 -0.4636
  183SLPC   H6X21040   6.820   3.232   9.710  1.0340  0.7329  0.3954
  183SLPC   H6Y21041   6.719   3.103   9.763 -0.0501  1.8200  2.9827
  183SLPC   C3721042   6.912   3.032   9.692  0.1509 -0.2581 -0.9290
  183SLPC   H7X21043   6.892   2.936   9.743  0.1528 -0.1190 -0.6631
  183SLPC   H7Y21044   7.018   3.054   9.719 -0.1726 -1.4906  1.4195
  183SLPC   C3821045   6.876   3.037   9.547 -0.2920 -0.6088 -0.6137
  183SLPC   H8X21046   6.861   3.142   9.517 -1.2444 -0.3717  0.6369
  183SLPC   H8Y21047   6.776   2.989   9.546 -0.5832 -0.0651  1.0140
  183SLPC   C3921048   6.963   2.947   9.464  0.0122  0.7229  0.7472
  183SLPC   H9X21049   6.957   2.842   9.500 -0.9752  0.4555 -0.1343
  183SLPC   H9Y21050   7.063   2.992   9.483  0.2661 -0.3004  1.8356
  183SLPC  C31021051   6.929   2.970   9.317 -0.1113  0.2130 -0.2470
  183SLPC  H10X21052   6.964   3.065   9.271 -0.8033  0.3478 -0.4914
  183SLPC  H10Y21053   6.818   2.969   9.312 -0.0755 -1.5237 -1.2809
  183SLPC  C31121054   6.976   2.855   9.228 -0.4606  0.2780  0.1572
  183SLPC  H11X21055   6.903   2.778   9.262 -0.6164  0.9810  1.4360
  183SLPC  H11Y21056   7.082   2.821   9.233 -1.0403 -1.7420 -0.5486
  183SLPC  C31221057   6.931   2.893   9.085 -0.1759  0.1718  0.5382
  183SLPC  H12X21058   6.829   2.936   9.078  0.7523  2.2791 -0.1607
  183SLPC  H12Y21059   6.919   2.808   9.015  0.3103  0.6005 -0.0688
  183SLPC  C31321060   7.025   3.000   9.007  0.4243  0.0444  0.1977
  183SLPC  H13X21061   7.135   2.982   9.014  0.2226 -0.1797  3.7507
  183SLPC  H13Y21062   7.007   3.094   9.063 -2.6313 -1.3972  1.7370
  183SLPC  C31421063   6.980   3.019   8.868  0.3565 -0.4489 -0.0148
  183SLPC  H14X21064   6.876   3.060   8.867  0.8154  0.7853  1.6635
  183SLPC  H14Y21065   6.989   2.924   8.810 -0.9149  0.4095 -1.6663
  183SLPC  C31521066   7.067   3.135   8.790  0.0544  0.2202 -0.0681
  183SLPC  H15X21067   7.175   3.110   8.784  0.1641  0.2564  1.7527
  183SLPC  H15Y21068   7.053   3.225   8.852 -0.3310 -1.8989  3.0286
  183SLPC  C31621069   7.027   3.167   8.647 -0.2873  0.1841  0.4468
  183SLPC  H16X21070   6.920   3.195   8.633 -0.6190 -1.7683 -1.1461
  183SLPC  H16Y21071   7.048   3.076   8.586 -1.2570 -0.7628  1.4998
  183SLPC  C31721072   7.120   3.266   8.576  0.2897  0.5976 -0.1016
  183SLPC  H17X21073   7.224   3.226   8.581 -0.0520 -0.3016  0.0115
  183SLPC  H17Y21074   7.111   3.362   8.631 -2.0966  0.2430  0.1643
  183SLPC  C31821075   7.079   3.282   8.431 -0.0008  0.6560  0.7085
  183SLPC  H18X21076   7.104   3.188   8.377 -0.6029  0.0391  1.4840
  183SLPC  H18Y21077   7.135   3.361   8.378  0.4068 -1.8028 -2.6729
  183SLPC  H18Z21078   6.972   3.307   8.416  0.2225 -0.2598 -2.7972
  184SLPC     N21079   2.752   0.076  10.564 -1.0467 -0.3055  0.5879
  184SLPC   C1321080   2.846   0.045  10.454  0.2854 -0.0266 -0.0491
  184SLPC  H13A21081   2.784   0.010  10.373  1.1343  1.7450 -1.5002
  184SLPC  H13B21082   2.891   0.138  10.423 -1.7911  0.6233 -1.1470
  184SLPC  H13C21083   2.905  -0.043  10.475  2.7812  1.0966 -2.0240
  184SLPC   C1421084   2.822   0.107  10.691 -0.9772  0.1728  0.9917
  184SLPC  H14A21085   2.905   0.174  10.674  1.4404 -2.1086  3.2435
  184SLPC  H14B21086   2.758   0.147  10.768  0.2927  1.5147  1.3769
  184SLPC  H14C21087   2.865   0.015  10.727  0.0922  0.4107  0.3728
  184SLPC   C1521088   2.669  -0.043  10.582  0.4451  0.3282  0.6977
  184SLPC  H15A21089   2.717  -0.128  10.628  1.3141  0.1754 -0.4577
  184SLPC  H15B21090   2.572  -0.024  10.625 -0.0177 -1.3680  0.4357
  184SLPC  H15C21091   2.635  -0.076  10.484 -0.3274 -0.1348  1.1171
  184SLPC   C1221092   2.668   0.183  10.520  0.2346 -0.6919  0.2179
  184SLPC  H12A21093   2.612   0.216  10.607 -0.4802  1.1371 -0.9043
  184SLPC  H12B21094   2.591   0.150  10.452 -1.2291  1.5457  0.7114
  184SLPC   C1121095   2.722   0.311  10.459  0.7505 -0.3363 -0.4960
  184SLPC  H11A21096   2.624   0.362  10.452 -0.0807 -1.5865  1.6870
  184SLPC  H11B21097   2.766   0.313  10.357  1.4544  0.5385 -0.1897
  184SLPC     P21098   2.856   0.517  10.547  0.1130 -0.8226 -0.0661
  184SLPC   O1321099   2.751   0.606  10.596 -0.2723  0.2952  0.4171
  184SLPC   O1421100   2.984   0.520  10.623 -0.0434  0.0366  0.5081
  184SLPC   O1221101   2.803   0.374  10.558 -0.1804  0.4124  0.0494
  184SLPC   O1121102   2.864   0.516  10.395  0.3155 -0.0984  0.2104
  184SLPC    C121103   2.982   0.571  10.324  0.1486 -0.1134 -0.4019
  184SLPC    HA21104   2.971   0.679  10.301  1.4289 -0.1041 -0.9716
  184SLPC    HB21105   3.077   0.570  10.382 -0.1725  0.6683  0.1478
  184SLPC    C221106   3.011   0.498  10.190 -0.6807  0.5609 -0.7095
  184SLPC    HS21107   3.060   0.402  10.218 -0.7720  0.4167 -1.0387
  184SLPC   O2121108   3.091   0.583  10.107  0.4425 -0.6307 -0.1039
  184SLPC   C2121109   3.187   0.523  10.031  0.4956  0.7600 -0.4197
  184SLPC   O2221110   3.213   0.405  10.030  0.5233  0.3558  0.4489
  184SLPC   C2221111   3.246   0.629   9.933 -0.2796 -0.5369  0.0623
  184SLPC   H2R21112   3.186   0.720   9.957  0.7302  0.1112  0.1415
  184SLPC   H2S21113   3.356   0.630   9.944 -0.1996 -0.1318 -0.7643
  184SLPC    C321114   2.879   0.464  10.121 -0.7685 -0.3590 -0.2952
  184SLPC    HX21115   2.833   0.558  10.083 -0.3667  0.1291  0.4254
  184SLPC    HY21116   2.805   0.420  10.190  2.0446 -0.9593  2.4299
  184SLPC   O3121117   2.892   0.375  10.012  0.3194  0.3070  0.1105
  184SLPC   C3121118   2.894   0.242  10.033 -0.2866 -1.0238 -0.8213
  184SLPC   O3221119   2.864   0.188  10.139 -0.1149 -0.3316  0.2667
  184SLPC   C3221120   2.906   0.157   9.917  0.2761 -0.6410  0.0487
  184SLPC   H2X21121   2.809   0.156   9.863  1.0322 -0.4012 -1.3463
  184SLPC   H2Y21122   2.930   0.051   9.940  4.2814 -0.2185 -1.7010
  184SLPC   C2321123   3.217   0.591   9.788 -0.1148 -0.3309  0.2009
  184SLPC   H3R21124   3.107   0.595   9.775 -0.0518  1.3611  0.1037
  184SLPC   H3S21125   3.255   0.489   9.765 -1.2543 -0.4807 -1.1114
  184SLPC   C2421126   3.287   0.693   9.694 -0.2438 -0.1548  0.4474
  184SLPC   H4R21127   3.392   0.696   9.729 -0.0459  0.2395 -0.1677
  184SLPC   H4S21128   3.239   0.791   9.717  1.7393  0.9348  0.0268
  184SLPC   C2521129   3.269   0.651   9.549  0.0120 -0.6397 -0.2557
  184SLPC   H5R21130   3.160   0.637   9.531 -0.6175  1.9055  1.3589
  184SLPC   H5S21131   3.329   0.560   9.525  0.9491  0.0169 -0.4273
  184SLPC   C2621132   3.297   0.770   9.451  0.6819 -0.4546 -0.1953
  184SLPC   H6R21133   3.389   0.831   9.468  1.9834 -2.3868 -0.0679
  184SLPC   H6S21134   3.209   0.835   9.471 -1.2339 -3.1545  0.3617
  184SLPC   C2721135   3.276   0.744   9.301 -0.7340 -0.5854 -0.2613
  184SLPC   H7R21136   3.180   0.689   9.289 -1.2465 -0.0335  1.1738
  184SLPC   H7S21137   3.359   0.681   9.263  0.4565  1.5715 -1.3164
  184SLPC   C2821138   3.270   0.870   9.209 -0.1047 -0.0985 -0.3593
  184SLPC   H8R21139   3.369   0.920   9.212 -0.3416  0.4884 -1.9154
  184SLPC   H8S21140   3.214   0.944   9.271 -1.8709 -0.9064 -0.9729
  184SLPC   C2921141   3.214   0.842   9.069 -0.0214  0.0934  0.3295
  184SLPC   H9R21142   3.291   0.803   9.001 -0.9269  1.3117 -1.4156
  184SLPC  C21021143   3.096   0.887   9.017 -0.0385 -0.0486  0.1743
  184SLPC  H10R21144   3.080   0.873   8.909 -0.9680  0.1960  0.2778
  184SLPC  C21121145   2.986   0.960   9.091  0.1587  0.2922 -0.1973
  184SLPC  H11R21146   2.930   1.027   9.022  2.8836  1.6265 -1.1755
  184SLPC  H11S21147   3.036   1.021   9.169  0.4483  1.2086 -1.0879
  184SLPC  C21221148   2.893   0.860   9.152  0.2524 -0.6147  0.2030
  184SLPC  H12R21149   2.917   0.753   9.156  2.6813 -0.1079  0.0552
  184SLPC  C21321150   2.781   0.893   9.223  0.1349  0.2406  0.1942
  184SLPC  H13R21151   2.711   0.812   9.247  1.6104 -0.9291  0.6758
  184SLPC  C21421152   2.737   1.038   9.256  0.2030 -0.8537 -0.3416
  184SLPC  H14R21153   2.641   1.061   9.206  1.7974  0.7868 -2.7623
  184SLPC  H14S21154   2.795   1.120   9.208 -0.4318 -0.2832 -0.1485
  184SLPC  C21521155   2.716   1.069   9.406 -0.0314  0.0203 -0.0872
  184SLPC  H15R21156   2.687   1.176   9.408  1.9928  0.6392 -1.7960
  184SLPC  H15S21157   2.815   1.048   9.453 -0.4787 -1.1953  0.3290
  184SLPC  C21621158   2.615   0.967   9.479  0.3227  0.5767  0.3246
  184SLPC  H16R21159   2.677   0.884   9.519 -0.7062 -0.4725 -0.2247
  184SLPC  H16S21160   2.557   0.922   9.395  0.7790  1.7404 -0.6349
  184SLPC  C21721161   2.516   1.031   9.578  0.1581 -0.0822  0.4260
  184SLPC  H17R21162   2.585   1.096   9.635 -0.3832  0.9943 -0.1321
  184SLPC  H17S21163   2.478   0.955   9.649 -2.4307  1.4941  0.8142
  184SLPC  C21821164   2.396   1.101   9.518  0.2647  0.6836  0.8523
  184SLPC  H18R21165   2.314   1.106   9.593  0.1557  1.4251  0.6885
  184SLPC  H18S21166   2.365   1.049   9.425  0.5822  1.7012  0.1763
  184SLPC  H18T21167   2.421   1.205   9.490  1.6054 -0.0573 -0.8221
  184SLPC   C3321168   3.018   0.197   9.815  0.2066  0.3849 -0.8152
  184SLPC   H3X21169   3.121   0.180   9.853 -0.4077 -2.6378 -0.3565
  184SLPC   H3Y21170   3.004   0.302   9.782 -1.1723  1.1099  1.9309
  184SLPC   C3421171   3.018   0.105   9.688 -0.3073 -0.2385  0.5646
  184SLPC   H4X21172   3.030  -0.000   9.722  0.7851  0.4529  2.4026
  184SLPC   H4Y21173   3.102   0.142   9.625 -2.1660  0.5027 -1.5433
  184SLPC   C3521174   2.887   0.102   9.609 -0.6206  0.3654 -0.2076
  184SLPC   H5X21175   2.865   0.201   9.564  1.0137  1.4165  1.2526
  184SLPC   H5Y21176   2.803   0.064   9.671 -0.3526  0.7349  0.3872
  184SLPC   C3621177   2.899  -0.004   9.493  0.2623 -0.1784  0.2709
  184SLPC   H6X21178   2.797  -0.030   9.459  0.3799  0.7556 -0.8256
  184SLPC   H6Y21179   2.947  -0.099   9.525 -1.7700 -1.5856 -0.7932
  184SLPC   C3721180   2.974   0.032   9.362  0.1379  0.2504  0.0752
  184SLPC   H7X21181   3.082   0.018   9.383  0.1483 -0.3228 -0.3398
  184SLPC   H7Y21182   2.959   0.140   9.341  1.7921  0.1271 -1.9752
  184SLPC   C3821183   2.936  -0.056   9.239  0.1943 -0.1345  0.1912
  184SLPC   H8X21184   2.904   0.020   9.165  1.1704  3.1710  3.0424
  184SLPC   H8Y21185   2.855  -0.127   9.267  1.4127 -1.7806 -0.4067
  184SLPC   C3921186   3.054  -0.142   9.197 -0.1882 -0.4575  0.4137
  184SLPC   H9X21187   3.067  -0.222   9.273  3.3782  0.2039  0.5845
  184SLPC   H9Y21188   3.148  -0.084   9.184 -0.3234 -0.7365 -2.1181
  184SLPC  C31021189   3.026  -0.216   9.062  1.0565 -0.6117  0.5481
  184SLPC  H10X21190   2.930  -0.272   9.065  2.7157 -3.7803 -1.8010
  184SLPC  H10Y21191   3.107  -0.292   9.053 -0.3866 -2.1109  0.0310
  184SLPC  C31121192   3.026  -0.110   8.950 -0.3602  0.1243 -0.1602
  184SLPC  H11X21193   3.119  -0.049   8.960  1.4163 -2.6955  1.3217
  184SLPC  H11Y21194   2.933  -0.052   8.963  0.3249  0.9426  1.2488
  184SLPC  C31221195   3.013  -0.166   8.807 -0.0619  0.2282 -0.2610
  184SLPC  H12X21196   2.905  -0.191   8.797 -1.0262  3.6730  0.9574
  184SLPC  H12Y21197   3.079  -0.253   8.786  2.6640  2.3587 -0.9092
  184SLPC  C31321198   3.043  -0.057   8.701  0.4082  0.1995 -0.9621
  184SLPC  H13X21199   3.146  -0.019   8.713  0.2361 -0.4584  3.3780
  184SLPC  H13Y21200   2.977   0.026   8.736  0.7361 -0.2405  0.7703
  184SLPC  C31421201   2.995  -0.098   8.565  0.8472 -0.1421  0.2207
  184SLPC  H14X21202   2.897  -0.148   8.575  0.4627  0.6117  0.2847
  184SLPC  H14Y21203   3.066  -0.166   8.513  0.7131  0.5071 -0.8211
  184SLPC  C31521204   2.973   0.018   8.469  0.0564  0.0097 -0.1374
  184SLPC  H15X21205   3.063   0.081   8.458  1.2433 -1.3113  1.7707
  184SLPC  H15Y21206   2.908   0.093   8.518 -2.4359 -0.1738 -3.0262
  184SLPC  C31621207   2.904  -0.016   8.339 -0.0444 -0.9108  0.7394
  184SLPC  H16X21208   2.801  -0.053   8.362 -0.6132  0.0893 -0.1312
  184SLPC  H16Y21209   2.958  -0.095   8.282  1.1541  2.0006 -2.2617
  184SLPC  C31721210   2.897   0.104   8.239 -0.1518 -0.6159 -0.2492
  184SLPC  H17X21211   3.002   0.137   8.225 -0.2888 -1.0373 -2.4311
  184SLPC  H17Y21212   2.844   0.185   8.293  1.2619 -0.0528  0.3109
  184SLPC  C31821213   2.826   0.080   8.111 -0.1164  0.2790  0.3017
  184SLPC  H18X21214   2.750  -0.001   8.112  1.4300 -1.1992  0.2950
  184SLPC  H18Y21215   2.892   0.045   8.028 -0.8210 -1.2113  0.3432
  184SLPC  H18Z21216   2.780   0.172   8.070  0.1832 -0.0696 -0.8366
  185SLPC     N21217   1.633   2.250   6.622 -0.2882 -0.6957 -0.8235
  185SLPC   C1321218   1.642   2.366   6.715  0.0820  1.1323  0.2572
  185SLPC  H13A21219   1.644   2.461   6.664 -4.3576  2.3667  2.1777
  185SLPC  H13B21220   1.561   2.383   6.784  0.0206 -0.6722  0.6766
  185SLPC  H13C21221   1.738   2.355   6.765  1.1601  1.1551 -1.7518
  185SLPC   C1421222   1.580   2.133   6.687  1.0846  0.6847  0.0315
  185SLPC  H14A21223   1.640   2.095   6.769  0.6346 -2.1625 -0.8946
  185SLPC  H14B21224   1.481   2.153   6.725 -0.0002 -0.9421 -1.8302
  185SLPC  H14C21225   1.576   2.052   6.616 -1.0494  0.7146  0.0974
  185SLPC   C1521226   1.768   2.217   6.567 -0.8244 -0.3543 -0.5982
  185SLPC  H15A21227   1.760   2.138   6.494  0.5246 -0.5426 -0.5549
  185SLPC  H15B21228   1.810   2.302   6.515 -1.9162  1.5423  1.5170
  185SLPC  H15C21229   1.825   2.167   6.644 -1.9518 -0.8852 -0.0977
  185SLPC   C1221230   1.537   2.275   6.511  0.1370  0.0557  0.9172
  185SLPC  H12A21231   1.435   2.263   6.544  0.3528 -1.0351  1.2034
  185SLPC  H12B21232   1.552   2.200   6.434 -0.9925 -0.3890  1.1302
  185SLPC   C1121233   1.552   2.411   6.443 -0.2750 -0.3874  0.0178
  185SLPC  H11A21234   1.485   2.401   6.355 -1.0144  1.1568  0.3914
  185SLPC  H11B21235   1.657   2.414   6.406  0.8545  0.2129  3.1071
  185SLPC     P21236   1.366   2.572   6.533  0.3869  0.1563  0.3567
  185SLPC   O1321237   1.312   2.613   6.399 -0.3486  0.2168 -0.1382
  185SLPC   O1421238   1.282   2.474   6.606 -0.2534 -0.3628 -0.3509
  185SLPC   O1221239   1.519   2.522   6.524  0.0082  0.7230  0.5838
  185SLPC   O1121240   1.388   2.696   6.626  0.1153 -0.7539  0.0954
  185SLPC    C121241   1.433   2.675   6.761  0.2056 -0.1465 -0.1455
  185SLPC    HA21242   1.351   2.640   6.827  0.5484 -0.2646  0.2146
  185SLPC    HB21243   1.527   2.618   6.776  0.9441  1.1252  0.1247
  185SLPC    C221244   1.459   2.820   6.813 -0.3584  0.6529 -0.4609
  185SLPC    HS21245   1.561   2.838   6.773 -0.1544  0.0577 -0.2036
  185SLPC   O2121246   1.450   2.816   6.956 -0.2486  0.3200  0.0932
  185SLPC   C2121247   1.534   2.898   7.016 -0.0239  0.7136  0.3642
  185SLPC   O2221248   1.627   2.951   6.965 -0.6574 -0.3077 -0.2602
  185SLPC   C2221249   1.472   2.927   7.155 -0.5854 -0.6635  0.2691
  185SLPC   H2R21250   1.371   2.973   7.150  0.5982  1.7108 -3.7709
  185SLPC   H2S21251   1.455   2.835   7.216 -0.2826  0.0163  1.3912
  185SLPC    C321252   1.366   2.935   6.764  0.3442 -0.1501  0.3520
  185SLPC    HX21253   1.265   2.920   6.808  0.5355 -0.3361  0.7293
  185SLPC    HY21254   1.364   2.931   6.653 -3.0958 -1.8748  0.4056
  185SLPC   O3121255   1.406   3.067   6.802 -0.1141  0.2450 -0.9587
  185SLPC   C3121256   1.511   3.123   6.741  0.0664 -1.1797  0.3396
  185SLPC   O3221257   1.558   3.091   6.631  0.1103  0.2483 -0.0226
  185SLPC   C3221258   1.564   3.240   6.820 -0.3771 -0.2013 -0.0178
  185SLPC   H2X21259   1.626   3.300   6.749 -1.1566  0.2604 -0.3130
  185SLPC   H2Y21260   1.631   3.185   6.889 -0.8232 -0.4161  0.2463
  185SLPC   C2321261   1.560   3.016   7.248 -0.0679  0.4070 -0.1069
  185SLPC   H3R21262   1.558   3.118   7.202  1.0216  1.3653  1.9044
  185SLPC   H3S21263   1.664   2.979   7.251 -0.3179 -0.6637 -2.9841
  185SLPC   C2421264   1.530   3.014   7.400  0.0400 -0.5477 -0.2860
  185SLPC   H4R21265   1.593   3.089   7.451 -0.5373  0.5304 -1.1454
  185SLPC   H4S21266   1.556   2.917   7.449  2.2680  0.9388  1.5270
  185SLPC   C2521267   1.385   3.058   7.431  0.1668 -0.5248  0.8185
  185SLPC   H5R21268   1.316   2.993   7.373 -0.3550 -1.2547  2.2199
  185SLPC   H5S21269   1.367   3.163   7.400 -0.0376 -0.8305 -0.1223
  185SLPC   C2621270   1.367   3.043   7.584 -0.3185 -0.1414 -0.3107
  185SLPC   H6R21271   1.407   2.943   7.611  0.2512  0.2992  0.4791
  185SLPC   H6S21272   1.257   3.029   7.592 -0.3044  0.0165  0.1724
  185SLPC   C2721273   1.420   3.163   7.664  0.4537 -0.0187 -0.0365
  185SLPC   H7R21274   1.385   3.257   7.617  1.9025  0.5805  0.0794
  185SLPC   H7S21275   1.529   3.170   7.645  0.5171  1.0313  0.6805
  185SLPC   C2821276   1.387   3.151   7.813 -0.5799 -0.4548  0.0906
  185SLPC   H8R21277   1.433   3.056   7.849  0.3135  0.0232  0.2186
  185SLPC   H8S21278   1.277   3.140   7.808 -0.3325 -2.3091 -2.5952
  185SLPC   C2921279   1.446   3.270   7.878 -0.5290 -0.8041  0.1129
  185SLPC   H9R21280   1.453   3.360   7.814  0.6263 -0.1469  1.1266
  185SLPC  C21021281   1.484   3.272   8.006 -0.0870 -0.3063  0.9070
  185SLPC  H10R21282   1.516   3.370   8.044  0.9530 -0.3880  0.2350
  185SLPC  C21121283   1.483   3.159   8.106 -0.4164 -0.0749 -0.2561
  185SLPC  H11R21284   1.588   3.135   8.134 -0.7372  0.3879  1.4220
  185SLPC  H11S21285   1.440   3.070   8.056  0.7286 -1.0351  0.4273
  185SLPC  C21221286   1.406   3.209   8.228  0.5701 -0.5238  0.5825
  185SLPC  H12R21287   1.345   3.300   8.219 -0.8385 -1.4191  0.8343
  185SLPC  C21321288   1.427   3.154   8.347  0.8628 -0.2675  0.8894
  185SLPC  H13R21289   1.378   3.200   8.434  0.4267  2.3038 -0.6686
  185SLPC  C21421290   1.506   3.033   8.388 -0.1749 -0.6736 -1.0264
  185SLPC  H14R21291   1.540   2.969   8.304  1.2160  2.8582 -3.2190
  185SLPC  H14S21292   1.435   2.968   8.444  0.8687 -0.8098  0.1482
  185SLPC  C21521293   1.636   3.056   8.473 -0.2283  0.6007 -0.1399
  185SLPC  H15R21294   1.622   3.095   8.576 -0.2779 -0.2979  0.2021
  185SLPC  H15S21295   1.697   3.125   8.411 -0.1892 -0.2508 -1.0569
  185SLPC  C21621296   1.716   2.918   8.498 -0.5113  0.1532  0.3025
  185SLPC  H16R21297   1.826   2.933   8.499  0.0013 -3.3365  0.1259
  185SLPC  H16S21298   1.711   2.856   8.406  1.6493 -0.3068  0.4751
  185SLPC  C21721299   1.679   2.847   8.623 -0.1201  0.2393 -0.0696
  185SLPC  H17R21300   1.571   2.840   8.649 -0.5851  0.6237 -1.8869
  185SLPC  H17S21301   1.712   2.913   8.707 -0.5657 -0.0407  0.3291
  185SLPC  C21821302   1.749   2.715   8.651 -0.2220 -0.1345 -0.3349
  185SLPC  H18R21303   1.738   2.686   8.757 -1.7194 -1.2261 -0.7737
  185SLPC  H18S21304   1.855   2.728   8.619  0.0263 -0.5078  0.3291
  185SLPC  H18T21305   1.715   2.627   8.592  0.6996 -1.4076  1.0096
  185SLPC   C3321306   1.473   3.323   6.909  0.2764  0.1609 -0.0269
  185SLPC   H3X21307   1.432   3.267   6.996  0.4134  0.7932  0.4508
  185SLPC   H3Y21308   1.377   3.347   6.858 -1.3406 -2.3059  1.7373
  185SLPC   C3421309   1.549   3.441   6.959 -0.2638  0.6151  0.5898
  185SLPC   H4X21310   1.556   3.515   6.877 -0.9206  0.1922  0.1540
  185SLPC   H4Y21311   1.645   3.409   7.005 -0.4386 -1.5207 -0.4904
  185SLPC   C3521312   1.472   3.500   7.078 -0.1188  0.0851  0.1139
  185SLPC   H5X21313   1.474   3.422   7.157 -0.1566 -1.1929 -1.1290
  185SLPC   H5Y21314   1.375   3.536   7.037 -0.9969 -0.2384  1.8738
  185SLPC   C3621315   1.542   3.631   7.128 -0.1959  0.1457 -0.5885
  185SLPC   H6X21316   1.540   3.709   7.048  0.5477  0.4804 -0.2831
  185SLPC   H6Y21317   1.647   3.600   7.143 -0.4703 -1.6317 -2.0889
  185SLPC   C3721318   1.473   3.671   7.256  0.6706  0.3611 -0.1182
  185SLPC   H7X21319   1.363   3.682   7.252  0.4676 -1.6497 -0.5083
  185SLPC   H7Y21320   1.514   3.771   7.282  1.8363 -0.2989  0.6399
  185SLPC   C3821321   1.499   3.584   7.380 -0.3989  0.2790  0.8706
  185SLPC   H8X21322   1.608   3.561   7.387 -0.1287  1.1178 -0.4506
  185SLPC   H8Y21323   1.450   3.487   7.356 -0.8520  1.2800 -2.4384
  185SLPC   C3921324   1.452   3.648   7.512 -0.6053 -0.2935 -0.5074
  185SLPC   H9X21325   1.349   3.686   7.500  0.0010  1.5849  0.1372
  185SLPC   H9Y21326   1.520   3.735   7.528  0.8653 -1.3352 -0.9361
  185SLPC  C31021327   1.454   3.560   7.638  0.0776 -0.1958  0.1561
  185SLPC  H10X21328   1.555   3.572   7.681  1.1503 -0.0466 -2.3143
  185SLPC  H10Y21329   1.433   3.455   7.606  0.1550 -0.3484  0.5931
  185SLPC  C31121330   1.357   3.619   7.753 -0.3443 -0.2386  0.0376
  185SLPC  H11X21331   1.353   3.544   7.835  0.2198 -0.2345  0.0698
  185SLPC  H11Y21332   1.258   3.621   7.704 -0.8198  0.5832  1.0049
  185SLPC  C31221333   1.407   3.753   7.814  0.4025  0.6896 -0.9075
  185SLPC  H12X21334   1.517   3.740   7.823  0.3429  1.0158  0.3369
  185SLPC  H12Y21335   1.381   3.746   7.922  0.1156  0.8052 -0.9687
  185SLPC  C31321336   1.365   3.880   7.756  0.6775  0.5725  0.5672
  185SLPC  H13X21337   1.256   3.875   7.733  0.7776 -0.3602  0.2986
  185SLPC  H13Y21338   1.412   3.907   7.659 -1.6624 -0.0849 -0.7987
  185SLPC  C31421339   1.392   4.012   7.839 -0.2601 -0.1797  0.2968
  185SLPC  H14X21340   1.342   4.095   7.785 -0.5423 -0.2917  0.3840
  185SLPC  H14Y21341   1.500   4.035   7.855 -0.0579  0.6985 -2.1594
  185SLPC  C31521342   1.328   4.015   7.978  0.7585  0.0784  0.3691
  185SLPC  H15X21343   1.391   3.953   8.046 -3.0274 -1.7983  2.3152
  185SLPC  H15Y21344   1.228   3.966   7.979  0.0771  1.4426  0.1188
  185SLPC  C31621345   1.310   4.161   8.042  0.2525 -0.5917  0.0943
  185SLPC  H16X21346   1.221   4.216   8.004 -0.6001 -0.9451  1.5321
  185SLPC  H16Y21347   1.394   4.228   8.017  0.5876 -0.2770  2.0132
  185SLPC  C31721348   1.295   4.163   8.192 -0.0972  0.7977 -0.4888
  185SLPC  H17X21349   1.277   4.269   8.219  1.1697  1.2286 -1.3138
  185SLPC  H17Y21350   1.389   4.125   8.239  0.3284 -1.4291 -3.0316
  185SLPC  C31821351   1.180   4.072   8.243 -0.4528 -0.6122  0.2463
  185SLPC  H18X21352   1.104   4.093   8.166  1.7124 -0.3937 -1.8819
  185SLPC  H18Y21353   1.146   4.090   8.348  1.6429  1.1099  0.6860
  185SLPC  H18Z21354   1.198   3.967   8.213  1.9299 -0.1692  0.0135
  186SLPC     N21355   1.831   5.881   5.946 -0.2513  0.3500  0.1528
  186SLPC   C1321356   1.838   6.024   5.939  0.1225 -0.2714  0.6726
  186SLPC  H13A21357   1.893   6.068   5.857 -0.0493  1.0059  1.2302
  186SLPC  H13B21358   1.742   6.072   5.939 -0.0210 -0.5259  2.2402
  186SLPC  H13C21359   1.890   6.063   6.026  0.0609  0.4658  0.3768
  186SLPC   C1421360   1.968   5.823   5.963 -0.2002  0.3935 -1.0817
  186SLPC  H14A21361   2.007   5.834   6.063 -1.1565  1.7547 -0.8547
  186SLPC  H14B21362   1.965   5.716   5.946  0.3327  0.3265 -0.7540
  186SLPC  H14C21363   2.040   5.862   5.893  0.4022 -1.8457 -1.7654
  186SLPC   C1521364   1.785   5.837   5.810 -0.1599 -0.1489  0.4433
  186SLPC  H15A21365   1.860   5.857   5.734 -0.9765 -0.6894 -0.5116
  186SLPC  H15B21366   1.776   5.730   5.819 -0.2486 -0.0599  1.4034
  186SLPC  H15C21367   1.689   5.875   5.780 -0.3553 -1.5030 -0.6930
  186SLPC   C1221368   1.734   5.822   6.048  0.0855 -0.1208  0.4534
  186SLPC  H12A21369   1.718   5.716   6.038 -1.3343  0.0883  0.5297
  186SLPC  H12B21370   1.633   5.853   6.029  0.5076 -0.3505 -2.3025
  186SLPC   C1121371   1.767   5.856   6.196 -0.4762  0.4645  0.6248
  186SLPC  H11A21372   1.689   5.827   6.269 -2.4506 -1.2118 -2.0587
  186SLPC  H11B21373   1.778   5.966   6.207 -0.8702  0.5731 -0.0411
  186SLPC     P21374   1.887   5.620   6.235  0.6070 -0.1496  0.3070
  186SLPC   O1321375   1.752   5.568   6.252 -0.1030  0.0848 -0.3037
  186SLPC   O1421376   1.956   5.576   6.110 -0.5684 -0.2309  0.2181
  186SLPC   O1221377   1.885   5.777   6.229 -0.3258 -0.4641  0.3072
  186SLPC   O1121378   1.963   5.578   6.369 -0.0426  0.1040 -0.6205
  186SLPC    C121379   2.052   5.661   6.440  0.6620 -0.0837  0.0455
  186SLPC    HA21380   2.145   5.610   6.471  0.7775  1.3143  2.0404
  186SLPC    HB21381   2.081   5.751   6.381 -0.4495 -0.7080 -1.5016
  186SLPC    C221382   1.997   5.723   6.570  0.2537  0.2872  0.1128
  186SLPC    HS21383   2.080   5.780   6.616  0.7158  1.3018 -1.9147
  186SLPC   O2121384   1.950   5.607   6.655 -0.1834 -0.3142 -0.0874
  186SLPC   C2121385   2.049   5.563   6.731  0.2506  0.6432 -0.7667
  186SLPC   O2221386   2.161   5.612   6.742 -0.2289 -0.3133  0.6039
  186SLPC   C2221387   2.012   5.431   6.803 -0.1082  1.0193  0.4585
  186SLPC   H2R21388   2.014   5.349   6.728  0.1817  2.7175 -1.4445
  186SLPC   H2S21389   2.084   5.412   6.885 -0.2339  1.1479  0.5992
  186SLPC    C321390   1.875   5.817   6.553 -0.0227  0.5880 -0.3881
  186SLPC    HX21391   1.793   5.743   6.538  1.2718 -1.1892  0.9984
  186SLPC    HY21392   1.891   5.886   6.468  1.3149 -0.4540 -1.0056
  186SLPC   O3121393   1.852   5.894   6.677 -0.3251  0.3135 -0.0613
  186SLPC   C3121394   1.937   5.981   6.720 -0.3931  0.3974 -0.4305
  186SLPC   O3221395   2.041   6.012   6.668  0.4752 -0.6183  0.0203
  186SLPC   C3221396   1.891   6.036   6.856 -0.5462 -0.3022  0.5457
  186SLPC   H2X21397   1.864   5.961   6.934  1.5090 -1.4220  0.2067
  186SLPC   H2Y21398   1.798   6.093   6.835 -1.1403 -1.7264 -0.7974
  186SLPC   C2321399   1.877   5.450   6.876 -0.7314  0.1953  0.0109
  186SLPC   H3R21400   1.872   5.366   6.949  0.7264 -0.2676 -0.4009
  186SLPC   H3S21401   1.795   5.439   6.801  0.0011 -0.7204 -0.6722
  186SLPC   C2421402   1.871   5.580   6.959  0.7042 -0.3135 -0.2719
  186SLPC   H4R21403   1.846   5.662   6.888 -1.0649 -0.0705  0.5848
  186SLPC   H4S21404   1.973   5.610   6.992  1.4171 -0.9027 -1.9215
  186SLPC   C2521405   1.769   5.579   7.068  0.7041 -0.5357  0.7519
  186SLPC   H5R21406   1.790   5.492   7.132 -3.4807 -0.4950  2.3430
  186SLPC   H5S21407   1.668   5.578   7.021  0.7916  0.2696  0.5294
  186SLPC   C2621408   1.776   5.709   7.149  0.5918  0.3550 -0.2683
  186SLPC   H6R21409   1.781   5.794   7.078 -0.0564  0.7664  0.1679
  186SLPC   H6S21410   1.867   5.703   7.213 -0.0694 -1.2607  0.5706
  186SLPC   C2721411   1.660   5.724   7.246  0.6319  0.2175 -0.7977
  186SLPC   H7R21412   1.572   5.757   7.187  1.2171 -0.4992 -2.0758
  186SLPC   H7S21413   1.683   5.809   7.314 -2.0063 -0.5695  1.1607
  186SLPC   C2821414   1.626   5.602   7.329  0.0991  0.6129  0.0470
  186SLPC   H8R21415   1.722   5.553   7.355  0.9824  1.4115 -1.6047
  186SLPC   H8S21416   1.573   5.528   7.265  1.8632 -0.2128 -0.4874
  186SLPC   C2921417   1.539   5.639   7.449  0.0209  0.3662 -0.2770
  186SLPC   H9R21418   1.431   5.652   7.431 -0.1979  1.4541  1.6968
  186SLPC  C21021419   1.581   5.660   7.583 -0.9186  0.7392  0.4193
  186SLPC  H10R21420   1.520   5.692   7.669 -0.0690  1.9808  0.5803
  186SLPC  C21121421   1.725   5.649   7.622  0.5801  0.5424 -0.3940
  186SLPC  H11R21422   1.752   5.719   7.704  2.1487 -0.0639 -0.3715
  186SLPC  H11S21423   1.775   5.699   7.536  2.2255 -0.3114  0.0530
  186SLPC  C21221424   1.789   5.512   7.637 -0.8536 -0.2181 -0.9426
  186SLPC  H12R21425   1.770   5.434   7.562 -1.4597 -0.7039 -0.3002
  186SLPC  C21321426   1.862   5.468   7.745  0.0589  0.2226 -0.0630
  186SLPC  H13R21427   1.891   5.362   7.741 -0.8273  0.0475 -3.3610
  186SLPC  C21421428   1.900   5.542   7.868  0.2966  0.1437 -0.3274
  186SLPC  H14R21429   1.871   5.648   7.852  0.8296  0.3930  0.3339
  186SLPC  H14S21430   2.008   5.537   7.893  0.2341  4.3064  1.1567
  186SLPC  C21521431   1.820   5.491   7.993 -0.0168  0.4214 -0.2951
  186SLPC  H15R21432   1.711   5.503   7.979 -0.2358 -0.6188  0.4471
  186SLPC  H15S21433   1.853   5.553   8.079  0.8559  0.5314 -0.7045
  186SLPC  C21621434   1.839   5.347   8.039 -0.3933 -0.3909 -0.1593
  186SLPC  H16R21435   1.938   5.314   8.002 -1.6699 -4.5738 -0.1941
  186SLPC  H16S21436   1.769   5.280   7.985  2.3599 -1.8351 -2.0079
  186SLPC  C21721437   1.828   5.326   8.191  0.1786 -0.4203  0.2085
  186SLPC  H17R21438   1.725   5.363   8.209 -0.3792 -1.8705  0.0189
  186SLPC  H17S21439   1.902   5.392   8.242  0.4423  0.3474 -1.1455
  186SLPC  C21821440   1.842   5.182   8.235 -0.1111  0.2621  0.1913
  186SLPC  H18R21441   1.946   5.154   8.210  0.1373 -0.7810  2.2343
  186SLPC  H18S21442   1.780   5.101   8.191 -1.9904  2.0034 -0.4301
  186SLPC  H18T21443   1.831   5.173   8.346  0.0558 -0.8999  0.1213
  186SLPC   C3321444   1.986   6.136   6.928  0.3341 -0.6078  0.1220
  186SLPC   H3X21445   2.043   6.197   6.855  1.1755  1.4135  2.3774
  186SLPC   H3Y21446   2.066   6.087   6.988 -1.3477 -1.1256  1.9937
  186SLPC   C3421447   1.925   6.250   7.007  0.8688 -0.5354 -0.6515
  186SLPC   H4X21448   1.900   6.326   6.931 -0.4361 -1.1407 -0.8407
  186SLPC   H4Y21449   2.006   6.300   7.065 -0.3023  3.4044 -2.3001
  186SLPC   C3521450   1.816   6.218   7.105  0.1620  0.2753 -0.1424
  186SLPC   H5X21451   1.731   6.159   7.064  1.8835 -2.2604 -0.1590
  186SLPC   H5Y21452   1.776   6.309   7.155 -0.4911  0.5663 -1.1570
  186SLPC   C3621453   1.860   6.119   7.216 -0.3299  0.0786  0.0376
  186SLPC   H6X21454   1.951   6.161   7.265  0.2893 -1.4542  0.2288
  186SLPC   H6Y21455   1.901   6.025   7.172 -0.8161 -0.7974  1.4315
  186SLPC   C3721456   1.757   6.087   7.318 -0.1706 -0.0832 -0.4231
  186SLPC   H7X21457   1.791   5.999   7.376 -2.2593 -0.7264 -0.1330
  186SLPC   H7Y21458   1.661   6.067   7.265 -0.6141  2.9103 -0.8437
  186SLPC   C3821459   1.741   6.201   7.418 -0.1321 -0.4040 -0.4763
  186SLPC   H8X21460   1.705   6.287   7.358  0.0131 -0.6842 -0.9702
  186SLPC   H8Y21461   1.840   6.222   7.463 -0.4007  0.5219 -0.3060
  186SLPC   C3921462   1.640   6.170   7.530  0.5123  0.6788  0.4744
  186SLPC   H9X21463   1.549   6.133   7.478  1.2337  0.5679 -0.7388
  186SLPC   H9Y21464   1.617   6.271   7.571 -1.7322  0.7305 -0.8472
  186SLPC  C31021465   1.696   6.076   7.641 -0.8918  0.5845  0.3553
  186SLPC  H10X21466   1.792   6.113   7.682 -0.5188 -0.0196  0.0312
  186SLPC  H10Y21467   1.719   5.974   7.603  0.6606  0.1069  2.5030
  186SLPC  C31121468   1.593   6.054   7.754 -0.1629  0.2520  0.7032
  186SLPC  H11X21469   1.565   6.150   7.800  1.3670  1.4048 -0.7081
  186SLPC  H11Y21470   1.643   6.008   7.842 -1.1297  0.4756  1.3742
  186SLPC  C31221471   1.464   5.974   7.724  0.3714 -1.6810 -0.1320
  186SLPC  H12X21472   1.490   5.894   7.650  0.7532 -1.7028  0.0233
  186SLPC  H12Y21473   1.384   6.039   7.684 -1.0590 -2.0549  2.0678
  186SLPC  C31321474   1.417   5.903   7.849 -0.1557  0.6106 -0.1690
  186SLPC  H13X21475   1.364   5.980   7.909 -1.4090 -0.7764  0.5427
  186SLPC  H13Y21476   1.509   5.865   7.898 -0.2446  0.7093  0.0771
  186SLPC  C31421477   1.315   5.790   7.827 -0.4610  0.4035 -0.1994
  186SLPC  H14X21478   1.363   5.699   7.786  0.7336 -0.0815  2.1525
  186SLPC  H14Y21479   1.238   5.831   7.759 -0.2073 -0.8735 -1.2699
  186SLPC  C31521480   1.242   5.762   7.966  0.6964 -0.0489 -1.2813
  186SLPC  H15X21481   1.144   5.710   7.958  0.7212 -0.6447  1.4952
  186SLPC  H15Y21482   1.221   5.848   8.032 -0.0862 -2.0875  1.2320
  186SLPC  C31621483   1.322   5.651   8.047  0.1497  0.3910 -0.2280
  186SLPC  H16X21484   1.423   5.689   8.074  0.6131  0.4730 -2.0139
  186SLPC  H16Y21485   1.330   5.568   7.974 -1.3417 -0.7123  0.8396
  186SLPC  C31721486   1.248   5.586   8.159  0.6033 -0.9636  0.0379
  186SLPC  H17X21487   1.312   5.511   8.211 -2.4644 -3.2503  0.6780
  186SLPC  H17Y21488   1.162   5.522   8.128 -0.0401 -0.1689  0.1506
  186SLPC  C31821489   1.184   5.679   8.261 -0.6266  0.8973 -0.2471
  186SLPC  H18X21490   1.128   5.611   8.330  0.8750 -0.5999 -0.4763
  186SLPC  H18Y21491   1.119   5.754   8.211 -2.5621 -0.4673  0.1669
  186SLPC  H18Z21492   1.260   5.736   8.319 -1.6905  0.7583  1.3292
  187SLPC     N21493   2.792   2.883   6.447 -0.3903 -0.4637 -0.1733
  187SLPC   C1321494   2.906   2.787   6.459  0.7451  0.1377  0.5925
  187SLPC  H13A21495   2.996   2.842   6.482 -0.2344  1.4926  1.2054
  187SLPC  H13B21496   2.892   2.717   6.541  3.6423 -0.1146  0.9292
  187SLPC  H13C21497   2.918   2.739   6.363  1.4562  0.0155  0.7348
  187SLPC   C1421498   2.836   2.962   6.332 -0.1755  0.3672 -0.1377
  187SLPC  H14A21499   2.763   3.040   6.320 -0.7314 -0.3077 -1.2177
  187SLPC  H14B21500   2.929   3.017   6.344 -0.1182  0.3477 -0.4826
  187SLPC  H14C21501   2.851   2.914   6.236  1.8561 -1.2912  0.9482
  187SLPC   C1521502   2.786   2.973   6.567 -0.3464 -0.3411 -0.4160
  187SLPC  H15A21503   2.719   3.056   6.550  0.9883  0.8213 -0.0885
  187SLPC  H15B21504   2.754   2.927   6.660 -0.9623 -0.6994 -0.7939
  187SLPC  H15C21505   2.882   3.020   6.579 -0.6318  0.1357  0.0142
  187SLPC   C1221506   2.664   2.808   6.420  0.3763  0.0608 -0.7146
  187SLPC  H12A21507   2.684   2.735   6.344  0.6752  1.0246 -1.5810
  187SLPC  H12B21508   2.595   2.884   6.385 -0.6494  1.1397  3.3872
  187SLPC   C1121509   2.591   2.743   6.533  0.3939 -0.0112 -0.4644
  187SLPC  H11A21510   2.484   2.731   6.504  0.4458  1.9624 -1.5683
  187SLPC  H11B21511   2.573   2.809   6.621 -0.7094  0.4437 -1.0194
  187SLPC     P21512   2.647   2.502   6.477  0.1932  0.1553  0.0345
  187SLPC   O1321513   2.505   2.471   6.453  0.6521 -0.3671  0.1113
  187SLPC   O1421514   2.729   2.523   6.357 -0.0739 -0.0605  0.4307
  187SLPC   O1221515   2.648   2.622   6.573 -0.0834  0.6938  0.2422
  187SLPC   O1121516   2.714   2.388   6.559 -0.5014  0.1165 -0.2694
  187SLPC    C121517   2.645   2.283   6.633  0.7799  0.1811 -0.4838
  187SLPC    HA21518   2.564   2.331   6.692 -0.3444 -2.1149 -0.1042
  187SLPC    HB21519   2.584   2.226   6.560  0.7282  0.1632 -0.4258
  187SLPC    C221520   2.740   2.192   6.713 -0.1261  0.1330  0.2307
  187SLPC    HS21521   2.681   2.108   6.757 -1.0141  0.9758  0.6732
  187SLPC   O2121522   2.810   2.270   6.820  0.2301  0.1886 -0.5081
  187SLPC   C2121523   2.731   2.326   6.906  0.2220 -0.0346 -1.5272
  187SLPC   O2221524   2.611   2.316   6.913 -0.6513 -0.7457  0.5485
  187SLPC   C2221525   2.808   2.412   7.010  0.0422  0.1276 -0.1450
  187SLPC   H2R21526   2.905   2.361   7.026  0.2643  0.8091  0.7476
  187SLPC   H2S21527   2.839   2.506   6.959  0.6026  0.9854  1.7248
  187SLPC    C321528   2.839   2.119   6.613  0.3416  0.5673 -0.3382
  187SLPC    HX21529   2.880   2.194   6.543  0.4704  1.6326  0.8636
  187SLPC    HY21530   2.783   2.045   6.552  2.4307  0.8727 -2.6826
  187SLPC   O3121531   2.939   2.047   6.683 -0.1053 -0.0683 -0.0152
  187SLPC   C3121532   3.050   2.104   6.694  0.0582 -0.3999  0.1912
  187SLPC   O3221533   3.082   2.205   6.630 -0.8743 -0.0676  0.9962
  187SLPC   C3221534   3.139   2.020   6.784  0.3705 -1.0844 -0.5332
  187SLPC   H2X21535   3.165   1.929   6.725  1.7127 -1.1229  0.1056
  187SLPC   H2Y21536   3.086   1.989   6.876 -2.2319  1.8900 -0.9087
  187SLPC   C2321537   2.721   2.438   7.138  0.2016  0.4491 -0.0011
  187SLPC   H3R21538   2.640   2.362   7.136  0.9357 -0.3050 -1.7164
  187SLPC   H3S21539   2.671   2.535   7.118 -0.4341  0.0098 -0.5757
  187SLPC   C2421540   2.804   2.443   7.269 -0.5117 -0.2908  0.7750
  187SLPC   H4R21541   2.878   2.526   7.264 -0.7923 -0.0063  1.2550
  187SLPC   H4S21542   2.866   2.353   7.287 -0.2120 -0.0243  1.0892
  187SLPC   C2521543   2.724   2.462   7.393  0.8249 -0.0264 -0.1112
  187SLPC   H5R21544   2.681   2.563   7.414  1.9644  0.1776  1.3776
  187SLPC   H5S21545   2.792   2.454   7.481 -0.7417  1.7218  1.3091
  187SLPC   C2621546   2.615   2.360   7.408 -0.1544  0.3626 -1.3429
  187SLPC   H6R21547   2.648   2.258   7.378  0.3920  1.1804 -3.5954
  187SLPC   H6S21548   2.523   2.386   7.353 -1.4779 -0.5288  0.3989
  187SLPC   C2721549   2.567   2.362   7.556 -0.1809 -0.5789  0.6857
  187SLPC   H7R21550   2.529   2.465   7.574 -0.9117 -0.6703 -0.3349
  187SLPC   H7S21551   2.653   2.352   7.626  0.4895  2.2553  0.3222
  187SLPC   C2821552   2.451   2.268   7.585  0.2188 -0.0452 -0.9909
  187SLPC   H8R21553   2.482   2.175   7.534  2.7469  0.5277 -0.5426
  187SLPC   H8S21554   2.358   2.295   7.530 -1.3770  0.5922  1.8562
  187SLPC   C2921555   2.421   2.236   7.731 -0.3463  0.5522 -0.4888
  187SLPC   H9R21556   2.473   2.151   7.777  1.5409  2.1762  0.4370
  187SLPC  C21021557   2.354   2.314   7.813  0.2076  0.1730  0.2056
  187SLPC  H10R21558   2.348   2.281   7.918  2.0131  1.3856  0.7050
  187SLPC  C21121559   2.288   2.441   7.779  0.4968 -0.3711 -0.6919
  187SLPC  H11R21560   2.356   2.504   7.718 -1.1640  1.1297 -1.0048
  187SLPC  H11S21561   2.299   2.504   7.870  3.0742  0.4182 -1.4976
  187SLPC  C21221562   2.144   2.411   7.734  0.2147 -0.4835  0.0603
  187SLPC  H12R21563   2.119   2.431   7.628 -1.3844 -3.3520 -0.1543
  187SLPC  C21321564   2.047   2.356   7.808  0.3864 -0.5824 -0.5793
  187SLPC  H13R21565   1.950   2.335   7.761  0.8111 -1.6946 -0.9767
  187SLPC  C21421566   2.050   2.322   7.955 -0.2777  0.4494 -1.0659
  187SLPC  H14R21567   1.966   2.362   8.016  1.2074 -0.0503  1.4245
  187SLPC  H14S21568   2.138   2.361   8.011 -2.3829  2.1842  1.1799
  187SLPC  C21521569   2.059   2.172   7.988  0.0532  0.0908 -0.8983
  187SLPC  H15R21570   2.147   2.126   7.938 -0.3462  0.1047 -1.6242
  187SLPC  H15S21571   1.972   2.120   7.942 -0.3893  0.5634 -0.6038
  187SLPC  C21621572   2.063   2.134   8.138  0.0070 -0.2857 -0.2252
  187SLPC  H16R21573   2.067   2.024   8.153  0.2367 -0.4584 -1.5044
  187SLPC  H16S21574   1.976   2.170   8.198 -0.5063 -2.9617  0.7219
  187SLPC  C21721575   2.188   2.196   8.204 -0.3734  0.4876 -0.8241
  187SLPC  H17R21576   2.176   2.193   8.315  2.6756 -0.0577 -0.4378
  187SLPC  H17S21577   2.201   2.306   8.192  0.1567  0.3666 -1.3825
  187SLPC  C21821578   2.313   2.112   8.181 -0.2013 -0.8293 -0.0091
  187SLPC  H18R21579   2.394   2.152   8.245 -2.1069 -0.4875  2.2680
  187SLPC  H18S21580   2.346   2.122   8.076  2.1199  1.4165  0.8643
  187SLPC  H18T21581   2.301   2.006   8.215 -1.5209  0.7010  4.6986
  187SLPC   C3321582   3.267   2.102   6.830  0.1339 -0.1392  0.0603
  187SLPC   H3X21583   3.325   2.138   6.743  0.3902  0.5539  0.5102
  187SLPC   H3Y21584   3.325   2.023   6.882  1.2894 -1.9772 -3.8287
  187SLPC   C3421585   3.239   2.212   6.938  0.4879  0.1379  0.1023
  187SLPC   H4X21586   3.171   2.292   6.901  0.5412  0.9025  1.6516
  187SLPC   H4Y21587   3.341   2.254   6.949  1.0799 -0.8417 -1.3968
  187SLPC   C3521588   3.197   2.156   7.074  0.7112  0.2670 -0.1558
  187SLPC   H5X21589   3.281   2.094   7.109 -0.3119 -0.9573  0.1741
  187SLPC   H5Y21590   3.103   2.098   7.062  1.7147 -0.9399 -2.4511
  187SLPC   C3621591   3.193   2.263   7.181 -0.2849  0.5470 -0.3220
  187SLPC   H6X21592   3.120   2.340   7.148  0.6004  2.2466  1.6327
  187SLPC   H6Y21593   3.292   2.311   7.177 -0.8913  1.9644  1.3186
  187SLPC   C3721594   3.150   2.218   7.327 -0.0703  0.6178 -0.3255
  187SLPC   H7X21595   3.049   2.173   7.317 -0.7092  1.7212  0.8853
  187SLPC   H7Y21596   3.220   2.138   7.360 -0.2212  0.3304 -0.7015
  187SLPC   C3821597   3.164   2.341   7.421 -0.4379  0.0954 -0.0623
  187SLPC   H8X21598   3.076   2.402   7.393 -2.3743 -2.2599  0.6625
  187SLPC   H8Y21599   3.254   2.396   7.388  0.5516 -0.6527  1.3386
  187SLPC   C3921600   3.170   2.311   7.565 -1.1601  0.6134  0.6969
  187SLPC   H9X21601   3.182   2.405   7.623  0.3790  0.9732 -0.1866
  187SLPC   H9Y21602   3.262   2.253   7.587 -0.0189  2.9882  2.4165
  187SLPC  C31021603   3.055   2.219   7.606  0.0960 -0.1403 -0.3752
  187SLPC  H10X21604   3.068   2.119   7.559  1.2729  0.1739 -0.7374
  187SLPC  H10Y21605   2.962   2.260   7.562 -1.1397 -1.4795  0.9521
  187SLPC  C31121606   3.041   2.193   7.758 -0.2406 -0.3456 -0.0870
  187SLPC  H11X21607   3.104   2.109   7.795  0.3079  0.9343  1.9508
  187SLPC  H11Y21608   2.940   2.150   7.775 -0.1662 -0.4158  0.1760
  187SLPC  C31221609   3.080   2.316   7.848 -0.7346 -0.1774  0.0854
  187SLPC  H12X21610   3.022   2.406   7.819 -2.1544 -1.1696 -0.1799
  187SLPC  H12Y21611   3.187   2.341   7.831  0.4907 -3.9500  1.5783
  187SLPC  C31321612   3.069   2.291   7.998 -0.2138  0.3317  0.1187
  187SLPC  H13X21613   3.152   2.220   8.017 -0.9360 -0.5002  0.2047
  187SLPC  H13Y21614   2.976   2.233   8.014  0.0903 -0.8647 -2.2546
  187SLPC  C31421615   3.085   2.426   8.065  0.0896  0.0269 -0.1336
  187SLPC  H14X21616   3.007   2.497   8.030 -0.5217 -0.7306 -0.3198
  187SLPC  H14Y21617   3.184   2.474   8.046  0.4046 -0.8982 -0.8546
  187SLPC  C31521618   3.068   2.416   8.221  0.0902 -0.7651 -0.1090
  187SLPC  H15X21619   3.163   2.388   8.271  0.8610  0.9373 -0.6151
  187SLPC  H15Y21620   2.995   2.336   8.247  2.2399 -2.4484  0.9043
  187SLPC  C31621621   3.019   2.550   8.280 -0.1487 -0.7056 -0.6229
  187SLPC  H16X21622   2.913   2.565   8.249 -0.1577 -0.2561 -0.3744
  187SLPC  H16Y21623   3.079   2.633   8.238 -1.8918  2.6928  3.2604
  187SLPC  C31721624   3.009   2.547   8.432 -0.0510  0.2308 -0.3394
  187SLPC  H17X21625   2.962   2.641   8.467  1.2821  1.2468 -1.2329
  187SLPC  H17Y21626   3.109   2.541   8.481 -1.3146  0.5956  2.3415
  187SLPC  C31821627   2.936   2.428   8.496  0.2192  0.3299  0.3724
  187SLPC  H18X21628   2.841   2.422   8.440  0.2497  1.4698  0.1833
  187SLPC  H18Y21629   2.916   2.451   8.603  0.2341  0.4873  0.3419
  187SLPC  H18Z21630   2.989   2.331   8.488 -0.5949  0.0937 -2.3811
  188SLPC     N21631   3.782   3.410   6.093  0.2712  0.7759 -0.7330
  188SLPC   C1321632   3.770   3.308   6.199 -0.2846  0.5676  1.0171
  188SLPC  H13A21633   3.853   3.320   6.268  0.8068  1.6428 -0.4610
  188SLPC  H13B21634   3.674   3.322   6.246 -0.4721  0.0708  0.7856
  188SLPC  H13C21635   3.760   3.206   6.164 -0.8702  1.6201 -2.0139
  188SLPC   C1421636   3.664   3.409   6.013 -0.7573 -0.8000 -0.2510
  188SLPC  H14A21637   3.669   3.498   5.952 -1.0459 -0.5421  0.0902
  188SLPC  H14B21638   3.657   3.317   5.957  1.7521  0.1441 -2.2004
  188SLPC  H14C21639   3.578   3.418   6.079  0.4729 -0.8385  1.3777
  188SLPC   C1521640   3.907   3.384   6.011  0.2669 -0.1452  0.4034
  188SLPC  H15A21641   3.909   3.452   5.927  1.3163  0.3837  0.8439
  188SLPC  H15B21642   4.002   3.404   6.057  0.2450  2.4220 -0.5355
  188SLPC  H15C21643   3.903   3.278   5.992 -0.4977  0.0195 -0.3654
  188SLPC   C1221644   3.797   3.540   6.170 -0.1857 -0.3566 -0.5149
  188SLPC  H12A21645   3.823   3.627   6.112 -2.1103  0.5997 -0.0000
  188SLPC  H12B21646   3.883   3.521   6.232  0.2611 -0.3237 -1.1201
  188SLPC   C1121647   3.671   3.586   6.247 -0.2814 -0.6224  0.2647
  188SLPC  H11A21648   3.631   3.515   6.323  0.7326 -0.8800  0.5637
  188SLPC  H11B21649   3.596   3.616   6.170 -0.8909 -0.8728  0.7549
  188SLPC     P21650   3.793   3.698   6.453 -0.0165 -0.1418 -0.3978
  188SLPC   O1321651   3.831   3.557   6.485  0.2655 -0.0662 -0.4790
  188SLPC   O1421652   3.905   3.790   6.436 -0.2053  0.0905  0.2293
  188SLPC   O1221653   3.713   3.706   6.311 -0.0158 -0.3581  0.7639
  188SLPC   O1121654   3.698   3.753   6.562  0.1403 -0.2296 -0.2353
  188SLPC    C121655   3.680   3.900   6.568  0.1493  0.6970  0.3434
  188SLPC    HA21656   3.689   3.957   6.473 -0.9295  1.6073  0.7785
  188SLPC    HB21657   3.582   3.922   6.616  1.2410  0.5112  2.7236
  188SLPC    C221658   3.778   3.965   6.665  0.0709 -0.1417  0.5291
  188SLPC    HS21659   3.881   3.936   6.634  0.5021  0.6388  1.1880
  188SLPC   O2121660   3.751   3.914   6.799  0.1466  0.1387  0.2130
  188SLPC   C2121661   3.841   3.939   6.891 -0.2585 -0.1700 -1.2395
  188SLPC   O2221662   3.942   4.008   6.878 -0.7396  0.4616 -0.2859
  188SLPC   C2221663   3.795   3.882   7.022  0.0344  0.4337 -0.3484
  188SLPC   H2R21664   3.719   3.804   7.002  1.0124 -0.6529  0.1465
  188SLPC   H2S21665   3.880   3.833   7.074 -1.0231  0.4638  1.4722
  188SLPC    C321666   3.771   4.119   6.656  0.1833 -0.1147 -0.3579
  188SLPC    HX21667   3.795   4.177   6.564 -2.1286  1.6025  0.0585
  188SLPC    HY21668   3.844   4.161   6.728 -0.9426  1.4615 -0.1239
  188SLPC   O3121669   3.637   4.155   6.704 -0.4223  0.0537 -0.2985
  188SLPC   C3121670   3.600   4.279   6.687 -0.3637  0.0713 -0.5067
  188SLPC   O3221671   3.658   4.364   6.623  0.3314  0.1276  0.1435
  188SLPC   C3221672   3.466   4.299   6.770  0.8223  0.0396 -1.2023
  188SLPC   H2X21673   3.387   4.250   6.710  0.3724  1.1402 -1.5214
  188SLPC   H2Y21674   3.450   4.409   6.772  1.7424  0.1551  1.2695
  188SLPC   C2321675   3.737   3.990   7.118  0.2082  0.1003  0.1354
  188SLPC   H3R21676   3.638   4.028   7.085  0.0569  0.6113  1.1455
  188SLPC   H3S21677   3.792   4.086   7.120 -1.9778  1.3468  2.6265
  188SLPC   C2421678   3.730   3.932   7.261 -0.5010 -0.0760  0.2293
  188SLPC   H4R21679   3.834   3.907   7.293 -1.4520 -2.6810  1.4422
  188SLPC   H4S21680   3.663   3.844   7.264 -2.1374  1.1128 -0.5651
  188SLPC   C2521681   3.669   4.027   7.361  0.9962 -0.0654  0.2519
  188SLPC   H5R21682   3.561   4.031   7.334  0.5222 -2.4821  1.6294
  188SLPC   H5S21683   3.712   4.127   7.340 -3.1921  2.1644  1.7012
  188SLPC   C2621684   3.693   3.979   7.501 -0.0470  0.4116 -0.0360
  188SLPC   H6R21685   3.804   3.969   7.508 -0.0158  0.8977  0.2239
  188SLPC   H6S21686   3.648   3.878   7.512 -1.6642  1.2195  0.8458
  188SLPC   C2721687   3.649   4.090   7.599 -0.2644  0.2301 -0.4386
  188SLPC   H7R21688   3.561   4.148   7.562  0.5656  0.4997 -2.0547
  188SLPC   H7S21689   3.735   4.159   7.614 -0.0960  0.0982 -0.7882
  188SLPC   C2821690   3.606   4.033   7.738  0.1265 -0.0826  0.4573
  188SLPC   H8R21691   3.530   3.956   7.710 -1.2405  1.2892  0.3384
  188SLPC   H8S21692   3.537   4.103   7.789 -1.3143 -0.3675 -1.0319
  188SLPC   C2921693   3.712   3.980   7.828  0.7770 -0.7936  0.0076
  188SLPC   H9R21694   3.781   3.910   7.779  0.9720 -1.0148  0.5847
  188SLPC  C21021695   3.711   3.988   7.961  0.5747  0.2568  0.1570
  188SLPC  H10R21696   3.794   3.955   8.025  0.0550 -1.7420 -0.1627
  188SLPC  C21121697   3.621   4.056   8.059  0.3298 -0.0940  0.2090
  188SLPC  H11R21698   3.630   4.000   8.154 -1.3187 -0.3491  0.2308
  188SLPC  H11S21699   3.513   4.062   8.036 -0.1303 -1.3998  1.9034
  188SLPC  C21221700   3.672   4.197   8.087  0.5309 -0.0946  0.2603
  188SLPC  H12R21701   3.667   4.259   7.997 -1.6927 -0.5181  0.0427
  188SLPC  C21321702   3.705   4.253   8.208 -0.4181 -0.7894 -0.3467
  188SLPC  H13R21703   3.756   4.350   8.221 -0.1615 -1.1985  1.9922
  188SLPC  C21421704   3.692   4.175   8.341 -0.2146  0.2345  0.4420
  188SLPC  H14R21705   3.783   4.193   8.402 -0.2295  0.1363  0.4937
  188SLPC  H14S21706   3.684   4.065   8.329 -0.6536  0.4507 -1.3045
  188SLPC  C21521707   3.573   4.223   8.436 -0.1516 -0.6606  0.0226
  188SLPC  H15R21708   3.547   4.144   8.510  0.0142 -0.7094  0.0284
  188SLPC  H15S21709   3.482   4.234   8.373  0.5185 -0.0809 -0.8531
  188SLPC  C21621710   3.605   4.360   8.495  0.0544  0.0159 -0.0927
  188SLPC  H16R21711   3.504   4.405   8.508  0.7436  1.9970 -1.3143
  188SLPC  H16S21712   3.654   4.419   8.414  0.1941 -2.4659 -1.8807
  188SLPC  C21721713   3.679   4.374   8.619 -0.4204 -0.8708  0.2910
  188SLPC  H17R21714   3.789   4.366   8.602 -0.2579 -1.5464  1.6031
  188SLPC  H17S21715   3.653   4.289   8.686 -2.5090 -1.7024 -1.5354
  188SLPC  C21821716   3.657   4.507   8.684  0.2835 -0.2111 -0.7536
  188SLPC  H18R21717   3.703   4.586   8.621 -0.9875  1.0644 -0.1044
  188SLPC  H18S21718   3.699   4.514   8.786 -0.0474  2.6158 -0.7712
  188SLPC  H18T21719   3.550   4.537   8.690  0.3141  0.9988 -4.5898
  188SLPC   C3321720   3.480   4.241   6.906  0.3568  0.1850  0.3561
  188SLPC   H3X21721   3.572   4.264   6.965 -1.4470  2.2630  2.4700
  188SLPC   H3Y21722   3.492   4.131   6.894 -0.1232 -0.0107  1.5924
  188SLPC   C3421723   3.363   4.279   7.002 -0.3294  0.0857  0.7592
  188SLPC   H4X21724   3.258   4.279   6.965 -0.0907  0.4672  0.0575
  188SLPC   H4Y21725   3.387   4.385   7.025  1.6454  0.1921 -1.6378
  188SLPC   C3521726   3.365   4.222   7.149  0.1704  0.1484  0.5186
  188SLPC   H5X21727   3.472   4.210   7.177 -0.2637 -2.1165  1.2968
  188SLPC   H5Y21728   3.310   4.127   7.161 -1.0371  0.8886  1.0072
  188SLPC   C3621729   3.299   4.308   7.255  0.4652  0.0216  0.0528
  188SLPC   H6X21730   3.192   4.278   7.265  0.7564 -0.6152  1.2996
  188SLPC   H6Y21731   3.311   4.415   7.226 -0.6042  0.5903  1.6663
  188SLPC   C3721732   3.366   4.293   7.398  0.1554  0.4286 -0.9945
  188SLPC   H7X21733   3.472   4.321   7.379  0.4162  0.0792 -0.0759
  188SLPC   H7Y21734   3.360   4.183   7.415 -2.2704  0.6462 -0.3195
  188SLPC   C3821735   3.310   4.378   7.511 -0.0569 -0.3331  0.1680
  188SLPC   H8X21736   3.211   4.338   7.541  0.5067  0.5268  3.2546
  188SLPC   H8Y21737   3.299   4.480   7.468  2.0442 -0.4277 -0.6447
  188SLPC   C3921738   3.402   4.388   7.631 -0.1384  0.7925 -0.6723
  188SLPC   H9X21739   3.495   4.435   7.594  0.6966  1.7361  2.4106
  188SLPC   H9Y21740   3.417   4.283   7.665  1.6562  0.7918 -1.4431
  188SLPC  C31021741   3.330   4.475   7.733 -0.4448 -0.3901  0.2244
  188SLPC  H10X21742   3.223   4.448   7.747 -0.6232  0.2042  0.0087
  188SLPC  H10Y21743   3.329   4.582   7.704 -1.9856 -0.2652  0.6890
  188SLPC  C31121744   3.387   4.458   7.872 -0.2172  0.6040 -0.3076
  188SLPC  H11X21745   3.496   4.481   7.870 -0.4868  2.0323  0.7945
  188SLPC  H11Y21746   3.355   4.364   7.922 -0.9497  1.9847  1.9054
  188SLPC  C31221747   3.326   4.559   7.970 -0.7309  0.3705  0.7826
  188SLPC  H12X21748   3.217   4.554   7.950 -0.4339 -0.8772 -0.5746
  188SLPC  H12Y21749   3.358   4.663   7.948 -1.0804  0.4719  0.7509
  188SLPC  C31321750   3.360   4.529   8.115 -0.3393  0.1927 -0.0626
  188SLPC  H13X21751   3.462   4.570   8.132 -1.2219  1.4955  2.3576
  188SLPC  H13Y21752   3.381   4.423   8.141  1.8940  0.6883  0.1933
  188SLPC  C31421753   3.258   4.590   8.213 -0.3180 -0.0229  0.3632
  188SLPC  H14X21754   3.167   4.527   8.211  1.3081 -2.4468  1.1738
  188SLPC  H14Y21755   3.224   4.686   8.168 -0.1772 -0.2602 -0.2389
  188SLPC  C31521756   3.312   4.610   8.353 -0.5008 -0.7053  0.0370
  188SLPC  H15X21757   3.405   4.671   8.355 -0.5197 -0.7027  0.7595
  188SLPC  H15Y21758   3.329   4.508   8.394  0.4839 -0.2962  0.6433
  188SLPC  C31621759   3.201   4.669   8.445 -0.1323  0.4912  0.1020
  188SLPC  H16X21760   3.126   4.588   8.452  1.3572 -1.0813 -1.4943
  188SLPC  H16Y21761   3.151   4.758   8.402 -1.4091 -0.7808 -1.0646
  188SLPC  C31721762   3.253   4.711   8.579  0.4587 -0.6513  0.0317
  188SLPC  H17X21763   3.329   4.788   8.552 -0.1473 -0.2288 -0.4814
  188SLPC  H17Y21764   3.300   4.620   8.623 -2.1436 -0.1709  4.1575
  188SLPC  C31821765   3.155   4.770   8.687 -0.3401 -0.2459  0.3742
  188SLPC  H18X21766   3.185   4.774   8.794  0.5085  0.5624  0.1111
  188SLPC  H18Y21767   3.066   4.703   8.687 -0.2038 -0.4267  1.1846
  188SLPC  H18Z21768   3.142   4.878   8.663  1.3149  0.1658  1.2489
  189SLPC     N21769   6.380   6.155   5.978 -0.4128  0.0490  0.1774
  189SLPC   C1321770   6.428   6.126   6.120 -0.0125  0.0455  0.0245
  189SLPC  H13A21771   6.365   6.175   6.193  0.4739  1.2114 -0.3275
  189SLPC  H13B21772   6.415   6.022   6.147 -1.2911  0.2036  0.0701
  189SLPC  H13C21773   6.532   6.153   6.132  0.8879 -3.0130 -0.3894
  189SLPC   C1421774   6.466   6.076   5.887  0.0085 -0.0775  0.7858
  189SLPC  H14A21775   6.571   6.094   5.908 -0.2736  0.5092  1.7180
  189SLPC  H14B21776   6.443   5.971   5.899 -0.9141  0.1201  0.7192
  189SLPC  H14C21777   6.442   6.109   5.787  0.7222 -5.3559 -1.3049
  189SLPC   C1521778   6.412   6.300   5.954 -0.8030 -0.3180  0.0424
  189SLPC  H15A21779   6.352   6.364   6.017  3.3335 -0.4288  4.2697
  189SLPC  H15B21780   6.512   6.318   5.988 -0.6795  1.8182 -1.3370
  189SLPC  H15C21781   6.406   6.321   5.848  0.3370  1.4897  0.3203
  189SLPC   C1221782   6.229   6.136   5.952 -0.4861  0.1624 -0.3603
  189SLPC  H12A21783   6.224   6.191   5.859  0.3767 -1.1396 -1.1839
  189SLPC  H12B21784   6.175   6.192   6.028 -0.1593 -0.1029  0.0694
  189SLPC   C1121785   6.180   5.993   5.933 -0.3398  0.3427 -0.2707
  189SLPC  H11A21786   6.241   5.936   5.860 -1.7863 -0.2476 -1.0440
  189SLPC  H11B21787   6.082   5.988   5.881 -1.0407 -1.5201  1.1514
  189SLPC     P21788   6.057   5.962   6.165 -0.2253 -0.0407 -0.4125
  189SLPC   O1321789   6.068   6.109   6.200  0.2667 -0.3361  0.0421
  189SLPC   O1421790   5.923   5.922   6.111  0.1593  0.2519  0.1997
  189SLPC   O1221791   6.168   5.927   6.058  0.2426  0.0918 -0.1818
  189SLPC   O1121792   6.104   5.876   6.289  0.1846 -0.1927  0.4424
  189SLPC    C121793   6.034   5.756   6.318  0.6539  0.3532 -0.4887
  189SLPC    HA21794   6.008   5.700   6.226  0.5860  0.7044 -0.6835
  189SLPC    HB21795   6.095   5.696   6.390  0.6681  0.6760 -0.2327
  189SLPC    C221796   5.902   5.803   6.393 -0.3086 -0.1335  0.4606
  189SLPC    HS21797   5.882   5.909   6.368  1.4444 -0.3407 -1.9546
  189SLPC   O2121798   5.923   5.782   6.532 -0.2070 -0.3273  0.4539
  189SLPC   C2121799   5.997   5.863   6.600  0.3740 -0.1834  0.0269
  189SLPC   O2221800   6.047   5.969   6.562 -0.3171  0.5026 -0.1176
  189SLPC   C2221801   6.003   5.818   6.750 -0.5301  0.8941 -0.3639
  189SLPC   H2R21802   5.933   5.733   6.767 -0.7005  1.6179  2.8636
  189SLPC   H2S21803   6.104   5.788   6.784 -1.1922 -3.4822 -1.9982
  189SLPC    C321804   5.773   5.726   6.350 -0.5985 -0.9327  0.0888
  189SLPC    HX21805   5.779   5.621   6.385 -2.3010 -0.9073  0.4861
  189SLPC    HY21806   5.780   5.730   6.239  1.1250 -1.1992  0.1769
  189SLPC   O3121807   5.654   5.795   6.403  0.5852  0.6393  0.1760
  189SLPC   C3121808   5.542   5.723   6.395  0.8228  0.7624 -0.1519
  189SLPC   O3221809   5.546   5.612   6.339 -0.3968 -0.1669 -0.0969
  189SLPC   C3221810   5.428   5.792   6.459  0.6604 -0.1157  0.3851
  189SLPC   H2X21811   5.355   5.723   6.506 -0.3861  0.5607 -0.2381
  189SLPC   H2Y21812   5.372   5.830   6.371  2.6643  0.5253 -0.6487
  189SLPC   C2321813   5.965   5.932   6.845  0.2779 -0.2340  0.7409
  189SLPC   H3R21814   5.863   5.972   6.826  0.3969 -0.4178 -0.3187
  189SLPC   H3S21815   6.043   6.011   6.835  1.4095 -1.5118 -0.7393
  189SLPC   C2421816   5.987   5.894   6.995 -1.0528  0.7224  0.1978
  189SLPC   H4R21817   6.095   5.907   7.018 -1.5075  2.1176  1.6444
  189SLPC   H4S21818   5.956   5.791   7.021 -0.0959  0.6671  1.1636
  189SLPC   C2521819   5.897   5.979   7.085 -0.1871 -0.3629 -0.0558
  189SLPC   H5R21820   5.904   5.937   7.188 -0.1704 -0.6680 -0.1801
  189SLPC   H5S21821   5.794   5.969   7.045  0.2103  0.0157 -1.1763
  189SLPC   C2621822   5.934   6.131   7.091 -0.4156 -0.4771 -0.3778
  189SLPC   H6R21823   5.946   6.172   6.988  1.0111  0.4567  0.1438
  189SLPC   H6S21824   6.035   6.139   7.137 -0.5264  1.5389 -0.4700
  189SLPC   C2721825   5.843   6.225   7.177 -0.4643  0.7555 -0.6781
  189SLPC   H7R21826   5.745   6.244   7.128 -1.9448  0.2571  2.0499
  189SLPC   H7S21827   5.904   6.318   7.185 -2.6167  2.2649 -1.2813
  189SLPC   C2821828   5.823   6.158   7.316 -0.0044  0.3328 -0.3159
  189SLPC   H8R21829   5.924   6.121   7.345 -0.2576 -1.2281 -1.3237
  189SLPC   H8S21830   5.751   6.074   7.309 -0.6264  0.6077  2.2878
  189SLPC   C2921831   5.766   6.253   7.415  0.5431  0.3496 -0.6802
  189SLPC   H9R21832   5.695   6.323   7.370  0.3079  1.0307  0.7129
  189SLPC  C21021833   5.795   6.270   7.548 -0.7366 -0.5589  0.7648
  189SLPC  H10R21834   5.732   6.330   7.614 -0.3636  1.3738 -0.5907
  189SLPC  C21121835   5.900   6.182   7.611 -0.0913  0.3804 -0.5232
  189SLPC  H11R21836   5.970   6.138   7.537 -0.6900 -0.5532 -0.5393
  189SLPC  H11S21837   5.857   6.103   7.676 -1.3775 -0.3621 -2.2504
  189SLPC  C21221838   5.989   6.270   7.698 -0.0313  0.4872  0.1001
  189SLPC  H12R21839   6.066   6.325   7.642  1.8232  1.2749  3.3334
  189SLPC  C21321840   5.960   6.303   7.828  0.6703  0.0543 -0.6308
  189SLPC  H13R21841   6.026   6.367   7.887  0.9896 -0.4163 -0.4756
  189SLPC  C21421842   5.826   6.261   7.897 -0.0985  0.2425 -0.8903
  189SLPC  H14R21843   5.837   6.152   7.914 -2.5616 -0.0083 -0.6689
  189SLPC  H14S21844   5.746   6.281   7.823 -0.5097  2.2527  0.0588
  189SLPC  C21521845   5.794   6.315   8.039  0.5649 -0.2636 -0.2414
  189SLPC  H15R21846   5.877   6.287   8.106  0.7984 -0.3017 -0.5463
  189SLPC  H15S21847   5.702   6.260   8.069 -0.5013  0.1975 -2.5030
  189SLPC  C21621848   5.764   6.467   8.019 -0.4146  0.1725  0.5770
  189SLPC  H16R21849   5.719   6.485   7.919 -1.1514  0.6187  0.9863
  189SLPC  H16S21850   5.851   6.537   8.018 -0.2704 -0.0102  0.2413
  189SLPC  C21721851   5.648   6.510   8.104 -0.3108  0.3165  0.4654
  189SLPC  H17R21852   5.572   6.428   8.100  1.1871 -1.1830  2.0612
  189SLPC  H17S21853   5.606   6.599   8.053 -0.0867 -1.0354 -2.1723
  189SLPC  C21821854   5.667   6.556   8.246 -0.0854  0.0935  0.5399
  189SLPC  H18R21855   5.726   6.648   8.233 -0.4153  0.1159 -0.8962
  189SLPC  H18S21856   5.728   6.487   8.309  0.7350  0.0694 -0.2844
  189SLPC  H18T21857   5.566   6.586   8.283 -2.2474 -2.5044 -2.9180
  189SLPC   C3321858   5.452   5.921   6.544 -0.2628  0.0014  0.6076
  189SLPC   H3X21859   5.360   5.983   6.558 -0.7084 -0.3509 -0.6619
  189SLPC   H3Y21860   5.517   5.991   6.487 -1.8506  0.5525 -0.5979
  189SLPC   C3421861   5.509   5.887   6.691 -0.4900 -0.6314 -0.4652
  189SLPC   H4X21862   5.616   5.860   6.681 -0.6568 -2.1401  1.4425
  189SLPC   H4Y21863   5.459   5.796   6.730 -1.3967 -0.4124 -1.0830
  189SLPC   C3521864   5.486   5.999   6.791  0.3899 -0.6938 -0.2759
  189SLPC   H5X21865   5.377   6.019   6.782  0.4895  0.5992  1.1579
  189SLPC   H5Y21866   5.534   6.094   6.759  0.6316 -0.7996 -0.2340
  189SLPC   C3621867   5.523   5.942   6.926  0.0154 -0.3052 -0.4549
  189SLPC   H6X21868   5.631   5.920   6.928  0.1301  0.0058 -2.1968
  189SLPC   H6Y21869   5.462   5.851   6.945 -0.5556 -0.2211 -1.7936
  189SLPC   C3721870   5.487   6.042   7.040 -0.0795 -0.5891  0.3259
  189SLPC   H7X21871   5.514   6.141   6.999  1.1935 -0.8115  0.5948
  189SLPC   H7Y21872   5.549   6.021   7.131 -0.9941  2.1398  1.6361
  189SLPC   C3821873   5.341   6.040   7.086  0.3535  0.6327  0.6091
  189SLPC   H8X21874   5.316   5.940   7.128 -0.3516  1.5072  2.3001
  189SLPC   H8Y21875   5.273   6.057   7.000 -1.3263 -2.2298  1.2767
  189SLPC   C3921876   5.307   6.136   7.196  0.2832 -1.1109 -0.2691
  189SLPC   H9X21877   5.199   6.123   7.218  0.5268 -2.4571  0.1540
  189SLPC   H9Y21878   5.332   6.236   7.154 -3.8678 -0.3217 -1.0337
  189SLPC  C31021879   5.374   6.109   7.324 -0.1873 -0.3002  0.3955
  189SLPC  H10X21880   5.476   6.152   7.325  0.1908 -1.1027 -1.5804
  189SLPC  H10Y21881   5.377   5.999   7.344  1.5744 -0.5146 -0.9678
  189SLPC  C31121882   5.302   6.167   7.445 -0.1609  0.1470 -0.3286
  189SLPC  H11X21883   5.195   6.137   7.447  0.1556 -0.9965  0.2224
  189SLPC  H11Y21884   5.296   6.277   7.435 -1.9171 -0.0145 -1.2100
  189SLPC  C31221885   5.369   6.140   7.582  0.4280  0.0636  0.4706
  189SLPC  H12X21886   5.469   6.187   7.595 -0.3712  1.4773  1.5711
  189SLPC  H12Y21887   5.391   6.031   7.594 -1.1001 -0.3630 -0.4530
  189SLPC  C31321888   5.286   6.177   7.712  0.4780  0.3323  0.1773
  189SLPC  H13X21889   5.184   6.136   7.699 -0.0339  1.2483  1.1563
  189SLPC  H13Y21890   5.279   6.288   7.719 -0.6932  0.1435  2.4498
  189SLPC  C31421891   5.360   6.135   7.839  0.1343  0.1528 -0.3952
  189SLPC  H14X21892   5.462   6.179   7.841 -0.2417  1.0179  0.1721
  189SLPC  H14Y21893   5.371   6.024   7.835  0.1751  0.1782 -0.9862
  189SLPC  C31521894   5.299   6.176   7.975 -0.4052 -0.1040  0.3862
  189SLPC  H15X21895   5.349   6.130   8.062  1.2390  0.8415 -0.0441
  189SLPC  H15Y21896   5.194   6.139   7.973  0.6385 -3.1273 -0.1056
  189SLPC  C31621897   5.295   6.332   8.004 -0.8639  0.6471  0.1415
  189SLPC  H16X21898   5.214   6.383   7.948 -0.8733  1.3492  0.7913
  189SLPC  H16Y21899   5.390   6.363   7.956  0.1872 -0.1486  1.6602
  189SLPC  C31721900   5.299   6.362   8.157  0.5209  0.1017 -0.0771
  189SLPC  H17X21901   5.270   6.467   8.180 -2.1127 -0.2387 -1.6070
  189SLPC  H17Y21902   5.390   6.332   8.212 -0.4704 -2.4231  0.2561
  189SLPC  C31821903   5.181   6.289   8.224  1.2574  0.0090 -0.3653
  189SLPC  H18X21904   5.090   6.335   8.180  1.8259  0.7910 -0.7261
  189SLPC  H18Y21905   5.189   6.299   8.334 -0.6829 -2.3886  0.0406
  189SLPC  H18Z21906   5.183   6.179   8.209 -2.7966 -0.3377  1.0310
  190SLPC     N21907   6.207   5.302   6.183 -0.2172 -0.0124 -0.3060
  190SLPC   C1321908   6.161   5.284   6.038  0.0372  0.4595  0.4441
  190SLPC  H13A21909   6.111   5.188   6.031  0.5480  0.3600 -2.3587
  190SLPC  H13B21910   6.101   5.363   5.996 -1.0136  0.0004  1.0558
  190SLPC  H13C21911   6.243   5.264   5.970  1.5950 -0.1403  2.4372
  190SLPC   C1421912   6.291   5.424   6.196 -0.1130  0.2929 -0.1731
  190SLPC  H14A21913   6.313   5.445   6.299 -1.6837  0.6783  0.0892
  190SLPC  H14B21914   6.383   5.396   6.146  0.6820 -0.5832  1.7459
  190SLPC  H14C21915   6.256   5.508   6.138 -0.3312  0.4937  0.2551
  190SLPC   C1521916   6.292   5.187   6.212 -0.4461 -0.5713  0.1239
  190SLPC  H15A21917   6.316   5.187   6.317  0.6376  2.2793 -0.0801
  190SLPC  H15B21918   6.232   5.098   6.196 -0.0712 -0.8874  0.4662
  190SLPC  H15C21919   6.383   5.184   6.153 -0.0497 -0.4441  0.7224
  190SLPC   C1221920   6.085   5.323   6.274 -0.9360  0.3462  0.3891
  190SLPC  H12A21921   5.997   5.350   6.217 -0.6146  0.6173  0.0164
  190SLPC  H12B21922   6.104   5.407   6.339  0.5184  0.1921  0.1852
  190SLPC   C1121923   6.048   5.206   6.363 -0.4189  0.5420  0.1490
  190SLPC  H11A21924   5.958   5.235   6.421  0.1087  1.3485  0.5636
  190SLPC  H11B21925   6.139   5.178   6.419  0.5242 -0.2792 -1.7261
  190SLPC     P21926   6.027   4.951   6.359  0.2510  0.1450  0.1604
  190SLPC   O1321927   5.914   4.869   6.315 -0.1133 -0.1824 -0.0439
  190SLPC   O1421928   6.166   4.904   6.324 -0.0386  0.0449 -0.0482
  190SLPC   O1221929   6.009   5.090   6.285  0.0456 -0.1004 -0.3266
  190SLPC   O1121930   6.011   4.997   6.519  0.5277  0.0482  0.3524
  190SLPC    C121931   5.890   5.011   6.580  0.4838  0.7435  0.5107
  190SLPC    HA21932   5.818   5.075   6.525 -2.4708 -2.1000  0.8918
  190SLPC    HB21933   5.844   4.910   6.579  1.5583  0.2477 -0.3990
  190SLPC    C221934   5.900   5.068   6.727  0.6834 -0.2572 -0.3939
  190SLPC    HS21935   5.914   5.178   6.720  0.3362 -0.0782  1.3533
  190SLPC   O2121936   5.994   4.991   6.806 -0.2291 -0.2071 -0.3199
  190SLPC   C2121937   6.067   5.060   6.888 -0.0889  0.0463 -0.3221
  190SLPC   O2221938   6.056   5.177   6.912  0.6559 -0.0687 -0.1505
  190SLPC   C2221939   6.176   4.974   6.954  0.2910  0.1985  0.1521
  190SLPC   H2R21940   6.132   4.874   6.978 -0.5912  0.1162 -1.6694
  190SLPC   H2S21941   6.257   4.961   6.879 -0.1246 -0.7665 -0.1488
  190SLPC    C321942   5.758   5.058   6.792  0.5752  0.2550  0.1204
  190SLPC    HX21943   5.711   4.962   6.765  1.9988 -0.4334  0.0213
  190SLPC    HY21944   5.688   5.130   6.745  0.8123  0.8580  0.6718
  190SLPC   O3121945   5.769   5.080   6.940  0.3532  0.2117 -0.2964
  190SLPC   C3121946   5.672   5.153   7.005 -0.6515 -0.3572 -0.2632
  190SLPC   O3221947   5.577   5.205   6.949 -0.1180 -0.2951 -0.2506
  190SLPC   C3221948   5.705   5.162   7.158  0.0312  0.1315  0.8823
  190SLPC   H2X21949   5.796   5.227   7.166 -0.6022  0.9521  1.5392
  190SLPC   H2Y21950   5.725   5.064   7.204 -0.8057 -0.5798 -0.2452
  190SLPC   C2321951   6.242   5.036   7.083  0.2596 -0.5254  0.5555
  190SLPC   H3R21952   6.275   5.140   7.058  1.3124 -0.0802  3.5430
  190SLPC   H3S21953   6.331   4.985   7.125 -0.1828 -0.1379  1.9623
  190SLPC   C2421954   6.147   5.045   7.206  0.5040 -0.3032  0.3281
  190SLPC   H4R21955   6.060   5.112   7.188  0.4117 -0.2265  1.0519
  190SLPC   H4S21956   6.195   5.086   7.297 -2.1178  0.0929  1.5802
  190SLPC   C2521957   6.085   4.912   7.247  0.4615  0.4653  0.6363
  190SLPC   H5R21958   6.166   4.836   7.250  0.6904  0.4538 -3.5852
  190SLPC   H5S21959   6.005   4.882   7.176 -2.6638  0.1256  4.1068
  190SLPC   C2621960   6.029   4.904   7.392 -0.4510 -0.1703 -0.3479
  190SLPC   H6R21961   6.111   4.923   7.464  1.4377 -1.3912 -2.1144
  190SLPC   H6S21962   6.003   4.798   7.407  1.6905 -0.6538  0.0397
  190SLPC   C2721963   5.920   5.003   7.413  0.3463 -0.2096 -0.4484
  190SLPC   H7R21964   5.839   4.973   7.344 -1.3749 -1.5251  2.0595
  190SLPC   H7S21965   5.953   5.108   7.395 -1.9724  0.8899  1.3885
  190SLPC   C2821966   5.854   4.984   7.552  0.2009 -0.0368 -0.0350
  190SLPC   H8R21967   5.827   4.877   7.566 -0.6116 -0.2836 -3.1079
  190SLPC   H8S21968   5.758   5.041   7.550 -0.4748 -1.1872 -0.8542
  190SLPC   C2921969   5.926   5.030   7.671  0.0376  0.2256  0.3067
  190SLPC   H9R21970   6.011   5.097   7.654 -0.4626  0.7036 -0.3317
  190SLPC  C21021971   5.889   5.007   7.800  0.5195  0.3778  0.1595
  190SLPC  H10R21972   5.952   5.058   7.875 -1.3933  2.5160  0.3443
  190SLPC  C21121973   5.776   4.922   7.855  0.3967 -0.6263  0.0386
  190SLPC  H11R21974   5.818   4.852   7.930 -1.7560  0.4376  2.2995
  190SLPC  H11S21975   5.730   4.861   7.774 -1.4460 -0.9435  1.2911
  190SLPC  C21221976   5.665   4.999   7.915 -0.3386 -0.2524 -0.4737
  190SLPC  H12R21977   5.592   5.024   7.836  0.4626 -1.6333 -1.6726
  190SLPC  C21321978   5.637   5.021   8.049  0.7132  0.4651  1.0428
  190SLPC  H13R21979   5.562   5.096   8.079 -1.4472 -0.1176 -2.5945
  190SLPC  C21421980   5.708   4.962   8.169 -1.1103 -0.6365  0.3109
  190SLPC  H14R21981   5.812   4.936   8.140 -1.9841 -2.2193 -1.5059
  190SLPC  H14S21982   5.665   4.863   8.196  1.9850 -3.0704 -3.1719
  190SLPC  C21521983   5.712   5.053   8.297 -0.2649 -0.5653 -0.4291
  190SLPC  H15R21984   5.749   5.149   8.256 -0.0407 -0.3529  0.2757
  190SLPC  H15S21985   5.782   5.016   8.375  0.6358 -0.9546 -1.4146
  190SLPC  C21621986   5.576   5.065   8.363  0.0894  0.1001  0.4160
  190SLPC  H16R21987   5.513   5.119   8.289  1.5584  3.8101  1.7608
  190SLPC  H16S21988   5.581   5.130   8.453 -0.5024  0.8596 -0.0961
  190SLPC  C21721989   5.510   4.939   8.423  0.3191  0.3192 -0.0149
  190SLPC  H17R21990   5.575   4.879   8.490 -1.3215 -2.6726 -0.9798
  190SLPC  H17S21991   5.474   4.863   8.350  1.5921 -0.4471  0.1365
  190SLPC  C21821992   5.391   4.979   8.510 -0.5498  0.8255  0.2616
  190SLPC  H18R21993   5.370   4.886   8.566  3.0465 -0.5847 -0.6068
  190SLPC  H18S21994   5.302   5.011   8.450 -1.6919 -0.8282  1.0520
  190SLPC  H18T21995   5.418   5.057   8.584  2.5986 -0.7579  0.8516
  190SLPC   C3321996   5.577   5.218   7.236  0.2716 -0.1684  0.2321
  190SLPC   H3X21997   5.489   5.150   7.235  0.3459 -0.2472 -0.6986
  190SLPC   H3Y21998   5.543   5.310   7.184 -1.5682 -2.9232 -3.6955
  190SLPC   C3421999   5.597   5.251   7.386 -0.3406 -0.2863  0.4755
  190SLPC   H4X22000   5.687   5.315   7.395 -1.0802  1.0084 -1.0096
  190SLPC   H4Y22001   5.607   5.155   7.441  1.1795 -0.8092 -0.7048
  190SLPC   C3522002   5.474   5.321   7.444  0.8362 -0.1190  0.7609
  190SLPC   H5X22003   5.397   5.243   7.463  2.1109 -1.4010  0.7184
  190SLPC   H5Y22004   5.428   5.390   7.371  1.0438  0.0706  0.8097
  190SLPC   C3622005   5.500   5.400   7.569 -0.3191 -0.2186  0.8942
  190SLPC   H6X22006   5.404   5.435   7.614 -0.3511  1.2971 -0.3220
  190SLPC   H6Y22007   5.563   5.488   7.548  0.2014 -1.2560 -2.1086
  190SLPC   C3722008   5.580   5.317   7.672  1.0098  0.4920 -0.0012
  190SLPC   H7X22009   5.668   5.274   7.618  0.9048 -1.5933  1.4182
  190SLPC   H7Y22010   5.509   5.240   7.710 -1.0618  0.9192 -2.8636
  190SLPC   C3822011   5.629   5.402   7.788 -0.0406  0.7412 -0.4082
  190SLPC   H8X22012   5.697   5.480   7.749  1.5067 -1.0487 -1.3223
  190SLPC   H8Y22013   5.700   5.334   7.839 -0.1740  1.0226  0.1564
  190SLPC   C3922014   5.516   5.449   7.884 -0.1602  0.9927  1.8917
  190SLPC   H9X22015   5.437   5.372   7.878 -0.4772  1.4285 -0.3823
  190SLPC   H9Y22016   5.473   5.542   7.839 -0.2065 -0.7450 -1.8842
  190SLPC  C31022017   5.562   5.462   8.026  0.7433  0.5822  0.4652
  190SLPC  H10X22018   5.649   5.530   8.040  0.4971  0.9402  0.2448
  190SLPC  H10Y22019   5.612   5.367   8.056 -1.0902 -1.2705 -2.1851
  190SLPC  C31122020   5.444   5.491   8.119  0.1665  0.8388  0.2489
  190SLPC  H11X22021   5.485   5.495   8.223  0.7781  1.4556 -0.0160
  190SLPC  H11Y22022   5.378   5.401   8.112  0.4775  0.6541 -0.3046
  190SLPC  C31222023   5.370   5.624   8.090 -0.3773  0.3664  0.2315
  190SLPC  H12X22024   5.305   5.620   8.000  0.6480  1.4347 -0.5726
  190SLPC  H12Y22025   5.447   5.702   8.075 -0.1163  0.7948  3.3729
  190SLPC  C31322026   5.284   5.671   8.211  0.1501  0.3075 -0.6565
  190SLPC  H13X22027   5.246   5.571   8.241 -0.3000  1.3605  2.3961
  190SLPC  H13Y22028   5.200   5.735   8.180 -0.2945 -1.3366 -3.0080
  190SLPC  C31422029   5.360   5.739   8.330  0.7097  0.1487  0.1222
  190SLPC  H14X22030   5.441   5.669   8.358  0.4936 -1.0363 -2.0838
  190SLPC  H14Y22031   5.290   5.743   8.417  0.1993  0.2833 -0.2879
  190SLPC  C31522032   5.401   5.889   8.299 -0.0308 -0.6047  0.7122
  190SLPC  H15X22033   5.395   5.898   8.188  3.4022 -1.8292  0.3866
  190SLPC  H15Y22034   5.509   5.897   8.321 -0.7842  1.8723  3.8492
  190SLPC  C31622035   5.311   5.995   8.360  0.3416 -0.0932 -0.6252
  190SLPC  H16X22036   5.210   5.949   8.352  0.7973 -0.9600 -1.4731
  190SLPC  H16Y22037   5.327   6.092   8.309  1.2842  0.2694  0.3450
  190SLPC  C31722038   5.345   6.006   8.512 -0.4603 -0.3227  0.7079
  190SLPC  H17X22039   5.335   5.908   8.563 -0.9389 -1.4001 -1.3986
  190SLPC  H17Y22040   5.288   6.084   8.567  1.7012  0.3877  2.0159
  190SLPC  C31822041   5.486   6.045   8.541  0.0348 -0.7685  0.1505
  190SLPC  H18X22042   5.497   6.064   8.650 -0.2076  1.9055 -0.2531
  190SLPC  H18Y22043   5.524   6.133   8.483  0.6170 -1.4322 -0.4934
  190SLPC  H18Z22044   5.565   5.970   8.517  2.0774  1.2640  0.2329
  191SLPC     N22045   4.768   0.224   5.834  0.7959  0.7975 -0.3046
  191SLPC   C1322046   4.864   0.241   5.716 -0.1349 -0.0590  0.7161
  191SLPC  H13A22047   4.905   0.341   5.717  2.2385 -1.0104  1.2054
  191SLPC  H13B22048   4.940   0.165   5.716 -0.3789 -0.3302  3.2198
  191SLPC  H13C22049   4.831   0.243   5.613 -1.7440  0.8583  1.2319
  191SLPC   C1422050   4.699   0.091   5.826  0.5117  0.0516  0.1053
  191SLPC  H14A22051   4.649   0.059   5.916  0.1878  0.4210  0.0578
  191SLPC  H14B22052   4.634   0.077   5.740 -0.4126 -0.3944  0.8583
  191SLPC  H14C22053   4.778   0.018   5.819  0.3534 -0.4264  2.8997
  191SLPC   C1522054   4.660   0.328   5.821 -0.3884  0.1265  0.1458
  191SLPC  H15A22055   4.594   0.336   5.906 -1.9881 -0.7567 -0.9876
  191SLPC  H15B22056   4.712   0.419   5.796  0.0434 -0.5565 -1.5387
  191SLPC  H15C22057   4.597   0.301   5.737  1.1688 -3.2909 -0.0176
  191SLPC   C1222058   4.838   0.232   5.969  0.2423 -0.3764  0.7368
  191SLPC  H12A22059   4.915   0.307   5.956 -1.9110  1.4994 -1.8632
  191SLPC  H12B22060   4.892   0.139   5.970 -0.5492 -0.8275  1.4770
  191SLPC   C1122061   4.755   0.249   6.096  0.3179 -0.2706  0.4226
  191SLPC  H11A22062   4.812   0.239   6.191  1.7297  0.7313 -0.2965
  191SLPC  H11B22063   4.672   0.176   6.094 -0.7045  0.9001 -0.6904
  191SLPC     P22064   4.780   0.500   6.163  0.0069  0.1319  0.6868
  191SLPC   O1322065   4.921   0.478   6.134  0.0522  0.2453 -0.7251
  191SLPC   O1422066   4.719   0.620   6.101  0.7708  0.0913 -0.3005
  191SLPC   O1222067   4.691   0.379   6.109 -0.3162  0.5081 -0.0448
  191SLPC   O1122068   4.750   0.495   6.313  0.1402  0.1341  0.2462
  191SLPC    C122069   4.616   0.500   6.365 -0.0418  0.3170 -0.0605
  191SLPC    HA22070   4.550   0.565   6.304 -1.2497 -1.7557 -1.0322
  191SLPC    HB22071   4.577   0.396   6.371  0.3114  0.0450 -2.1104
  191SLPC    C222072   4.620   0.561   6.506  0.6208 -0.6905  0.0766
  191SLPC    HS22073   4.537   0.536   6.575  1.3855 -0.1729  1.1997
  191SLPC   O2122074   4.638   0.703   6.498  0.2113 -0.5015  0.4292
  191SLPC   C2122075   4.524   0.770   6.481  0.2591 -0.7012 -0.2817
  191SLPC   O2222076   4.415   0.718   6.489  0.0871  0.2494 -0.0608
  191SLPC   C2222077   4.548   0.919   6.452 -0.2726  0.3088 -0.0038
  191SLPC   H2R22078   4.658   0.926   6.435 -0.0341 -3.0954 -0.1995
  191SLPC   H2S22079   4.503   0.934   6.351 -1.6326  0.0005  0.5552
  191SLPC    C322080   4.737   0.504   6.587 -0.1706 -0.6089  0.0010
  191SLPC    HX22081   4.828   0.530   6.529 -1.2677  1.5072 -0.8198
  191SLPC    HY22082   4.736   0.393   6.583  2.7691 -0.7740  2.1401
  191SLPC   O3122083   4.749   0.543   6.723  0.0026  0.4239 -0.2746
  191SLPC   C3122084   4.804   0.663   6.739 -0.2204 -0.2085  0.6287
  191SLPC   O3222085   4.866   0.728   6.661  0.1009 -0.2519  0.1419
  191SLPC   C3222086   4.804   0.684   6.892  0.0698 -0.1192  0.2380
  191SLPC   H2X22087   4.795   0.591   6.953  1.7787  0.7178  1.8132
  191SLPC   H2Y22088   4.716   0.750   6.907  0.7357  1.0923 -1.0626
  191SLPC   C2322089   4.484   1.008   6.560 -0.0321  0.0023  0.2325
  191SLPC   H3R22090   4.396   0.948   6.592 -1.2500  2.1380  0.9646
  191SLPC   H3S22091   4.442   1.101   6.516 -1.0811 -0.6621 -0.1901
  191SLPC   C2422092   4.564   1.019   6.689  0.2163  0.3225  0.4550
  191SLPC   H4R22093   4.667   1.054   6.666  0.0567  1.1112  0.9223
  191SLPC   H4S22094   4.567   0.918   6.735  0.3558  0.3904  0.5949
  191SLPC   C2522095   4.513   1.129   6.781 -0.4185 -0.0299  0.0497
  191SLPC   H5R22096   4.405   1.108   6.794 -0.1992 -1.4966 -0.4904
  191SLPC   H5S22097   4.519   1.229   6.732 -0.9947 -1.0708 -2.2160
  191SLPC   C2622098   4.583   1.132   6.920  0.4577 -0.7277 -0.5521
  191SLPC   H6R22099   4.694   1.141   6.917  0.6087 -1.8525  0.7871
  191SLPC   H6S22100   4.576   1.029   6.962  0.9354 -0.6338 -0.2292
  191SLPC   C2722101   4.514   1.221   7.020 -0.1513 -0.6263  0.4987
  191SLPC   H7R22102   4.405   1.198   7.021 -0.5154  0.8887 -0.7181
  191SLPC   H7S22103   4.510   1.323   6.976 -1.0919 -0.1428  1.6824
  191SLPC   C2822104   4.579   1.218   7.162 -0.0198  0.2534 -0.1099
  191SLPC   H8R22105   4.640   1.311   7.165  0.7002 -0.2013 -0.3212
  191SLPC   H8S22106   4.657   1.141   7.182  0.5782  0.9968  0.4875
  191SLPC   C2922107   4.493   1.193   7.279 -0.5057  0.5667 -0.5928
  191SLPC   H9R22108   4.461   1.087   7.276  0.3965  0.2572  0.3887
  191SLPC  C21022109   4.460   1.274   7.378  0.0766  0.1355  0.2017
  191SLPC  H10R22110   4.388   1.230   7.448  0.6937  0.1142  0.8332
  191SLPC  C21122111   4.521   1.406   7.408 -0.1661  0.3165  0.6692
  191SLPC  H11R22112   4.445   1.485   7.425 -0.9682 -0.6710  1.7395
  191SLPC  H11S22113   4.577   1.449   7.322 -0.1231 -1.4467 -0.1970
  191SLPC  C21222114   4.596   1.399   7.532 -0.0100 -0.3576 -0.1510
  191SLPC  H12R22115   4.703   1.380   7.515  0.0963  0.2449 -0.1709
  191SLPC  C21322116   4.546   1.410   7.658 -0.7575 -0.1071 -0.1423
  191SLPC  H13R22117   4.619   1.402   7.741  2.0939  0.8884 -2.4656
  191SLPC  C21422118   4.401   1.419   7.706  1.1364  0.1918 -0.3175
  191SLPC  H14R22119   4.329   1.371   7.636 -0.1578  1.4418  0.1301
  191SLPC  H14S22120   4.370   1.525   7.708  2.4278  0.6097 -1.3368
  191SLPC  C21522121   4.384   1.364   7.850  1.2508 -0.6016 -0.3012
  191SLPC  H15R22122   4.284   1.398   7.884  1.0689 -2.7775  1.4114
  191SLPC  H15S22123   4.458   1.409   7.920  2.5343 -2.8458 -0.1805
  191SLPC  C21622124   4.390   1.216   7.867 -0.0741 -0.5968 -0.5971
  191SLPC  H16R22125   4.499   1.202   7.854  0.4350  1.9858  0.5363
  191SLPC  H16S22126   4.331   1.161   7.791 -0.9032 -2.2972  1.2454
  191SLPC  C21722127   4.342   1.171   8.009 -0.1856  0.6845  0.1794
  191SLPC  H17R22128   4.357   1.061   8.012 -1.4622  0.5191  0.7774
  191SLPC  H17S22129   4.234   1.190   8.029 -0.1662 -0.8553  1.9160
  191SLPC  C21822130   4.419   1.229   8.126 -0.4850 -0.3228 -0.9454
  191SLPC  H18R22131   4.402   1.338   8.132 -0.2432 -0.2162 -2.1097
  191SLPC  H18S22132   4.518   1.189   8.096 -1.1559 -1.2329 -1.9624
  191SLPC  H18T22133   4.400   1.190   8.229 -1.8115  2.0762 -0.2401
  191SLPC   C3322134   4.926   0.767   6.944 -0.8304  0.6889 -1.2084
  191SLPC   H3X22135   5.010   0.714   6.895  0.0723  0.5407  0.4458
  191SLPC   H3Y22136   4.924   0.759   7.055  0.4332  0.5862 -1.1873
  191SLPC   C3422137   4.929   0.914   6.904  0.2507  0.9154 -0.5419
  191SLPC   H4X22138   4.845   0.976   6.942 -1.0560 -1.3515  0.3623
  191SLPC   H4Y22139   4.946   0.927   6.795 -0.0631 -0.1526 -0.7228
  191SLPC   C3522140   5.043   0.985   6.976  0.5106  0.0483 -0.2376
  191SLPC   H5X22141   5.076   1.082   6.934  1.5188 -0.0942  0.2238
  191SLPC   H5Y22142   5.131   0.922   6.952  1.0869  0.6016  0.4131
  191SLPC   C3622143   5.018   0.996   7.131  0.0868 -0.2911  0.1840
  191SLPC   H6X22144   4.990   0.898   7.176  1.4146 -0.1727  1.3150
  191SLPC   H6Y22145   4.938   1.070   7.149  0.7711  0.8627 -1.4590
  191SLPC   C3722146   5.142   1.046   7.205 -0.3151  0.9544 -0.4050
  191SLPC   H7X22147   5.180   1.144   7.171  1.9268  0.7233  1.3703
  191SLPC   H7Y22148   5.229   0.981   7.182 -2.4180 -2.9811  2.1482
  191SLPC   C3822149   5.127   1.039   7.356 -0.0897 -0.6244 -0.2694
  191SLPC   H8X22150   5.220   1.062   7.413 -1.5771  1.9361  1.2141
  191SLPC   H8Y22151   5.096   0.939   7.392 -0.7594 -0.6753 -0.9659
  191SLPC   C3922152   5.025   1.136   7.412 -0.5310  0.2477  0.0530
  191SLPC   H9X22153   4.917   1.111   7.403 -0.9878  1.6858  1.2531
  191SLPC   H9Y22154   5.044   1.232   7.358 -0.6414 -1.3392 -2.8688
  191SLPC  C31022155   5.065   1.171   7.557  0.3055 -0.3001 -0.2148
  191SLPC  H10X22156   5.164   1.216   7.579 -0.2581  0.0646  1.6679
  191SLPC  H10Y22157   5.065   1.074   7.612 -0.8853  0.2702  0.8187
  191SLPC  C31122158   4.959   1.266   7.620  0.2704 -0.1357 -0.6982
  191SLPC  H11X22159   4.860   1.218   7.605  0.7345 -1.8983  1.5196
  191SLPC  H11Y22160   4.974   1.370   7.585  0.4634  0.1861  0.3150
  191SLPC  C31222161   4.968   1.290   7.778 -0.8146  0.6407  0.0155
  191SLPC  H12X22162   4.897   1.367   7.814 -0.8209  0.3186  0.7127
  191SLPC  H12Y22163   5.067   1.331   7.809 -0.4110  1.0085 -1.7412
  191SLPC  C31322164   4.940   1.158   7.848  0.2382  0.0048 -0.3798
  191SLPC  H13X22165   4.995   1.067   7.818 -1.2881 -1.4550  1.1367
  191SLPC  H13Y22166   4.836   1.123   7.830  1.5231 -2.0332 -4.3986
  191SLPC  C31422167   4.967   1.186   7.995 -0.4076  0.4418  1.5255
  191SLPC  H14X22168   4.914   1.280   8.022  0.0823  1.1714  0.0226
  191SLPC  H14Y22169   5.074   1.213   7.993 -0.3453  0.2667 -2.6912
  191SLPC  C31522170   4.923   1.073   8.086 -0.0366  0.5306 -0.1441
  191SLPC  H15X22171   4.945   0.980   8.030  0.1933  0.6153 -0.1954
  191SLPC  H15Y22172   4.813   1.085   8.096 -0.3976 -1.0583 -1.9562
  191SLPC  C31622173   4.999   1.081   8.221 -0.1160 -0.2696  1.0474
  191SLPC  H16X22174   5.001   1.189   8.246 -1.4795  0.1992 -0.7230
  191SLPC  H16Y22175   5.104   1.048   8.204 -0.0678 -0.2568  1.3222
  191SLPC  C31722176   4.925   1.002   8.331  0.3932 -0.0310  0.2895
  191SLPC  H17X22177   4.818   1.032   8.338  0.0490 -1.3004  0.6264
  191SLPC  H17Y22178   4.957   1.032   8.433 -0.3510 -2.0814  1.1556
  191SLPC  C31822179   4.928   0.847   8.321 -0.2986  0.2167 -0.1909
  191SLPC  H18X22180   4.875   0.802   8.234 -0.5847 -0.5974  0.3995
  191SLPC  H18Y22181   4.868   0.811   8.407 -0.3119  1.9953  0.5484
  191SLPC  H18Z22182   5.030   0.808   8.339 -0.5824  1.0244  3.3707
  192SLPC     N22183   5.872   1.132   6.198  0.3288  0.3063  0.1335
  192SLPC   C1322184   5.883   1.080   6.338 -0.4057  0.5545 -0.0585
  192SLPC  H13A22185   5.937   1.141   6.410 -1.0804  3.0882 -1.6615
  192SLPC  H13B22186   5.787   1.086   6.387  0.0839 -1.1923  1.1756
  192SLPC  H13C22187   5.924   0.980   6.343  0.2692  0.8497  0.6270
  192SLPC   C1422188   5.797   1.022   6.130  0.4787  0.8089  0.4180
  192SLPC  H14A22189   5.692   1.017   6.155  0.0594 -1.0564 -1.5864
  192SLPC  H14B22190   5.805   1.044   6.024  0.4260 -1.6348 -0.1023
  192SLPC  H14C22191   5.828   0.923   6.160 -2.2228 -0.3431 -0.4448
  192SLPC   C1522192   6.012   1.128   6.138 -0.2363 -0.4083 -0.0073
  192SLPC  H15A22193   6.067   1.043   6.177 -1.5101 -0.5394  1.5383
  192SLPC  H15B22194   6.019   1.120   6.030 -0.6912  1.4168 -0.1912
  192SLPC  H15C22195   6.064   1.214   6.178  0.5147 -0.7317 -0.2680
  192SLPC   C1222196   5.822   1.266   6.191 -0.2157  0.3527 -0.4652
  192SLPC  H12A22197   5.831   1.310   6.092  0.8612 -0.6540 -0.8287
  192SLPC  H12B22198   5.895   1.328   6.240 -2.1210  1.3933  1.1482
  192SLPC   C1122199   5.692   1.309   6.262 -0.0208  0.4583  0.2610
  192SLPC  H11A22200   5.611   1.249   6.215  0.0659  0.8424 -0.3836
  192SLPC  H11B22201   5.674   1.412   6.223  1.9981  0.2099 -1.4249
  192SLPC     P22202   5.783   1.387   6.482 -0.0314  0.0472 -0.3366
  192SLPC   O1322203   5.910   1.401   6.415 -0.7640  0.7078  0.3555
  192SLPC   O1422204   5.718   1.516   6.512 -0.0193 -0.3216 -0.5604
  192SLPC   O1222205   5.688   1.294   6.404  0.0918  0.0225 -0.0952
  192SLPC   O1122206   5.800   1.312   6.618 -0.1745 -0.3604  0.2386
  192SLPC    C122207   5.718   1.202   6.650  0.2957  0.0886 -0.2139
  192SLPC    HA22208   5.712   1.132   6.564 -1.1568  1.3970 -1.2055
  192SLPC    HB22209   5.766   1.137   6.727  1.5293  1.7733  0.4633
  192SLPC    C222210   5.566   1.228   6.678 -0.0889 -0.4767 -0.2852
  192SLPC    HS22211   5.523   1.275   6.587 -1.7679 -2.9598 -0.8326
  192SLPC   O2122212   5.554   1.318   6.791  0.1609 -0.4421 -0.3949
  192SLPC   C2122213   5.441   1.390   6.798 -0.1351  0.8074 -0.1333
  192SLPC   O2222214   5.351   1.381   6.719 -0.5982  0.6184  0.6425
  192SLPC   C2222215   5.444   1.480   6.921 -0.0039  0.5693  0.1309
  192SLPC   H2R22216   5.529   1.550   6.909  0.5673 -0.7236 -4.5171
  192SLPC   H2S22217   5.347   1.532   6.917  0.5009  1.5705  0.8499
  192SLPC    C322218   5.491   1.093   6.711  0.0925 -0.2250 -1.1884
  192SLPC    HX22219   5.497   1.013   6.635  0.1796 -0.7953 -0.5903
  192SLPC    HY22220   5.385   1.124   6.722  0.3659  0.1423  0.6296
  192SLPC   O3122221   5.549   1.031   6.825  0.4453 -0.2690  0.0774
  192SLPC   C3122222   5.477   0.947   6.898 -0.5730 -0.1155 -0.0336
  192SLPC   O3222223   5.358   0.928   6.883 -0.1109  0.4032 -0.2279
  192SLPC   C3222224   5.559   0.874   7.007  0.3519  0.2774 -0.1689
  192SLPC   H2X22225   5.662   0.879   6.966 -0.5706 -0.6492 -2.6814
  192SLPC   H2Y22226   5.521   0.770   7.021 -0.9102  0.7399 -0.1678
  192SLPC   C2322227   5.448   1.411   7.055 -0.3441 -0.6148 -0.2357
  192SLPC   H3R22228   5.543   1.357   7.075  0.7218  1.8792  1.6412
  192SLPC   H3S22229   5.372   1.330   7.067 -2.2130  1.2372  0.7310
  192SLPC   C2422230   5.425   1.501   7.175  1.2069 -0.5153 -0.1281
  192SLPC   H4R22231   5.491   1.591   7.171  1.6921 -0.9397 -1.9819
  192SLPC   H4S22232   5.465   1.444   7.262  0.0936  0.1081  0.8019
  192SLPC   C2522233   5.278   1.539   7.193 -0.1263 -0.2307 -0.4843
  192SLPC   H5R22234   5.235   1.440   7.218  0.0739  0.3645  2.4343
  192SLPC   H5S22235   5.246   1.580   7.095  0.1382  1.0916 -0.0296
  192SLPC   C2622236   5.257   1.632   7.319 -0.2555  0.0660 -0.1241
  192SLPC   H6R22237   5.315   1.727   7.314  0.2934 -0.3370 -1.7415
  192SLPC   H6S22238   5.292   1.573   7.407 -0.5478 -0.2185 -0.1979
  192SLPC   C2722239   5.110   1.668   7.320  0.0485 -0.4561  0.2073
  192SLPC   H7R22240   5.051   1.582   7.282  0.1101 -1.1143  1.5601
  192SLPC   H7S22241   5.090   1.765   7.270 -1.0513  0.2233  1.8946
  192SLPC   C2822242   5.066   1.689   7.467 -0.2008 -0.4290  0.0469
  192SLPC   H8R22243   5.080   1.795   7.497 -1.3545 -0.3015  0.1629
  192SLPC   H8S22244   5.125   1.619   7.530  1.0255  1.8716  1.4959
  192SLPC   C2922245   4.918   1.666   7.474 -0.0983  0.0562 -0.2805
  192SLPC   H9R22246   4.867   1.622   7.388 -0.3697 -0.5837  0.2032
  192SLPC  C21022247   4.837   1.689   7.575 -0.3558 -0.6720  0.6757
  192SLPC  H10R22248   4.728   1.681   7.561 -0.4807 -2.3038  2.4365
  192SLPC  C21122249   4.884   1.744   7.711  0.0618  0.2221  0.1030
  192SLPC  H11R22250   4.995   1.735   7.721  0.4988  0.8433 -3.4781
  192SLPC  H11S22251   4.841   1.676   7.786  0.1833 -1.3572 -1.2333
  192SLPC  C21222252   4.829   1.883   7.738  0.8916  0.1379 -0.7306
  192SLPC  H12R22253   4.828   1.943   7.646 -1.6370  0.0794 -0.7706
  192SLPC  C21322254   4.782   1.933   7.854  0.1794  0.0138  0.6042
  192SLPC  H13R22255   4.751   2.038   7.847 -0.0451 -0.0480  0.6355
  192SLPC  C21422256   4.770   1.864   7.985  0.7704  0.5072 -0.3899
  192SLPC  H14R22257   4.807   1.928   8.068  1.0315  2.7348 -2.1844
  192SLPC  H14S22258   4.820   1.765   7.979  0.7793  0.6364 -3.0508
  192SLPC  C21522259   4.625   1.826   8.040 -0.3405 -0.7604  0.2965
  192SLPC  H15R22260   4.581   1.782   7.947 -1.5280  0.8862  0.0655
  192SLPC  H15S22261   4.567   1.917   8.066  0.2229 -0.6035  1.0151
  192SLPC  C21622262   4.619   1.722   8.149 -0.0662  0.5012  0.0258
  192SLPC  H16R22263   4.508   1.712   8.158 -0.1928  1.1373 -0.7533
  192SLPC  H16S22264   4.658   1.762   8.245 -0.2403  0.2148  0.2172
  192SLPC  C21722265   4.681   1.585   8.131  0.2001  0.0721 -0.2220
  192SLPC  H17R22266   4.646   1.549   8.032 -1.6157 -0.2254  0.5048
  192SLPC  H17S22267   4.792   1.596   8.134  0.2055 -0.4669  2.2112
  192SLPC  C21822268   4.630   1.498   8.250 -0.6211  0.0967  0.1217
  192SLPC  H18R22269   4.690   1.533   8.337  0.6785 -1.5838 -0.0915
  192SLPC  H18S22270   4.643   1.389   8.236 -0.4339  0.1901 -0.4222
  192SLPC  H18T22271   4.524   1.518   8.278 -0.4185  0.7263  0.4542
  192SLPC   C3322272   5.546   0.936   7.145  0.5571 -0.0868  0.4657
  192SLPC   H3X22273   5.438   0.961   7.155  0.5561  0.8028 -1.4477
  192SLPC   H3Y22274   5.600   1.033   7.138 -3.1034  2.1298  1.7561
  192SLPC   C3422275   5.593   0.840   7.254  0.5982 -0.2139  0.1987
  192SLPC   H4X22276   5.635   0.897   7.340  0.7667  0.1452 -0.1205
  192SLPC   H4Y22277   5.682   0.782   7.221  1.5936  1.2281  0.2856
  192SLPC   C3522278   5.483   0.745   7.304 -0.6525  0.2564 -0.1407
  192SLPC   H5X22279   5.526   0.643   7.311 -0.8862  0.0551 -1.4640
  192SLPC   H5Y22280   5.409   0.735   7.222  0.8408 -0.3693 -1.4373
  192SLPC   C3622281   5.408   0.785   7.429  0.1072 -0.0695 -0.0183
  192SLPC   H6X22282   5.371   0.889   7.419  1.2519  0.4559  1.1068
  192SLPC   H6Y22283   5.481   0.785   7.513 -0.6035 -0.7976  0.6104
  192SLPC   C3722284   5.287   0.692   7.456 -0.0095  0.6342 -0.5342
  192SLPC   H7X22285   5.319   0.586   7.464 -0.4159  0.4535 -1.2877
  192SLPC   H7Y22286   5.217   0.687   7.370 -2.1193 -0.3684  1.1946
  192SLPC   C3822287   5.204   0.733   7.580 -0.2255 -0.0114 -0.0176
  192SLPC   H8X22288   5.126   0.654   7.585  0.4346 -0.5964  1.3987
  192SLPC   H8Y22289   5.152   0.828   7.555  0.4945 -0.2874 -2.6867
  192SLPC   C3922290   5.279   0.746   7.711 -0.1534 -0.0181 -0.4440
  192SLPC   H9X22291   5.364   0.816   7.698  1.7760 -2.2263 -0.0762
  192SLPC   H9Y22292   5.333   0.654   7.742  0.1175  0.0014 -0.8520
  192SLPC  C31022293   5.197   0.796   7.831  0.4936 -0.1189  0.2642
  192SLPC  H10X22294   5.164   0.900   7.813  2.0609  0.8002  2.4871
  192SLPC  H10Y22295   5.278   0.795   7.908 -0.3491 -0.5780  1.1540
  192SLPC  C31122296   5.089   0.704   7.885  0.0331  0.1069  0.5579
  192SLPC  H11X22297   5.007   0.695   7.811  0.1927 -0.2194  0.4228
  192SLPC  H11Y22298   5.051   0.737   7.984 -1.3371 -1.2783  0.5070
  192SLPC  C31222299   5.146   0.560   7.923 -0.1470  0.5085  0.2899
  192SLPC  H12X22300   5.238   0.566   7.985  0.4494 -0.9894 -0.4335
  192SLPC  H12Y22301   5.184   0.522   7.827 -0.7079 -0.7331  0.5510
  192SLPC  C31322302   5.039   0.464   7.980 -0.2694  0.2548  0.2558
  192SLPC  H13X22303   4.971   0.464   7.892 -0.0665 -1.2793  0.0946
  192SLPC  H13Y22304   4.982   0.504   8.066  0.4454  0.3831  0.6731
  192SLPC  C31422305   5.098   0.326   7.995 -0.9424 -0.0294  0.5478
  192SLPC  H14X22306   5.163   0.305   7.908 -0.3182  2.7264  0.2981
  192SLPC  H14Y22307   5.015   0.253   8.002 -0.6996 -0.4137 -0.5284
  192SLPC  C31522308   5.173   0.308   8.129  0.4854 -0.2189  0.9493
  192SLPC  H15X22309   5.108   0.313   8.220 -1.5907 -0.4809 -0.4891
  192SLPC  H15Y22310   5.239   0.394   8.153  0.9368 -0.5211  0.7932
  192SLPC  C31622311   5.256   0.184   8.142  0.2377 -1.4725  0.8484
  192SLPC  H16X22312   5.295   0.178   8.245  0.3186  0.2671  0.9356
  192SLPC  H16Y22313   5.343   0.181   8.073 -0.3141  0.1873  0.0430
  192SLPC  C31722314   5.177   0.062   8.132  0.3801 -0.4365 -0.0155
  192SLPC  H17X22315   5.143   0.058   8.026 -1.4249  2.6799  0.3934
  192SLPC  H17Y22316   5.083   0.073   8.191  0.2633 -0.8834 -0.1121
  192SLPC  C31822317   5.257  -0.062   8.164 -0.2588  0.2293  0.2642
  192SLPC  H18X22318   5.267  -0.080   8.273  1.6365 -1.7527 -0.2221
  192SLPC  H18Y22319   5.354  -0.065   8.110 -0.5663 -1.6657 -0.2131
  192SLPC  H18Z22320   5.209  -0.151   8.119  0.6287 -0.6849  1.0990
  193SOD    SOD22321   6.495   4.014  12.363  0.1209  0.0138  0.4597
  194SOD    SOD22322   0.790   2.568   2.988  0.2293 -0.2897  0.0274
  195SOD    SOD22323   2.107   1.563  17.247  0.3394 -0.5445 -0.7694
  196SOD    SOD22324   2.303   5.887   6.191  0.9081  0.3786 -0.3801
  197SOD    SOD22325   4.304   6.378  16.289  0.2729  0.0468 -0.4784
  198SOD    SOD22326   2.479   5.019  14.440 -0.4510  0.0475 -0.3411
  199SOD    SOD22327   1.369   4.179  16.484  0.0249 -0.0350  0.2475
  200SOD    SOD22328   0.533   6.341  11.031 -0.0691 -0.3164  0.0648
  201SOD    SOD22329   2.739   1.854  13.495  0.4266  0.0032  0.4008
  202SOD    SOD22330   0.625   5.430  12.377 -0.3383 -0.1062 -0.3683
  203SOD    SOD22331   2.311   6.296   2.687  0.2565  0.2503 -0.0366
  204SOD    SOD22332   6.655   5.537  12.851 -0.8673  0.2613  0.0456
  205SOD    SOD22333   0.095   6.654   2.292 -0.2649  0.4761 -0.0441
  206SOD    SOD22334   0.555   3.833  12.993  0.1292 -0.0742  0.2155
  207SOD    SOD22335   0.762   0.681  13.603  0.1458 -0.0998  0.0477
  208SOD    SOD22336   4.712   1.042   3.621  0.1988 -0.1217 -0.2398
  209SOD    SOD22337   2.740   5.465  12.529 -0.2407  0.4395 -0.1034
  210SOD    SOD22338   3.072   0.069   0.351  0.0303  0.1567 -0.0080
  211SOD    SOD22339   4.642   3.574   3.645  0.2673  0.1133  0.1999
  212SOD    SOD22340   1.446   1.371  12.079 -0.5682 -0.7993  0.1294
  213SOD    SOD22341   2.350   4.106   0.636 -0.1586 -0.0383 -0.4873
  214SOD    SOD22342   0.954   4.441   6.531 -0.3400 -0.0786 -0.7425
  215SOD    SOD22343   3.463   5.001   1.706 -0.1511  0.1180  0.1069
  216SOD    SOD22344   4.535   3.599  11.074 -0.1418  0.1008 -0.3237
  217SOD    SOD22345   1.363   3.926   2.667  0.3536 -0.2497  0.1126
  218SOD    SOD22346   1.583   3.777   5.478  0.5159 -0.1509 -0.2153
  219SOD    SOD22347   2.316   0.581   4.909 -0.2058  0.2087  0.3620
  220SOD    SOD22348   3.179   2.564  14.667 -0.2865 -0.6652 -0.3783
  221SOD    SOD22349   1.147   2.747   5.839  0.3330 -0.1391  0.0247
  222SOD    SOD22350   4.492   0.768  15.293  0.3788 -0.5587 -0.1372
  223SOD    SOD22351   5.832   4.530  12.420 -0.0359  0.3386 -0.1521
  224SOD    SOD22352   0.650   4.155  14.402 -0.4791  0.2428  0.2800
  225SOD    SOD22353   4.675   6.069  11.120 -0.1102 -0.1028  0.1290
  226SOD    SOD22354   1.820   2.578   1.780 -0.6396  0.0147 -0.1026
  227SOD    SOD22355   3.923   0.355   5.129 -0.0111  0.0631 -0.3737
  228SOD    SOD22356   1.028   3.828  17.101  0.4865 -0.2765  0.4472
  229SOD    SOD22357   2.678   6.633  13.162  0.2540  0.4916  0.1525
  230SOD    SOD22358   2.720   0.391  11.939  0.1767 -0.0272  0.0199
  231SOD    SOD22359   6.185   2.201  14.497 -0.1875  0.0363  0.0854
  232SOD    SOD22360   0.128   2.487   6.588 -0.0607 -0.1971  0.2314
  233SOD    SOD22361   3.766   4.472   6.447  0.0315  0.0081  0.0626
  234SOD    SOD22362   1.184   1.008   1.058 -0.5011  0.3920  0.1418
  235SOD    SOD22363   5.956   2.924   4.461  0.4179  0.0620 -0.0540
  236SOD    SOD22364   5.342   6.703   0.910 -0.4409  0.0366  0.3113
  237SOD    SOD22365   1.524   5.548  14.483 -0.1182  0.1826  0.3558
  238SOD    SOD22366   4.669   2.255   1.639 -0.3950  0.1209  0.1850
  239SOD    SOD22367   4.201   5.925  16.049 -0.0525 -0.2227 -0.2102
  240SOD    SOD22368   5.762   4.498   1.517 -0.3338 -0.1434  0.4555
  241SOD    SOD22369   6.570   2.212  16.017  0.3936  0.0789  0.1547
  242SOD    SOD22370   5.286   4.568  17.040 -0.1740  0.5216 -0.1958
  243SOD    SOD22371   1.857   1.579  15.662 -0.1608 -0.2128 -0.1937
  244SOD    SOD22372   6.563   0.050  11.021  0.4828 -0.1585 -0.3948
  245SOD    SOD22373   6.471   4.870   0.815 -0.1859 -0.3185  0.0438
  246SOD    SOD22374   0.474   3.687   2.314 -0.3395 -0.0813  0.0745
  247SOD    SOD22375   2.767   0.730   2.732 -0.2330  0.2481  0.3844
  248SOD    SOD22376   5.420   3.815  14.464  0.0255 -0.0745 -0.1898
  249SOD    SOD22377   2.395   2.933  11.708  0.3659  0.4175 -0.0720
  250SOD    SOD22378   3.272   6.592  11.293  0.1671 -0.4342  0.2145
  251SOD    SOD22379   0.748   2.033  11.273  0.3709  0.0908  0.1363
  252SOD    SOD22380   1.872   0.708  14.048  0.2771  0.0447 -0.2449
  253SOD    SOD22381   1.429   1.895   0.814  0.3427  0.3062  0.3502
  254SOD    SOD22382   4.557   6.359  12.533  0.3283  0.0400 -0.2261
  255SOD    SOD22383   5.303   1.273  11.172  0.0147  0.4800  0.1076
  256SOD    SOD22384   2.535   2.729   4.553 -0.2849 -0.2456  0.6839
  257SOD    SOD22385   0.660   5.449   5.070 -0.4714 -0.0525  0.3059
  258SOD    SOD22386   1.800   4.988  10.670  0.1186 -0.0530 -0.2403
  259SOD    SOD22387   5.709   4.267  15.908 -0.0487  0.6054  0.2331
  260SOD    SOD22388   3.539   1.564   2.511 -0.1384 -0.2486 -0.5762
  261SOD    SOD22389   4.959   5.762  14.064  0.1270 -0.3081 -0.2800
  262SOD    SOD22390   5.174   6.468  14.077 -0.1668  0.1836  0.7556
  263SOD    SOD22391   5.771   6.454  15.147  0.0642 -0.1558  0.0769
  264SOD    SOD22392   5.869   1.102  16.278  0.3152 -0.0327  0.0181
  265SOD    SOD22393   6.203   4.065   5.979  0.1839  0.0657  0.4077
  266CLA    CLA22394   2.037   5.088   2.460 -0.1323  0.1253  0.0297
  267CLA    CLA22395   4.656   2.551   4.446  0.0746 -0.1968  0.1158
  268CLA    CLA22396   0.869   0.226  13.928  0.0335  0.3985  0.0311
  269CLA    CLA22397   2.119   4.543  16.636 -0.3386  0.0898 -0.1148
  270CLA    CLA22398   0.519   5.858   3.346 -0.0277 -0.3367  0.0295
  271CLA    CLA22399   4.526   2.209  15.791  0.0606  0.0652  0.4577
  272CLA    CLA22400   4.101   6.173  14.903  0.0470  0.3011 -0.5319
  273CLA    CLA22401   6.310   2.667  15.419 -0.2399 -0.0719  0.0366
  274CLA    CLA22402   5.547   2.321   0.190  0.0853 -0.1015  0.0822
  275CLA    CLA22403   0.345   1.659  14.092  0.2006  0.0980 -0.0274
  276CLA    CLA22404   4.581   0.098  17.215  0.0991  0.1981 -0.2563
  277CLA    CLA22405   3.161   1.422  12.410 -0.1774 -0.0403  0.2255
  278CLA    CLA22406   5.900   4.910  14.182 -0.0723 -0.2470 -0.5833
  279CLA    CLA22407   5.858   3.763  12.944 -0.3648  0.3522 -0.5070
  280CLA    CLA22408   3.039   2.942  11.793  0.4793  0.1240  0.1302
  281CLA    CLA22409   0.284   5.744  12.181 -0.0217  0.2572 -0.0755
  282CLA    CLA22410   3.445   2.920   1.719  0.1168 -0.4078 -0.4191
  283CLA    CLA22411   1.531   1.091   1.252 -0.1154  0.2430  0.1141
  284CLA    CLA22412   1.201   0.153  15.478 -0.2395  0.1060 -0.1029
  285CLA    CLA22413   0.623   3.482  13.799 -0.5292  0.1499  0.4337
  286CLA    CLA22414   3.049   4.009   0.200  0.0672  0.2290  0.2951
  287CLA    CLA22415   6.783   5.332   0.466 -0.3307 -0.3927 -0.2603
  288CLA    CLA22416   3.316   2.554  15.311  0.3551  0.1731 -0.1715
  289CLA    CLA22417   1.108   3.219   0.116 -0.2794 -0.2929  0.5678
  290CLA    CLA22418   1.325   0.100   4.588 -0.1219  0.3841  0.0291
  291CLA    CLA22419   4.532   0.376  12.308  0.1106  0.1374 -0.2749
  292CLA    CLA22420   4.170   1.310   2.196 -0.1009 -0.1524  0.2364
  293CLA    CLA22421   1.867   3.822  15.411 -0.1151  0.5669 -0.5966
  294CLA    CLA22422   3.694   2.609  13.792 -0.0044  0.2089 -0.0202
  295CLA    CLA22423   2.643   5.850  13.462  0.3381  0.0372 -0.4776
  296CLA    CLA22424   2.171   4.367  15.744  0.0878 -0.0723 -0.2394
  297CLA    CLA22425   6.378   2.514  12.324  0.1177 -0.2277 -0.1617
  298CLA    CLA22426   3.119   4.610   5.475 -0.4678 -0.0110 -0.3584
  299CLA    CLA22427   4.226   0.039  11.369 -0.2447  0.0428  0.0905
  300CLA    CLA22428   0.790   4.866   0.842 -0.3237  0.3314 -0.0815
  301CLA    CLA22429   2.065   6.312  13.631  0.2148 -0.1871 -0.4387
  302CLA    CLA22430   0.057   6.161  14.354 -0.1309  0.1937 -0.1615
  303CLA    CLA22431   0.261   3.086  16.597  0.0313  0.0748 -0.1238
  304CLA    CLA22432   6.406   4.082  13.125 -0.0572 -0.2766 -0.1925
  305CLA    CLA22433   3.441   5.458  14.270 -0.0368  0.6256  0.1837
  306CLA    CLA22434   3.224   1.585  14.982 -0.0866  0.5769  0.0904
  307CLA    CLA22435   0.708   3.211   1.903 -0.1124  0.1843  0.1225
  308CLA    CLA22436   4.566   5.690  16.184 -0.0063  0.2692  0.0271
  309CLA    CLA22437   2.037   1.221   2.463  0.1819 -0.0074  0.1100
  310CLA    CLA22438   1.072   3.930  16.662 -0.2983  0.4777  0.0032
  311CLA    CLA22439   2.752   4.516   3.446 -0.5091 -0.2230 -0.0651
  312CLA    CLA22440   0.705   6.247   1.855 -0.3906 -0.0172  0.3291
  313CLA    CLA22441   4.114   0.030   0.230 -0.8178 -0.0519 -0.1248
  314CLA    CLA22442   4.311   3.799   1.042 -0.3330 -0.2369  0.2991
  315CLA    CLA22443   2.195   2.846   3.106 -0.2928  0.2614  0.2121
  316CLA    CLA22444   6.727   3.057   3.278 -0.0518  0.1354 -0.4003
  317CLA    CLA22445   5.538   6.192   0.015  0.2123  0.4315  0.6083
  318CLA    CLA22446   3.840   5.145   1.481  0.2251  0.2740  0.4115
  319TIP3   OH222447   6.196   4.258  12.056 -0.0310 -0.4250  0.4008
  319TIP3    H122448   6.200   4.227  11.965 -1.1544 -0.9564  0.5221
  319TIP3    H222449   6.104   4.282  12.068  0.0096 -0.8279  1.5463
  320TIP3   OH222450   4.593   0.055   0.892  0.1382 -0.4494 -0.2243
  320TIP3    H122451   4.589  -0.039   0.879  0.8607 -0.5512  0.2312
  320TIP3    H222452   4.510   0.078   0.933  0.1222 -0.9474  0.0198
  321TIP3   OH222453   0.442   6.410   5.669  0.3713 -0.4261  0.0841
  321TIP3    H122454   0.397   6.339   5.624 -1.0703  0.2504  0.4481
  321TIP3    H222455   0.454   6.477   5.602 -0.3625 -0.0679  0.3011
  322TIP3   OH222456   4.904   1.248  10.405 -0.2719 -0.0089 -0.2857
  322TIP3    H122457   4.922   1.311  10.335 -1.6228  1.8166  0.9500
  322TIP3    H222458   4.987   1.202  10.418 -0.1349 -0.7753 -3.4118
  323TIP3   OH222459   2.779   3.075   3.166 -0.4695 -0.1658  0.5839
  323TIP3    H122460   2.730   2.994   3.176 -0.1615 -0.3314  0.7654
  323TIP3    H222461   2.749   3.132   3.237 -0.1957 -0.3710  0.8662
  324TIP3   OH222462   1.045   0.967   1.437  0.3038 -0.0806 -0.2450
  324TIP3    H122463   1.139   0.978   1.432  0.0704  1.4153 -1.4827
  324TIP3    H222464   1.032   0.872   1.433  1.7798 -0.3493  0.7868
  325TIP3   OH222465   2.109   0.741  11.843 -0.4972  0.1025  0.4171
  325TIP3    H122466   2.178   0.728  11.777 -0.0536 -0.0336  0.8982
  325TIP3    H222467   2.110   0.835  11.860 -1.0420  0.2243 -0.2291
  326TIP3   OH222468   5.289   5.362   4.259  0.3234  0.1364 -0.1332
  326TIP3    H122469   5.198   5.393   4.258 -0.5923 -2.4565 -0.6990
  326TIP3    H222470   5.284   5.275   4.299  2.8816  0.8394  1.8868
  327TIP3   OH222471   5.526   4.886   3.036  0.2002 -0.0005 -0.2662
  327TIP3    H122472   5.548   4.797   3.063 -0.7032 -0.3679 -0.7150
  327TIP3    H222473   5.583   4.942   3.088  2.6012 -0.9480 -1.7944
  328TIP3   OH222474   0.991   5.481   0.043 -0.1089 -0.7718  0.4296
  328TIP3    H122475   1.077   5.510   0.013 -1.1618  1.5838 -0.4930
  328TIP3    H222476   0.950   5.445  -0.036 -1.0062  0.7681  0.1693
  329TIP3   OH222477   3.596   3.487  13.640  0.2775 -0.2210 -0.9312
  329TIP3    H122478   3.571   3.473  13.731  1.7301 -0.6183 -0.5730
  329TIP3    H222479   3.590   3.582  13.627  2.1877  0.0791  0.2368
  330TIP3   OH222480   5.712   5.970  16.475 -0.1001 -0.9254 -0.6660
  330TIP3    H122481   5.758   5.901  16.523  0.8636 -0.0999 -0.3943
  330TIP3    H222482   5.632   5.985  16.525  0.9037 -0.0507  0.7127
  331TIP3   OH222483   4.453   3.086   1.002  0.1160 -0.2503  0.1052
  331TIP3    H122484   4.384   3.110   1.065  0.8763  0.5486  0.6590
  331TIP3    H222485   4.423   3.005   0.963 -1.3249  0.2760  0.0749
  332TIP3   OH222486   6.501   1.909   6.074 -0.0412  0.1344 -0.6632
  332TIP3    H122487   6.544   1.975   6.019  0.2234  0.4330 -0.0990
  332TIP3    H222488   6.570   1.845   6.093 -0.4796 -0.7098 -1.8264
  333TIP3   OH222489   2.530   0.500   0.555  0.0786  0.0021  0.0172
  333TIP3    H122490   2.510   0.454   0.473  0.4412 -1.8458  0.9506
  333TIP3    H222491   2.445   0.508   0.599 -0.2073  1.4887 -0.7607
  334TIP3   OH222492   0.628   0.453   5.664 -0.0278  0.3677  0.1482
  334TIP3    H122493   0.687   0.378   5.652 -1.2139 -0.7434  1.0302
  334TIP3    H222494   0.678   0.516   5.715  0.9769  0.1657 -0.5650
  335TIP3   OH222495   5.813   3.656   2.651 -0.2241  0.1420 -0.7515
  335TIP3    H122496   5.815   3.612   2.567  0.1093 -1.5315  0.1171
  335TIP3    H222497   5.728   3.632   2.689 -0.3089  0.7643 -0.5317
  336TIP3   OH222498   2.996   1.348   1.533  0.1374  0.8071  0.0326
  336TIP3    H122499   2.903   1.365   1.517 -0.8706 -0.0095  4.5307
  336TIP3    H222500   3.004   1.252   1.529  0.5501  0.8077  0.7919
  337TIP3   OH222501   0.229   0.041   3.214 -0.4676  0.1436 -0.3836
  337TIP3    H122502   0.228  -0.037   3.158  0.6308 -0.9594  1.1000
  337TIP3    H222503   0.222   0.114   3.152  1.4810 -1.0134 -2.0528
  338TIP3   OH222504   3.334   0.191   1.010  0.5466 -0.3957  0.3053
  338TIP3    H122505   3.295   0.279   1.013  0.4100 -0.4694  0.7610
  338TIP3    H222506   3.262   0.135   0.982  0.8731 -0.2308 -0.8589
  339TIP3   OH222507   5.998   0.330   5.539  0.2301  0.2930  0.4432
  339TIP3    H122508   6.046   0.403   5.578  2.7838 -0.3764 -1.3080
  339TIP3    H222509   5.987   0.354   5.448 -1.2041 -0.3825  0.4244
  340TIP3   OH222510   5.385   2.755  16.656 -0.0790 -0.3192 -0.1408
  340TIP3    H122511   5.378   2.771  16.562  1.1676  1.7255  0.0889
  340TIP3    H222512   5.295   2.736  16.683 -1.1707  3.0300 -1.1047
  341TIP3   OH222513   0.879   1.215   5.437  0.0739 -0.7287 -0.8137
  341TIP3    H122514   0.922   1.227   5.352  1.3049 -3.2290 -0.5740
  341TIP3    H222515   0.857   1.122   5.441 -1.5849 -0.3017  0.8739
  342TIP3   OH222516   0.232   3.629  15.007  0.1466 -0.5731  0.3222
  342TIP3    H122517   0.255   3.706  14.955  0.3540 -0.5169  0.4976
  342TIP3    H222518   0.275   3.556  14.962 -0.8468 -0.7243 -0.3972
  343TIP3   OH222519   3.460   0.744  16.138 -0.0825  0.0923 -0.1160
  343TIP3    H122520   3.536   0.693  16.109  0.3007  1.0456 -0.7830
  343TIP3    H222521   3.468   0.827  16.092  0.1431  1.3651  2.1450
  344TIP3   OH222522   6.409   6.383  15.053 -0.4874 -0.6021  0.0937
  344TIP3    H122523   6.444   6.347  15.134  1.7793 -0.0491 -0.5879
  344TIP3    H222524   6.469   6.454  15.030 -2.6330  1.0365 -0.6575
  345TIP3   OH222525   1.593   4.029   2.654  0.2472  0.0096  0.7112
  345TIP3    H122526   1.556   4.111   2.621  1.0531  0.7530  1.6083
  345TIP3    H222527   1.685   4.032   2.631  0.4211 -0.3323  1.3333
  346TIP3   OH222528   2.266   2.254  16.906  0.1425  0.2967  0.0208
  346TIP3    H122529   2.186   2.300  16.882 -0.5730  0.3508  2.3286
  346TIP3    H222530   2.318   2.252  16.826 -2.0965  0.3907 -1.4712
  347TIP3   OH222531   1.630   4.283  14.167 -0.0949  0.1542 -0.1681
  347TIP3    H122532   1.595   4.216  14.108 -1.3855  0.8962 -0.2767
  347TIP3    H222533   1.646   4.359  14.110  1.7110 -0.1818 -0.1127
  348TIP3   OH222534   6.150   0.039   5.750  0.3353  0.8058  0.1871
  348TIP3    H122535   6.078   0.015   5.692 -0.0816  0.6858  0.7480
  348TIP3    H222536   6.151  -0.030   5.817  0.3987  1.2875  0.6874
  349TIP3   OH222537   2.470   3.831  13.051 -0.4475 -0.1904  0.0730
  349TIP3    H122538   2.387   3.820  13.098 -1.6223  2.1363 -1.3696
  349TIP3    H222539   2.537   3.819  13.118 -2.0070  0.0907  1.7180
  350TIP3   OH222540   0.504   3.715   5.485  0.0766  0.4014  0.0611
  350TIP3    H122541   0.562   3.662   5.429  1.3843  0.5899  1.2099
  350TIP3    H222542   0.417   3.701   5.449  0.6852 -0.8397 -0.9759
  351TIP3   OH222543   5.871   3.388   2.922  0.2995 -0.7075  0.3492
  351TIP3    H122544   5.952   3.422   2.883 -0.7275 -0.7236 -1.8536
  351TIP3    H222545   5.806   3.456   2.906 -0.0955 -0.5520  2.4000
  352TIP3   OH222546   2.433   5.646  13.444  0.1731 -0.8396  0.2426
  352TIP3    H122547   2.431   5.625  13.538  0.5165  0.0353  0.4569
  352TIP3    H222548   2.520   5.685  13.430 -0.6877  1.0660  0.0301
  353TIP3   OH222549   5.741   6.385  13.052  0.7098  0.1630 -0.1845
  353TIP3    H122550   5.660   6.409  13.008  0.8809 -0.0508 -0.6275
  353TIP3    H222551   5.726   6.295  13.082  0.8088  0.0966 -0.3328
  354TIP3   OH222552   4.483   5.449  15.976  0.6474  0.0235  0.3351
  354TIP3    H122553   4.531   5.494  16.045 -0.0239  0.4132  0.5484
  354TIP3    H222554   4.544   5.382  15.944  1.6297  1.0363  0.0502
  355TIP3   OH222555   1.735   4.577  14.657  0.3920 -0.2050  0.3553
  355TIP3    H122556   1.758   4.491  14.620  1.4677 -0.1123  0.7694
  355TIP3    H222557   1.816   4.607  14.698  0.3252  1.5116 -0.7435
  356TIP3   OH222558   5.933   5.688   1.202 -0.7123  0.2016 -0.3401
  356TIP3    H122559   5.864   5.738   1.246 -1.7266 -0.9621 -0.5996
  356TIP3    H222560   5.918   5.703   1.109  2.2368  3.7613 -0.3994
  357TIP3   OH222561   6.404   1.465   1.245  0.1541 -0.6228 -0.0305
  357TIP3    H122562   6.350   1.427   1.314  0.2363 -1.9563 -0.6918
  357TIP3    H222563   6.487   1.486   1.288 -0.3621  0.0562  0.6399
  358TIP3   OH222564   3.050   1.906  14.196 -0.5920 -0.0271 -0.0337
  358TIP3    H122565   3.058   1.812  14.183  0.7560  0.1203 -0.3422
  358TIP3    H222566   2.986   1.934  14.130  2.1167 -0.1169 -2.8165
  359TIP3   OH222567   2.663   4.366   6.324  0.1533 -0.1158 -0.4283
  359TIP3    H122568   2.743   4.314   6.327  0.6114  0.6332  0.8706
  359TIP3    H222569   2.608   4.323   6.258  1.0926 -1.3876 -0.3913
  360TIP3   OH222570   3.145   2.963   3.551  0.1111 -0.4321 -0.2884
  360TIP3    H122571   3.162   2.956   3.645 -0.8635 -0.0896 -0.0851
  360TIP3    H222572   3.056   2.931   3.540  0.5445 -1.3654 -1.2337
  361TIP3   OH222573   0.486   4.810  11.334 -0.4011 -0.1933  0.1754
  361TIP3    H122574   0.514   4.883  11.279 -1.7945  0.1939 -0.0253
  361TIP3    H222575   0.458   4.743  11.272  0.4003 -0.7247  0.3746
  362TIP3   OH222576   5.650   4.629   4.270  0.2981  0.3648  0.2222
  362TIP3    H122577   5.669   4.677   4.189  0.1970  0.4950  0.2774
  362TIP3    H222578   5.587   4.683   4.317  0.0439  0.0923  0.1993
  363TIP3   OH222579   5.771   3.120  13.848  0.9938  0.2500  0.1379
  363TIP3    H122580   5.697   3.136  13.790  0.9523 -0.3971  0.0093
  363TIP3    H222581   5.805   3.035  13.821 -0.3110 -1.0388  2.4171
  364TIP3   OH222582   6.556   5.091  12.906 -0.1791 -0.6414 -0.1477
  364TIP3    H122583   6.611   5.015  12.925 -0.5849 -0.5388  1.5671
  364TIP3    H222584   6.468   5.055  12.898 -0.7926 -0.0759  3.3379
  365TIP3   OH222585   4.572   1.737  15.467 -0.3842 -0.2181 -0.1042
  365TIP3    H122586   4.496   1.684  15.443 -0.7464 -0.2047  0.9960
  365TIP3    H222587   4.540   1.827  15.463 -0.3605 -0.1995  0.1075
  366TIP3   OH222588   4.086   6.369  10.959 -0.3228 -1.1943 -0.2434
  366TIP3    H122589   4.055   6.401  10.874 -0.2533 -0.4963 -0.0076
  366TIP3    H222590   4.178   6.349  10.946 -0.3620 -1.2776 -0.3865
  367TIP3   OH222591   3.085   6.561   0.805 -0.3815  0.4479 -0.3158
  367TIP3    H122592   3.012   6.521   0.851 -0.5139  0.0161 -0.9069
  367TIP3    H222593   3.055   6.572   0.715  0.6472 -0.6929 -0.8106
  368TIP3   OH222594   3.186   5.705   2.614 -0.3816 -0.0756 -0.6275
  368TIP3    H122595   3.098   5.721   2.580 -1.2533 -0.7508  1.2553
  368TIP3    H222596   3.203   5.613   2.594 -0.5930 -0.2690  0.0658
  369TIP3   OH222597   6.770   5.052   5.719  0.3820  0.0381 -0.0883
  369TIP3    H122598   6.823   5.015   5.648  0.3368 -0.8862  0.3458
  369TIP3    H222599   6.831   5.060   5.792  0.4084  0.9115 -0.2098
  370TIP3   OH222600   0.901   0.471  13.623  0.2011 -0.2766  0.4720
  370TIP3    H122601   0.986   0.436  13.653  0.0558 -0.0175  1.1902
  370TIP3    H222602   0.886   0.427  13.539  0.1324 -1.7816  1.2519
  371TIP3   OH222603   0.929   1.595  17.089  0.4223  0.4740  0.2253
  371TIP3    H122604   0.994   1.648  17.134  1.0438  0.5009 -0.6851
  371TIP3    H222605   0.878   1.658  17.037 -0.5410  0.4941  1.1815
  372TIP3   OH222606   4.003   1.318  12.018  0.3644 -0.1044  0.3923
  372TIP3    H122607   4.020   1.259  12.091  1.2522  0.0145  0.2920
  372TIP3    H222608   4.023   1.405  12.052  2.0794 -0.1818 -0.3739
  373TIP3   OH222609   4.464   0.958   0.733  0.7958 -0.1635  0.3968
  373TIP3    H122610   4.441   0.866   0.719  1.4150 -0.1451 -0.7366
  373TIP3    H222611   4.547   0.955   0.782  2.2408 -0.2185 -1.9966
  374TIP3   OH222612   2.173   4.346   6.658  0.3928 -0.5410  0.3762
  374TIP3    H122613   2.154   4.252   6.651  0.0865 -0.4023 -0.7033
  374TIP3    H222614   2.114   4.377   6.726 -0.8120 -0.7798 -0.5484
  375TIP3   OH222615   5.340   0.116  11.459  0.8026  0.4413  0.6624
  375TIP3    H122616   5.347   0.211  11.456  1.7191  0.3819  0.6478
  375TIP3    H222617   5.381   0.087  11.377  1.3915 -0.0012  1.1063
  376TIP3   OH222618   6.574   1.733  15.813 -0.0472 -0.0340  0.0448
  376TIP3    H122619   6.513   1.730  15.739  0.2533 -1.1217 -0.1671
  376TIP3    H222620   6.518   1.723  15.890 -0.2889  0.3679 -0.0813
  377TIP3   OH222621   4.253   6.131   4.155  0.5888 -0.5934 -0.0099
  377TIP3    H122622   4.303   6.187   4.095 -0.3864 -0.3523 -0.6045
  377TIP3    H222623   4.301   6.048   4.155  0.8480 -0.4510 -0.7839
  378TIP3   OH222624   4.770   6.221   0.931 -0.4483 -0.2441  0.1686
  378TIP3    H122625   4.862   6.199   0.941  0.3503  3.8171  3.2371
  378TIP3    H222626   4.769   6.296   0.871 -1.5415  0.7685  1.3993
  379TIP3   OH222627   3.445   2.829   2.002 -0.3556  0.2002  0.3613
  379TIP3    H122628   3.443   2.922   2.023  1.9017  0.2707  0.3830
  379TIP3    H222629   3.437   2.825   1.907 -1.5780  0.3291  0.4433
  380TIP3   OH222630   2.568   0.941  16.373  0.0055 -0.7135 -0.7253
  380TIP3    H122631   2.640   0.982  16.327  1.4425 -1.1198  1.1011
  380TIP3    H222632   2.563   0.852  16.338  0.4447 -0.7054 -0.7979
  381TIP3   OH222633   3.531   5.267  13.111 -0.4311 -0.4049  0.1289
  381TIP3    H122634   3.514   5.258  13.205  2.9777 -0.4566  0.8147
  381TIP3    H222635   3.546   5.178  13.081  0.8217 -0.1879  0.0649
  382TIP3   OH222636   5.214   1.164  12.080 -0.1467 -0.2041 -0.5518
  382TIP3    H122637   5.167   1.220  12.019 -2.7729 -1.1260  0.5771
  382TIP3    H222638   5.150   1.099  12.109  1.3196 -0.4952  2.3110
  383TIP3   OH222639   1.623   2.305   2.643  0.0738 -0.5478  0.2971
  383TIP3    H122640   1.596   2.396   2.632 -2.6761 -1.1971  1.2766
  383TIP3    H222641   1.613   2.266   2.557  2.5347  0.3564 -0.4390
  384TIP3   OH222642   5.249   0.072  13.678 -0.5018 -0.2441  0.3477
  384TIP3    H122643   5.218   0.031  13.759 -0.2577  0.2087  0.6776
  384TIP3    H222644   5.172   0.113  13.640 -0.6437 -0.5737  0.2867
  385TIP3   OH222645   0.127   1.998   5.810 -0.2161  0.5544 -0.5591
  385TIP3    H122646   0.107   1.907   5.787 -1.1783  1.3684 -3.1176
  385TIP3    H222647   0.053   2.026   5.864  0.1108 -0.1956  0.2821
  386TIP3   OH222648   5.578   1.713  15.572  0.4493  0.7098  0.3254
  386TIP3    H122649   5.580   1.623  15.607  1.1635  0.3838 -0.5157
  386TIP3    H222650   5.661   1.720  15.524  0.1212  1.6312 -0.0928
  387TIP3   OH222651   0.543   3.382   1.150 -0.4057  0.0741 -0.3861
  387TIP3    H122652   0.452   3.389   1.123 -0.2134 -1.7444 -1.5810
  387TIP3    H222653   0.561   3.288   1.149  0.8824  0.2440  1.8726
  388TIP3   OH222654   0.458   1.419  11.468 -0.5725  0.2199  0.0013
  388TIP3    H122655   0.500   1.335  11.489 -0.8569  0.2754  0.7893
  388TIP3    H222656   0.460   1.469  11.550  1.2464  1.7076 -0.9271
  389TIP3   OH222657   0.451   6.083   0.498  0.1462 -0.1935  0.3326
  389TIP3    H122658   0.362   6.057   0.521 -0.0758 -0.0085 -0.3073
  389TIP3    H222659   0.458   6.067   0.404  0.4192  0.8593  0.1696
  390TIP3   OH222660   4.241   2.725   3.859 -0.0204 -0.2200  0.7545
  390TIP3    H122661   4.303   2.695   3.924  0.1622 -0.3001  0.5435
  390TIP3    H222662   4.210   2.809   3.893  0.7308  0.1588  0.5167
  391TIP3   OH222663   1.657   6.341   0.798  0.5232 -0.0090 -0.3889
  391TIP3    H122664   1.629   6.321   0.888  0.6371 -1.3445 -0.6306
  391TIP3    H222665   1.577   6.339   0.747  0.5056  0.3925 -0.3765
  392TIP3   OH222666   3.535   6.582   4.393  0.6455  0.1429  0.1869
  392TIP3    H122667   3.449   6.621   4.377 -0.2395 -1.4407  0.9332
  392TIP3    H222668   3.561   6.545   4.309  1.2791  1.8835 -0.4075
  393TIP3   OH222669   3.444   2.694  13.463  0.2992  0.2440  0.2732
  393TIP3    H122670   3.359   2.735  13.450  0.9482  1.1944 -1.1329
  393TIP3    H222671   3.477   2.731  13.544  0.9904  2.7436 -1.1044
  394TIP3   OH222672   1.646   6.032  17.179  0.1451  0.4499 -0.6505
  394TIP3    H122673   1.667   6.118  17.216 -0.3835  0.3312 -0.0613
  394TIP3    H222674   1.563   6.007  17.221  1.3236 -1.2559  0.7405
  395TIP3   OH222675   4.468   5.436  10.780  0.4020  0.0068 -0.3805
  395TIP3    H122676   4.546   5.401  10.739 -0.2712  0.0628 -1.7393
  395TIP3    H222677   4.421   5.479  10.709 -0.9435 -0.1732  0.3805
  396TIP3   OH222678   0.591   6.006  10.704  0.4587 -0.2394 -0.5845
  396TIP3    H122679   0.554   5.921  10.730 -0.6332  0.0049 -1.3160
  396TIP3    H222680   0.537   6.034  10.630 -0.7177  2.2264  1.1272
  397TIP3   OH222681   3.170   3.870   6.196  0.1611 -0.1585 -0.5200
  397TIP3    H122682   3.097   3.866   6.258  0.2361 -0.6556 -0.4593
  397TIP3    H222683   3.129   3.895   6.113 -0.0469 -0.2092 -0.4342
  398TIP3   OH222684   1.840   1.774  15.541  0.0413  0.4969 -0.0542
  398TIP3    H122685   1.921   1.809  15.502  0.6075 -1.0136 -0.2623
  398TIP3    H222686   1.800   1.850  15.583  1.1227  1.4575 -0.7043
  399TIP3   OH222687   2.471   4.719   2.303  1.1466  0.2381 -0.0424
  399TIP3    H122688   2.563   4.726   2.326  0.9486  1.0016  0.4960
  399TIP3    H222689   2.443   4.808   2.284  0.0929  0.2229  1.3952
  400TIP3   OH222690   2.525   3.386   3.297 -0.1985  0.1771 -0.2314
  400TIP3    H122691   2.484   3.433   3.370 -0.3299 -1.6832  0.9232
  400TIP3    H222692   2.456   3.376   3.233 -0.0742  1.8602 -0.6586
  401TIP3   OH222693   2.252   1.909   3.817 -0.1915 -0.2646  0.3210
  401TIP3    H122694   2.199   1.978   3.777 -0.8035  0.5890  2.5376
  401TIP3    H222695   2.216   1.828   3.782 -0.7122  0.4525 -0.8408
  402TIP3   OH222696   0.802   5.815   0.870  0.3969  0.2747 -0.2729
  402TIP3    H122697   0.847   5.730   0.867 -0.6318 -0.2227 -1.9225
  402TIP3    H222698   0.724   5.799   0.923  0.2646  0.2335 -0.4831
  403TIP3   OH222699   2.904   5.803  14.654  0.0779  0.1092  0.0407
  403TIP3    H122700   2.816   5.774  14.680  0.1257 -0.9430 -0.9321
  403TIP3    H222701   2.958   5.788  14.732 -0.3838 -0.2714  0.2933
  404TIP3   OH222702   5.636   3.311   0.805 -0.7545 -0.4590  0.5819
  404TIP3    H122703   5.671   3.373   0.741 -0.4681 -1.1339  0.0753
  404TIP3    H222704   5.565   3.359   0.848  0.1871  0.6030  0.9715
  405TIP3   OH222705   5.159   0.619   1.482 -0.0938 -0.0895  0.9741
  405TIP3    H122706   5.195   0.643   1.567 -0.9347  0.4684  1.1778
  405TIP3    H222707   5.183   0.693   1.425  1.9792 -1.2573  0.2954
  406TIP3   OH222708   0.598   6.730  13.720  0.7376  0.0914 -0.4609
  406TIP3    H122709   0.608   6.825  13.707 -1.0636  0.4365  0.4602
  406TIP3    H222710   0.687   6.697  13.725  1.4539  2.1746  2.0290
  407TIP3   OH222711   5.978   4.314   1.359  0.5555  0.0137 -0.4124
  407TIP3    H122712   6.046   4.370   1.322  0.0387  0.2140 -1.0677
  407TIP3    H222713   6.010   4.225   1.345  0.7319  0.1128 -0.6289
  408TIP3   OH222714   2.707   4.376   5.475  0.1127 -0.8923  0.3122
  408TIP3    H122715   2.731   4.467   5.459 -0.0833 -0.7976  0.5636
  408TIP3    H222716   2.760   4.349   5.549  0.4399 -1.0954  0.0064
  409TIP3   OH222717   2.329   0.523  14.670 -0.8948  0.1996 -0.6400
  409TIP3    H122718   2.393   0.468  14.625  0.9436  1.3109  0.5210
  409TIP3    H222719   2.359   0.525  14.761 -3.6208 -0.6927  0.3321
  410TIP3   OH222720   2.668   6.148  13.391 -0.1868  0.5659  0.0391
  410TIP3    H122721   2.625   6.138  13.306 -1.7775 -0.5162  0.9495
  410TIP3    H222722   2.687   6.059  13.419 -0.2763  0.8870  1.1315
  411TIP3   OH222723   3.941   2.050   0.817 -0.0761 -0.4535  1.1662
  411TIP3    H122724   4.012   2.077   0.758 -0.4832 -1.9734 -0.0465
  411TIP3    H222725   3.949   2.109   0.892  1.0253  0.9174  0.0142
  412TIP3   OH222726   6.046   3.656   2.789 -0.2951  0.3664 -0.0327
  412TIP3    H122727   6.055   3.751   2.796 -1.1560  0.3813  1.1277
  412TIP3    H222728   5.971   3.643   2.731 -0.2013  0.4032 -0.1603
  413TIP3   OH222729   1.099   0.889   4.725 -0.1039  0.1039  0.2706
  413TIP3    H122730   1.038   0.825   4.686  0.5340  0.4360 -1.3278
  413TIP3    H222731   1.146   0.925   4.650 -0.5122  2.5331  1.1402
  414TIP3   OH222732   1.861   4.294  15.752 -0.7599  0.3617  0.5243
  414TIP3    H122733   1.951   4.327  15.761 -0.0391 -1.6602  1.0111
  414TIP3    H222734   1.871   4.212  15.704 -2.5571  1.0479 -1.0379
  415TIP3   OH222735   3.113   5.072   3.480 -0.4901  0.3166 -0.0989
  415TIP3    H122736   3.137   5.156   3.518  1.5687  0.2789 -1.2350
  415TIP3    H222737   3.188   5.048   3.425 -0.6476 -2.7148  0.9358
  416TIP3   OH222738   0.235   1.267   5.090 -0.1508 -0.5154 -0.0138
  416TIP3    H122739   0.283   1.294   5.011  0.5438 -1.0411  0.2204
  416TIP3    H222740   0.303   1.256   5.156 -0.9935  2.5630  1.4444
  417TIP3   OH222741   6.687   6.061   5.285  0.5320 -0.6109 -0.2753
  417TIP3    H122742   6.773   6.019   5.290 -0.2527 -2.0069  2.2286
  417TIP3    H222743   6.635   6.004   5.229  0.9004 -0.3148 -0.9322
  418TIP3   OH222744   4.517   6.039   2.433 -0.2847 -0.4712  0.1200
  418TIP3    H122745   4.428   6.012   2.409  0.2840 -1.5688 -0.8549
  418TIP3    H222746   4.571   5.961   2.415  0.4284 -0.8502  3.5520
  419TIP3   OH222747   2.840   5.560   2.308 -0.5764  0.2604 -0.3470
  419TIP3    H122748   2.810   5.584   2.221  0.2047 -0.2694 -0.7733
  419TIP3    H222749   2.760   5.546   2.359 -1.0416 -0.7644 -1.3509
  420TIP3   OH222750   2.936   1.815   2.247 -0.3848 -0.3021  0.5671
  420TIP3    H122751   2.869   1.772   2.300 -0.1088 -1.5855 -0.1181
  420TIP3    H222752   2.976   1.879   2.306 -1.8766  0.1358  1.1223
  421TIP3   OH222753   5.254   5.966   1.868 -0.1358  0.6950  0.4509
  421TIP3    H122754   5.169   5.974   1.826  0.0416 -0.9756 -0.2430
  421TIP3    H222755   5.298   6.049   1.850 -1.2800  1.2252  0.0768
  422TIP3   OH222756   2.096   4.637   4.928 -0.5555 -0.1467 -0.5157
  422TIP3    H122757   2.011   4.599   4.905 -0.7508  0.1464 -0.2757
  422TIP3    H222758   2.128   4.674   4.846 -0.9170  0.2444 -0.4798
  423TIP3   OH222759   3.319   1.911   5.934 -0.3402 -0.2575 -0.0579
  423TIP3    H122760   3.404   1.914   5.890  0.0555 -0.6557  0.6766
  423TIP3    H222761   3.266   1.975   5.887  0.1429 -0.5201 -0.9799
  424TIP3   OH222762   2.871   6.453   3.624  0.3265  0.1007  0.8328
  424TIP3    H122763   2.813   6.404   3.682 -0.0254 -1.2761 -0.6265
  424TIP3    H222764   2.956   6.410   3.631  0.5084  0.4866  1.0082
  425TIP3   OH222765   1.103   6.566  16.362 -0.4323 -0.0544  0.0719
  425TIP3    H122766   1.073   6.648  16.401  0.5554  0.3393  0.0047
  425TIP3    H222767   1.198   6.566  16.375 -0.5670 -1.7951  1.2695
  426TIP3   OH222768   2.470   6.241  12.073 -0.1468  0.7063  0.8662
  426TIP3    H122769   2.472   6.156  12.031 -0.1385  0.8118  0.6496
  426TIP3    H222770   2.561   6.270  12.075  0.0747 -0.0334  2.4762
  427TIP3   OH222771   3.782   5.553  12.984 -0.3852  0.3971 -0.5481
  427TIP3    H122772   3.795   5.470  13.030 -1.3192  1.8391  2.4334
  427TIP3    H222773   3.709   5.536  12.924 -0.3019 -1.0217 -0.2614
  428TIP3   OH222774   2.941   2.013   1.498  0.5019 -0.2261  0.3151
  428TIP3    H122775   2.885   2.028   1.421  0.5106 -1.4487  0.0696
  428TIP3    H222776   2.969   2.101   1.524 -0.8456  0.3308 -0.0732
  429TIP3   OH222777   3.206   5.010   2.983 -0.0868 -0.4419  0.4954
  429TIP3    H122778   3.122   4.974   3.012  0.6755 -1.4972  1.4438
  429TIP3    H222779   3.202   5.004   2.887 -0.8051 -1.1502  0.5546
  430TIP3   OH222780   1.954   5.943  13.842  0.1356  0.1359  0.2546
  430TIP3    H122781   1.938   5.876  13.909 -1.0210 -0.2030 -0.3554
  430TIP3    H222782   2.032   5.913  13.796  0.3319 -0.1597  0.7755
  431TIP3   OH222783   2.266   1.173   4.755  0.1243  0.3554  0.5882
  431TIP3    H122784   2.279   1.173   4.850  0.4855 -1.1794  0.5561
  431TIP3    H222785   2.172   1.154   4.744 -0.0006  0.9276  0.6358
  432TIP3   OH222786   2.866   5.864   5.020 -0.5556 -0.2580  0.4276
  432TIP3    H122787   2.870   5.913   4.938 -0.2333 -1.0699 -0.0433
  432TIP3    H222788   2.954   5.869   5.056 -0.4334 -0.7776  0.2073
  433TIP3   OH222789   3.254   5.191   4.619 -0.1012 -0.2415 -0.0253
  433TIP3    H122790   3.344   5.221   4.621 -0.3704  0.5231  1.1414
  433TIP3    H222791   3.225   5.208   4.529  0.6405  0.3459 -0.1607
  434TIP3   OH222792   3.110   0.349   0.820  0.9650 -0.1816  0.7063
  434TIP3    H122793   3.065   0.418   0.869  2.0815  0.3014  1.0545
  434TIP3    H222794   3.052   0.273   0.826  0.8914  0.0043  2.3985
  435TIP3   OH222795   5.196   1.002  12.440  0.2996 -0.1692 -0.3327
  435TIP3    H122796   5.206   0.961  12.354  0.9936  0.9736 -0.8080
  435TIP3    H222797   5.122   0.956  12.480 -0.0819 -0.6519 -1.5708
  436TIP3   OH222798   6.033   5.037  16.910  0.0575 -0.4672 -0.0550
  436TIP3    H122799   5.964   5.090  16.871  1.6122  0.3032 -1.8180
  436TIP3    H222800   5.999   5.013  16.996 -1.2465  2.1895  0.2124
  437TIP3   OH222801   3.141   1.345   0.348 -0.5461  0.2366  0.2185
  437TIP3    H122802   3.180   1.318   0.431  0.1050  0.9960  0.1711
  437TIP3    H222803   3.101   1.430   0.367  1.2938  1.3434 -0.6957
  438TIP3   OH222804   1.491   0.027  15.618 -0.2893 -0.6155  0.2294
  438TIP3    H122805   1.405   0.002  15.651 -1.2585  2.2434  0.0440
  438TIP3    H222806   1.553  -0.010  15.681 -1.5870 -3.1679  0.0731
  439TIP3   OH222807   0.296   0.462  16.771 -0.8239  0.6953 -0.7585
  439TIP3    H122808   0.312   0.556  16.781 -1.9781  0.8994 -0.7347
  439TIP3    H222809   0.356   0.421  16.833 -0.8786  1.4631 -0.1799
  440TIP3   OH222810   2.127   4.125   0.558 -0.1459  0.0586  0.8727
  440TIP3    H122811   2.100   4.038   0.586 -0.3366  0.2593  1.3112
  440TIP3    H222812   2.047   4.178   0.565  0.0362  0.3347  0.8631
  441TIP3   OH222813   4.049   1.258   1.480 -0.2396  0.4826 -0.2563
  441TIP3    H122814   4.107   1.330   1.505 -0.0798 -0.2747  1.6131
  441TIP3    H222815   3.961   1.292   1.493 -0.2075  0.9313 -1.1254
  442TIP3   OH222816   1.050   3.392   5.694  0.6057 -0.3335  0.6541
  442TIP3    H122817   1.084   3.482   5.690  1.7377 -0.7330  1.1332
  442TIP3    H222818   1.049   3.363   5.602 -0.3351  0.3677  0.4327
  443TIP3   OH222819   5.142   3.755   1.008 -0.4594 -0.3806 -0.1636
  443TIP3    H122820   5.209   3.719   0.949  0.7619 -2.1199  2.2119
  443TIP3    H222821   5.186   3.830   1.050 -1.0843  0.4056 -0.8891
  444TIP3   OH222822   3.194   5.003  16.254  0.6268 -0.4320  0.0123
  444TIP3    H122823   3.204   5.053  16.173  1.3811  0.1290  0.4392
  444TIP3    H222824   3.134   4.932  16.231  0.5325 -0.0603 -0.9330
  445TIP3   OH222825   5.147   2.978   3.815 -0.6829  0.5266  0.9013
  445TIP3    H122826   5.166   2.887   3.838  0.3976  0.2798 -0.9365
  445TIP3    H222827   5.197   3.029   3.879  1.0999 -0.1571  0.0819
  446TIP3   OH222828   1.547   4.390  15.404 -0.3297 -0.4586 -0.4690
  446TIP3    H122829   1.615   4.418  15.466 -2.1795  1.1246  0.9082
  446TIP3    H222830   1.576   4.304  15.374  1.5229 -0.4682  1.2388
  447TIP3   OH222831   2.607   6.347  12.806  0.7501 -0.5420 -0.6091
  447TIP3    H122832   2.564   6.370  12.888  2.5482 -0.3122  0.3122
  447TIP3    H222833   2.621   6.431  12.762 -1.0400 -0.7471 -1.5945
  448TIP3   OH222834   1.208   0.697  12.907 -0.0868 -0.0749  0.0824
  448TIP3    H122835   1.176   0.630  12.968 -2.1280 -0.7452 -1.6683
  448TIP3    H222836   1.285   0.657  12.866 -0.4817 -0.8188  0.0491
  449TIP3   OH222837   3.188   4.359   1.574  0.0417 -0.1991 -0.0164
  449TIP3    H122838   3.186   4.263   1.578  0.5919 -0.3129 -1.7845
  449TIP3    H222839   3.271   4.379   1.531 -0.4555  1.0448 -0.4118
  450TIP3   OH222840   1.749   2.522  13.359  0.0855  0.0507  0.2592
  450TIP3    H122841   1.672   2.497  13.307 -0.0949  0.1313  0.4837
  450TIP3    H222842   1.767   2.445  13.413  1.9955 -1.0841 -1.9230
  451TIP3   OH222843   1.082   5.663   0.622 -0.6291  0.2340  0.3233
  451TIP3    H122844   1.102   5.648   0.530 -1.0794 -1.8823  0.5488
  451TIP3    H222845   1.017   5.734   0.622 -0.3394  0.5023 -0.9398
  452TIP3   OH222846   3.302   4.976   4.798 -0.1358  0.5125  0.1335
  452TIP3    H122847   3.280   5.039   4.729  1.0020  1.0838  0.2897
  452TIP3    H222848   3.374   5.016   4.846  1.1343 -1.2710 -0.2505
  453TIP3   OH222849   5.494   3.023  15.382 -0.1159 -0.2223 -0.1477
  453TIP3    H122850   5.405   3.009  15.413 -0.3859 -0.1214 -0.8814
  453TIP3    H222851   5.522   2.938  15.348 -0.4312  0.0872 -1.1919
  454TIP3   OH222852   1.734   4.176   1.467 -0.1655  0.0480 -0.1012
  454TIP3    H122853   1.672   4.121   1.515  1.6501 -1.5221  0.4894
  454TIP3    H222854   1.761   4.242   1.530  0.2626 -0.4553  0.2399
  455TIP3   OH222855   2.323   3.506  12.878  0.6302  0.0914  0.3528
  455TIP3    H122856   2.285   3.488  12.964  0.6120 -0.7661  0.1667
  455TIP3    H222857   2.413   3.531  12.897  0.2435  1.2218  0.7230
  456TIP3   OH222858   4.821   0.891  14.029 -0.3812 -0.0220 -0.2492
  456TIP3    H122859   4.778   0.818  13.984  1.7633 -1.1588 -0.4970
  456TIP3    H222860   4.879   0.928  13.962  1.9601 -0.9934  1.1958
  457TIP3   OH222861   2.910   2.887   4.695  0.1141  0.6157 -0.2400
  457TIP3    H122862   2.915   2.975   4.731 -0.5016 -0.2945  2.1328
  457TIP3    H222863   2.882   2.832   4.768  2.9206 -1.9804 -1.0034
  458TIP3   OH222864   4.472   3.968  11.338  0.5512  0.4102  1.0549
  458TIP3    H122865   4.506   3.999  11.422  1.2449 -1.2253  1.4018
  458TIP3    H222866   4.378   3.954  11.353  1.0088 -1.6814  2.1352
  459TIP3   OH222867   4.806   1.037  11.307 -0.4022  0.8537 -0.1424
  459TIP3    H122868   4.813   0.985  11.226  3.1964 -1.1295  1.3443
  459TIP3    H222869   4.745   0.987  11.361  0.1168  0.1808 -0.1741
  460TIP3   OH222870   3.692   1.102  12.799 -0.1804  0.2017 -0.2715
  460TIP3    H122871   3.624   1.119  12.733 -1.6230  0.1962  1.1587
  460TIP3    H222872   3.680   1.172  12.864  1.5704  0.5250 -0.2997
  461TIP3   OH222873   1.703   0.164   5.335 -0.0653 -0.1333 -0.1359
  461TIP3    H122874   1.697   0.120   5.250 -0.0811  0.2803 -0.3500
  461TIP3    H222875   1.777   0.121   5.379 -0.6102 -0.9427 -0.0095
  462TIP3   OH222876   4.243   3.280  13.533  0.6048 -0.4132 -0.3179
  462TIP3    H122877   4.294   3.232  13.468  2.6389  0.1150  0.8425
  462TIP3    H222878   4.262   3.236  13.616  0.2096  0.6038  0.3257
  463TIP3   OH222879   4.155   3.782   5.076 -0.1526 -0.3974 -0.9967
  463TIP3    H122880   4.229   3.722   5.066 -1.5545 -2.0388 -1.6013
  463TIP3    H222881   4.122   3.766   5.164 -1.7065 -1.8953 -1.8321
  464TIP3   OH222882   1.067   5.314  12.156 -0.3771  0.1347 -0.2938
  464TIP3    H122883   1.094   5.249  12.220  1.1202 -0.1804 -1.2250
  464TIP3    H222884   1.080   5.272  12.071  1.3583  1.9014 -0.9377
  465TIP3   OH222885   3.805   4.024  16.465 -0.2938 -0.0165 -0.1903
  465TIP3    H122886   3.851   4.100  16.430  1.3709 -0.5934  0.7108
  465TIP3    H222887   3.780   4.050  16.553  1.1566 -0.8470  0.4833
  466TIP3   OH222888   3.046   4.377   3.494  0.1022  0.2082 -0.7617
  466TIP3    H122889   2.974   4.438   3.483 -0.6921 -1.0820 -3.2111
  466TIP3    H222890   3.004   4.290   3.495  1.3273 -0.3959  1.1682
  467TIP3   OH222891   5.069   6.703  10.985 -0.3442 -0.0421  0.5198
  467TIP3    H122892   5.032   6.615  10.973  0.1109 -0.3334  1.2224
  467TIP3    H222893   5.057   6.745  10.900 -2.1763 -0.1607  0.7021
  468TIP3   OH222894   4.549   0.472   1.254  0.4519  0.2283 -0.1163
  468TIP3    H122895   4.595   0.500   1.174  0.7446  1.2960  0.4152
  468TIP3    H222896   4.612   0.416   1.299  0.2446 -0.4680 -0.6894
  469TIP3   OH222897   1.491   2.010  16.969 -0.1121 -0.4625 -0.0636
  469TIP3    H122898   1.473   2.100  16.944  0.7333 -0.5684 -1.0756
  469TIP3    H222899   1.451   2.000  17.056 -0.8147  0.6674 -0.2586
  470TIP3   OH222900   3.148   0.275   5.917  0.0592 -0.0718 -0.4098
  470TIP3    H122901   3.150   0.211   5.989  1.7383  0.2206 -0.1731
  470TIP3    H222902   3.094   0.346   5.951 -1.9693 -1.4058 -0.7345
  471TIP3   OH222903   5.012   1.028   0.242  0.5320  0.2974  0.3963
  471TIP3    H122904   5.026   1.121   0.261 -2.6196  0.4217  2.4387
  471TIP3    H222905   4.963   1.026   0.161  1.2856  0.3543 -0.0688
  472TIP3   OH222906   5.447   4.622  13.023  0.3094  0.5408 -0.0309
  472TIP3    H122907   5.355   4.613  13.049 -0.1749  0.2425 -1.7265
  472TIP3    H222908   5.447   4.601  12.929  2.3843 -1.0394  0.2954
  473TIP3   OH222909   5.301   5.399   2.075  0.5258 -0.0874 -0.3994
  473TIP3    H122910   5.317   5.453   2.153  0.2228  0.0710 -0.4466
  473TIP3    H222911   5.279   5.313   2.110  1.9527 -0.4414 -0.3404
  474TIP3   OH222912   3.659   2.073   0.693 -0.9712  1.0106 -0.0500
  474TIP3    H122913   3.626   1.995   0.738 -0.3814  1.2839  0.8716
  474TIP3    H222914   3.745   2.088   0.732  0.5430 -0.0607 -2.8670
  475TIP3   OH222915   2.290   1.676  12.679  0.8594  0.2387  0.1156
  475TIP3    H122916   2.253   1.629  12.605 -0.0056  0.1784  0.5820
  475TIP3    H222917   2.293   1.768  12.651 -0.5450  0.3872  0.4239
  476TIP3   OH222918   0.754   1.033  13.829 -0.1193 -0.0815  0.2962
  476TIP3    H122919   0.775   0.941  13.843 -0.4038 -0.0067  1.2693
  476TIP3    H222920   0.734   1.067  13.916 -0.7726  0.7097 -0.1468
  477TIP3   OH222921   4.370   4.490   4.620 -0.0967 -0.2690  0.7665
  477TIP3    H122922   4.275   4.495   4.610 -0.4467 -1.5739  3.0501
  477TIP3    H222923   4.404   4.565   4.571 -2.1026 -1.4186 -2.5001
  478TIP3   OH222924   3.828   2.789   4.243  0.2270  0.1878  0.3771
  478TIP3    H122925   3.883   2.866   4.228 -0.6442  0.7211 -0.1311
  478TIP3    H222926   3.885   2.727   4.288  1.6831  0.1672 -1.4494
  479TIP3   OH222927   2.960   6.369  15.804 -0.0627 -0.2485  0.9523
  479TIP3    H122928   2.929   6.287  15.843  2.5583 -1.2856  0.9350
  479TIP3    H222929   3.046   6.383  15.844  0.2932  1.5367 -0.4056
  480TIP3   OH222930   6.112   1.084   2.549 -0.0632 -0.3319 -0.6371
  480TIP3    H122931   6.108   1.172   2.512 -0.3057 -0.8178 -1.7966
  480TIP3    H222932   6.083   1.095   2.640  2.4250  1.2121  0.0216
  481TIP3   OH222933   6.744   6.221   2.212  0.2426 -0.1071  0.1310
  481TIP3    H122934   6.786   6.284   2.153  1.3497 -1.1020 -0.1371
  481TIP3    H222935   6.720   6.274   2.288  0.4928  0.7997 -0.4027
  482TIP3   OH222936   1.356   3.627   0.955  0.1559 -0.1629  0.1166
  482TIP3    H122937   1.369   3.699   1.017 -1.8443 -0.0038  0.3594
  482TIP3    H222938   1.427   3.637   0.891  1.0339  0.8652  1.2223
  483TIP3   OH222939   5.272   4.492   5.303  0.4599 -0.1394 -0.3144
  483TIP3    H122940   5.358   4.480   5.263  0.6751  0.5556 -0.0734
  483TIP3    H222941   5.238   4.404   5.315  0.4537 -0.3709 -1.8875
  484TIP3   OH222942   1.110   6.151  11.036  0.6503  0.1101  0.4384
  484TIP3    H122943   1.094   6.152  11.130 -0.3599  1.9103  0.2645
  484TIP3    H222944   1.049   6.216  11.000  2.5078  0.9931 -1.2178
  485TIP3   OH222945   0.670   3.652  16.160 -0.2915 -0.1351 -0.7782
  485TIP3    H122946   0.722   3.619  16.233 -1.7099  0.8028  0.7116
  485TIP3    H222947   0.734   3.672  16.092  1.3604  1.4092  1.1556
  486TIP3   OH222948   4.648   0.271   3.282 -0.7694 -0.2572 -0.1951
  486TIP3    H122949   4.645   0.230   3.196 -1.2759  0.2949 -0.4416
  486TIP3    H222950   4.683   0.359   3.266  1.2696 -0.9237  0.4631
  487TIP3   OH222951   4.906   1.227   2.234 -0.5571  0.2409 -0.7002
  487TIP3    H122952   4.993   1.209   2.270 -0.6798 -2.4817 -1.6896
  487TIP3    H222953   4.912   1.202   2.142 -2.2946  0.3275 -0.8563
  488TIP3   OH222954   6.422   0.278  11.929  0.6446 -0.2355  0.4188
  488TIP3    H122955   6.375   0.213  11.877  0.8372 -1.3993  1.6866
  488TIP3    H222956   6.514   0.252  11.921  0.6327 -0.6722  1.6968
  489TIP3   OH222957   6.498   6.016   1.484  0.0058 -1.0245 -0.0090
  489TIP3    H122958   6.423   6.030   1.543  1.1514  1.3893  0.9391
  489TIP3    H222959   6.566   5.979   1.540  1.1648  1.4597  0.2540
  490TIP3   OH222960   5.317   3.118   3.106 -0.0811  0.7515 -0.2453
  490TIP3    H122961   5.301   3.133   3.199  0.3798  2.0098 -0.3568
  490TIP3    H222962   5.410   3.138   3.093  0.4065 -1.6266 -0.5542
  491TIP3   OH222963   5.580   0.490   5.923  0.4229  0.1985  0.0653
  491TIP3    H122964   5.532   0.434   5.984 -0.6289  1.7973  0.7521
  491TIP3    H222965   5.666   0.448   5.914 -0.3024 -1.4360  0.6480
  492TIP3   OH222966   5.565   0.695  12.557  0.1497 -0.0261  0.0447
  492TIP3    H122967   5.515   0.667  12.481 -0.3923  0.3261  0.2666
  492TIP3    H222968   5.565   0.791  12.551 -1.1242  0.0576  1.2714
  493TIP3   OH222969   1.632   6.395  14.674 -0.1839 -0.2633 -0.3343
  493TIP3    H122970   1.623   6.398  14.769  0.0584  1.6519 -0.3393
  493TIP3    H222971   1.545   6.370  14.642 -0.0354 -1.7726  0.4095
  494TIP3   OH222972   6.424   1.409   6.882  0.1645  0.1335  0.2005
  494TIP3    H122973   6.394   1.451   6.962 -1.3624  0.8269 -0.7076
  494TIP3    H222974   6.504   1.456   6.858  0.9098 -0.4070  1.5678
  495TIP3   OH222975   4.190   3.429   5.757  0.2603  0.0815  0.1346
  495TIP3    H122976   4.201   3.451   5.849 -0.6521  0.6348  0.1226
  495TIP3    H222977   4.266   3.470   5.714  0.4139  0.2618  0.5711
  496TIP3   OH222978   3.253   2.535  16.499 -0.0254 -0.1398  0.1073
  496TIP3    H122979   3.191   2.600  16.533  0.4531  1.8261 -2.5637
  496TIP3    H222980   3.205   2.489  16.431  1.5183  1.8700 -2.4734
  497TIP3   OH222981   4.929   6.684   3.019  0.1956 -0.2122 -0.7699
  497TIP3    H122982   4.981   6.603   3.019 -1.0617 -1.0269  0.0872
  497TIP3    H222983   4.880   6.682   2.937  1.0803  0.2955 -1.3256
  498TIP3   OH222984   1.863   3.450  16.446  0.4506 -0.4802 -0.0376
  498TIP3    H122985   1.825   3.527  16.403 -0.3417 -0.1010  1.3169
  498TIP3    H222986   1.918   3.486  16.516  0.6091 -1.1355  0.1789
  499TIP3   OH222987   3.227   2.079  15.832 -0.0487 -0.0580  0.3246
  499TIP3    H122988   3.294   2.112  15.892  1.7177 -1.4583 -0.8367
  499TIP3    H222989   3.185   2.007  15.880 -0.4228  0.5203  0.8733
  500TIP3   OH222990   6.488   0.994  13.343 -0.4713  0.0951 -0.4226
  500TIP3    H122991   6.533   0.996  13.259  0.3400  0.5160  0.0154
  500TIP3    H222992   6.467   0.902  13.358  2.6526 -0.5256  0.6269
  501TIP3   OH222993   3.621   1.612   3.907  0.2732  0.0215  0.0059
  501TIP3    H122994   3.694   1.624   3.846 -0.5475  0.9276 -0.8321
  501TIP3    H222995   3.662   1.593   3.991  1.4249 -1.4409 -0.8682
  502TIP3   OH222996   4.806   1.959   0.732 -0.3333 -0.0057  0.2460
  502TIP3    H122997   4.868   1.944   0.804  0.7409  1.1136 -0.4071
  502TIP3    H222998   4.798   1.874   0.689 -0.5616 -0.5583  1.3530
  503TIP3   OH222999   3.175   6.120   3.612  0.3093  0.1219  0.1938
  503TIP3    H123000   3.110   6.095   3.678  1.5289  0.8607  1.7399
  503TIP3    H223001   3.248   6.059   3.627  0.2556 -0.2715 -1.0790
  504TIP3   OH223002   3.717   6.135   4.576  0.0502  0.1884  0.3905
  504TIP3    H123003   3.774   6.061   4.597  0.0083  0.2644  0.7858
  504TIP3    H223004   3.751   6.208   4.628  1.2843  0.9699 -1.4642
  505TIP3   OH223005   5.198   5.746   4.595 -0.3891  0.4669 -0.2377
  505TIP3    H123006   5.261   5.674   4.596  1.0998  1.7341  0.9924
  505TIP3    H223007   5.252   5.824   4.580 -2.0673  1.2453 -2.5172
  506TIP3   OH223008   2.831   2.344  16.219 -0.2454 -0.1283 -0.2340
  506TIP3    H123009   2.788   2.389  16.293 -0.9978 -1.4777  0.1615
  506TIP3    H223010   2.920   2.327  16.250 -0.1746  0.4363 -0.1172
  507TIP3   OH223011   1.630   4.094  14.496  0.3360  0.2703 -0.0204
  507TIP3    H123012   1.630   4.132  14.583  0.5433 -1.7266  0.8725
  507TIP3    H223013   1.714   4.048  14.490 -0.0843 -0.3927 -0.9325
  508TIP3   OH223014   1.320   5.341  16.499  0.3063 -0.2501 -0.1972
  508TIP3    H123015   1.298   5.258  16.457 -0.1109  0.4024 -1.2757
  508TIP3    H223016   1.318   5.405  16.429 -1.0135  0.9633  0.9074
  509TIP3   OH223017   5.871   0.988  14.661 -0.9045 -0.0039  0.4454
  509TIP3    H123018   5.838   1.055  14.601  0.3325  0.7030  0.5458
  509TIP3    H223019   5.966   0.996  14.656 -0.7692  0.9921  3.5177
  510TIP3   OH223020   2.699   2.255   4.916 -0.0736  0.2793  0.3002
  510TIP3    H123021   2.719   2.335   4.964  0.9159  0.4270 -0.3415
  510TIP3    H223022   2.625   2.217   4.963  0.6650  0.5838  1.7472
  511TIP3   OH223023   3.181   1.131   0.535  0.2162  0.3743  0.2392
  511TIP3    H123024   3.268   1.101   0.560  0.2574  0.5900  0.3532
  511TIP3    H223025   3.146   1.060   0.481  0.5011  0.3353  0.1058
  512TIP3   OH223026   5.147   3.586  11.672  0.0194 -0.3497  0.0580
  512TIP3    H123027   5.077   3.521  11.673 -1.0571  0.7350 -2.0301
  512TIP3    H223028   5.115   3.657  11.729 -0.0778 -0.3618  0.0179
  513TIP3   OH223029   3.557   3.803   2.308  0.4809  0.3368 -0.3253
  513TIP3    H123030   3.557   3.889   2.265  0.2782  1.3741  1.6825
  513TIP3    H223031   3.529   3.821   2.397  0.0786 -1.8932  0.0251
  514TIP3   OH223032   2.844   3.728  17.086 -0.0667 -0.0653 -0.6135
  514TIP3    H123033   2.779   3.730  17.156 -0.4961 -1.2111 -0.9791
  514TIP3    H223034   2.842   3.817  17.049  0.0505  0.4926  0.7171
  515TIP3   OH223035   1.892   0.559  11.864 -0.1201  0.4065  0.4499
  515TIP3    H123036   1.938   0.482  11.829  0.6068  0.3250  1.5362
  515TIP3    H223037   1.962   0.617  11.893 -0.6562  1.7780 -0.9590
  516TIP3   OH223038   2.060   5.760   5.575 -0.3947  0.0116  0.3612
  516TIP3    H123039   2.086   5.802   5.493 -0.8789 -1.4588 -0.5656
  516TIP3    H223040   2.131   5.781   5.636 -0.2572  1.5066 -0.2950
  517TIP3   OH223041   2.169   4.800   3.715  0.2970 -0.0544  0.9266
  517TIP3    H123042   2.134   4.731   3.658  1.2496  1.0209 -1.0146
  517TIP3    H223043   2.263   4.782   3.718  0.5660  1.2334  0.2948
  518TIP3   OH223044   1.544   4.761  13.560 -0.7960  0.3295 -0.8201
  518TIP3    H123045   1.598   4.815  13.503 -1.7792  0.8344 -1.2839
  518TIP3    H223046   1.607   4.708  13.610  0.1845  1.9892 -0.2589
  519TIP3   OH223047   2.078   4.927   4.048 -0.2361  0.5048 -0.2811
  519TIP3    H123048   2.012   4.959   4.109 -1.1541  0.8817 -1.4539
  519TIP3    H223049   2.119   5.005   4.011 -0.8788  0.3194 -1.4226
  520TIP3   OH223050   6.576   6.586   1.943  0.1786 -0.5782  0.3929
  520TIP3    H123051   6.561   6.656   1.880  0.1554  0.0971  1.1449
  520TIP3    H223052   6.515   6.517   1.916 -0.4100  0.0190  0.1620
  521TIP3   OH223053   5.423   1.722  17.072 -0.3623 -0.3647 -0.9180
  521TIP3    H123054   5.369   1.800  17.065  0.0622 -0.0626 -0.8066
  521TIP3    H223055   5.497   1.748  17.127 -0.3741 -0.9267 -0.6329
  522TIP3   OH223056   2.549   6.335   1.902 -0.0851  0.1206  0.3004
  522TIP3    H123057   2.632   6.340   1.855  0.3371 -0.3330  0.9964
  522TIP3    H223058   2.555   6.255   1.954 -1.7628 -1.0260 -1.1811
  523TIP3   OH223059   5.964   1.124  13.983  0.7495  0.7616  0.3719
  523TIP3    H123060   5.965   1.029  13.993  1.5558  0.6523 -0.6907
  523TIP3    H223061   5.993   1.157  14.068  0.9976  0.0416  0.5682
  524TIP3   OH223062   6.771   5.170   3.153 -0.2657  0.1579  0.0765
  524TIP3    H123063   6.832   5.218   3.209 -1.0330 -0.3817  1.4173
  524TIP3    H223064   6.686   5.182   3.196 -0.6304 -1.5025 -0.1473
  525TIP3   OH223065   5.606   1.628   5.124 -0.2716  0.3503  0.8089
  525TIP3    H123066   5.661   1.696   5.085 -0.4343 -0.0675 -0.1720
  525TIP3    H223067   5.607   1.646   5.218  0.6812  0.9725  0.6794
  526TIP3   OH223068   3.893   2.539   2.456 -0.2292 -0.2959  0.1418
  526TIP3    H123069   3.963   2.601   2.438  1.5318 -1.8529  1.4723
  526TIP3    H223070   3.816   2.594   2.473  0.7470  1.4442 -0.9264
  527TIP3   OH223071   0.963   1.751  13.825 -0.1654  0.1018  0.4507
  527TIP3    H123072   1.009   1.737  13.907 -0.3147  0.2625  0.5624
  527TIP3    H223073   1.027   1.795  13.768  0.0507 -0.3302  0.3618
  528TIP3   OH223074   3.211   4.816  13.179 -0.0339  0.2449  0.3660
  528TIP3    H123075   3.283   4.831  13.241  1.6481 -2.1084 -0.9277
  528TIP3    H223076   3.226   4.879  13.109 -0.3023  0.9970  0.9783
  529TIP3   OH223077   6.048   6.030   0.152  0.7370 -0.0913  0.4753
  529TIP3    H123078   6.113   6.069   0.093 -0.2001  0.3769 -0.2704
  529TIP3    H223079   5.965   6.072   0.127  0.3658  0.2746  2.2969
  530TIP3   OH223080   3.235   5.797  17.007 -0.7050 -0.5182  0.2519
  530TIP3    H123081   3.282   5.715  17.025 -2.9001 -1.7352  0.5586
  530TIP3    H223082   3.154   5.770  16.965 -1.6355  1.4709  0.7102
  531TIP3   OH223083   4.037   5.824   1.743  0.6247 -0.0297 -0.8848
  531TIP3    H123084   4.007   5.835   1.653 -1.2929 -0.5541 -0.3440
  531TIP3    H223085   4.051   5.913   1.775 -2.0757  0.3744 -0.6443
  532TIP3   OH223086   5.828   2.439   5.774  0.9315  0.0480 -0.2852
  532TIP3    H123087   5.847   2.351   5.742  1.4546  0.2909 -0.6605
  532TIP3    H223088   5.767   2.426   5.846  0.6027 -0.5900 -0.6692
  533TIP3   OH223089   3.536   4.313  11.518  0.7884  0.2488 -0.1845
  533TIP3    H123090   3.531   4.239  11.579  1.8438 -0.1239 -0.5405
  533TIP3    H223091   3.630   4.323  11.501  0.5214  0.5903 -1.4513
  534TIP3   OH223092   0.123   6.148   0.972  0.4939  0.4615 -0.0666
  534TIP3    H123093   0.198   6.186   0.928 -0.8055  1.1424 -1.7399
  534TIP3    H223094   0.061   6.128   0.902 -0.7110 -0.5218  1.2298
  535TIP3   OH223095   1.886   2.224   5.924 -0.1056 -0.2726 -0.0589
  535TIP3    H123096   1.842   2.198   6.005  2.7540 -2.4832  0.8565
  535TIP3    H223097   1.939   2.300   5.949 -1.3174  0.7454 -0.5363
  536TIP3   OH223098   5.478   2.726  12.833 -0.5263  0.3036  0.5343
  536TIP3    H123099   5.572   2.714  12.815 -0.5696  1.5261 -0.5629
  536TIP3    H223100   5.448   2.639  12.861  0.4244 -0.6922 -1.4450
  537TIP3   OH223101   4.466   5.899  16.701  0.4275 -0.4137  0.0863
  537TIP3    H123102   4.496   5.838  16.635  0.4478 -1.0607  0.6831
  537TIP3    H223103   4.545   5.926  16.747  0.6442  1.4704 -1.3481
  538TIP3   OH223104   1.535   2.311  12.308  0.1248 -0.3602 -0.8178
  538TIP3    H123105   1.511   2.404  12.304 -0.1495 -0.4607 -1.5107
  538TIP3    H223106   1.537   2.291  12.401  3.6223  1.2578 -0.4480
  539TIP3   OH223107   4.551   5.221   5.027 -0.5686  0.3570  0.0773
  539TIP3    H123108   4.643   5.195   5.026 -0.6031  0.2569 -1.9941
  539TIP3    H223109   4.554   5.316   5.039 -0.1672  0.3932 -0.2767
  540TIP3   OH223110   0.762   4.192   6.307  0.6366  0.2125 -0.6742
  540TIP3    H123111   0.804   4.190   6.393 -0.6440 -0.1557 -0.0453
  540TIP3    H223112   0.688   4.251   6.318  0.3631  0.0260 -1.4766
  541TIP3   OH223113   2.816   0.819   0.010 -0.3479 -0.0379 -0.0130
  541TIP3    H123114   2.875   0.756   0.050 -0.0362 -0.8019 -1.6169
  541TIP3    H223115   2.845   0.904   0.044  1.8739 -0.3631 -0.9901
  542TIP3   OH223116   0.101   0.907  12.787  0.1818  0.1246 -0.0356
  542TIP3    H123117   0.070   0.868  12.705 -0.3117 -0.0042  0.2139
  542TIP3    H223118   0.179   0.956  12.761 -0.4427  0.7605 -0.7272
  543TIP3   OH223119   1.704   2.321   5.178 -0.4016  0.3453 -0.1880
  543TIP3    H123120   1.682   2.337   5.086 -0.2689  1.2577 -0.0652
  543TIP3    H223121   1.790   2.362   5.189 -0.0895 -0.3900  0.1615
  544TIP3   OH223122   4.585   5.402  11.412 -0.0886  0.3820  0.0335
  544TIP3    H123123   4.679   5.402  11.394 -0.0104  2.7794  0.2119
  544TIP3    H223124   4.575   5.343  11.486  1.2305 -0.1060 -0.1536
  545TIP3   OH223125   3.629   6.510   0.079  0.4049 -0.1957  0.1100
  545TIP3    H123126   3.571   6.562   0.134 -1.2153  0.5853 -2.2763
  545TIP3    H223127   3.692   6.573   0.043 -1.2207  0.1031 -2.3433
  546TIP3   OH223128   3.893   6.072   0.815 -0.4590  0.3040 -0.0299
  546TIP3    H123129   3.973   6.096   0.769 -0.3804  1.2134  0.5715
  546TIP3    H223130   3.871   5.985   0.782  1.6593 -0.6352  0.9639
  547TIP3   OH223131   5.483   4.398  15.808 -0.1677  0.0030  0.4538
  547TIP3    H123132   5.438   4.314  15.800  0.5029 -0.4142  1.0016
  547TIP3    H223133   5.447   4.437  15.887  1.0107 -0.6955  1.3487
  548TIP3   OH223134   6.547   2.259   1.334 -0.1156  0.0232  0.3246
  548TIP3    H123135   6.518   2.169   1.319 -0.1284 -0.0876  0.9690
  548TIP3    H223136   6.468   2.312   1.323  0.0838  0.0592 -0.9647
  549TIP3   OH223137   4.997   1.547   4.808  0.4241 -0.0546  0.2290
  549TIP3    H123138   5.006   1.533   4.903  1.4797  1.5095  0.3619
  549TIP3    H223139   5.060   1.616   4.787 -0.1464 -0.0468 -1.5402
  550TIP3   OH223140   4.526   6.741  11.439  0.2626  0.1456 -0.0448
  550TIP3    H123141   4.566   6.789  11.366 -1.1098  0.4377 -0.6161
  550TIP3    H223142   4.434   6.765  11.436 -0.0200 -0.7522  1.0832
  551TIP3   OH223143   4.403   1.990  11.348 -0.0517  0.3063  0.0902
  551TIP3    H123144   4.423   1.945  11.430 -1.6125 -2.0422 -0.7401
  551TIP3    H223145   4.323   1.947  11.317 -0.5881  2.4977 -1.6808
  552TIP3   OH223146   5.622   6.170   0.634 -0.1240  0.3280 -0.3736
  552TIP3    H123147   5.638   6.255   0.591  1.5222 -0.4726 -1.4110
  552TIP3    H223148   5.528   6.155   0.623 -0.1759  1.3524 -1.4512
  553TIP3   OH223149   2.597   0.051   5.176 -0.3526 -0.6286 -0.0175
  553TIP3    H123150   2.578   0.118   5.110  2.2919 -2.0031 -2.2613
  553TIP3    H223151   2.671   0.087   5.225  0.0462 -1.1991 -0.1992
  554TIP3   OH223152   3.913   3.813   2.350 -0.2321  0.4006  0.3211
  554TIP3    H123153   3.930   3.884   2.412 -0.2009  0.2226  0.5181
  554TIP3    H223154   3.862   3.749   2.401 -1.1056  0.7317 -0.1377
  555TIP3   OH223155   2.690   5.332  16.180  0.2205  0.0860 -0.3015
  555TIP3    H123156   2.633   5.331  16.103  2.0939  0.0196 -1.7173
  555TIP3    H223157   2.718   5.423  16.188  0.5497 -0.0302 -0.1102
  556TIP3   OH223158   5.993   0.492  12.773  0.0793  0.1401  0.7735
  556TIP3    H123159   5.968   0.426  12.708  1.6881 -0.2799  0.5619
  556TIP3    H223160   6.053   0.447  12.832 -0.3552  0.8824  1.8151
  557TIP3   OH223161   0.307   2.511  10.562 -0.0109  0.2602  0.2967
  557TIP3    H123162   0.213   2.524  10.577  0.3508  1.8746  1.3841
  557TIP3    H223163   0.345   2.598  10.576  1.7233 -0.5251  0.5485
  558TIP3   OH223164   2.533   0.636   1.115  0.1603 -0.4506  0.3532
  558TIP3    H123165   2.604   0.593   1.069  1.7659  0.1400  2.1890
  558TIP3    H223166   2.568   0.655   1.202 -2.5135 -0.8567  1.5896
  559TIP3   OH223167   4.809   5.275   2.513 -0.0462  0.1024 -0.6625
  559TIP3    H123168   4.779   5.228   2.435  0.8913  0.1514 -1.0690
  559TIP3    H223169   4.895   5.309   2.488  0.9410 -1.1705  0.8936
  560TIP3   OH223170   5.580   4.778  12.243 -0.0106  0.2934 -0.1749
  560TIP3    H123171   5.609   4.749  12.156 -0.9788 -1.6177  0.1243
  560TIP3    H223172   5.509   4.718  12.266 -1.0470  1.9695  1.1350
  561TIP3   OH223173   4.527   5.072   4.233 -0.4393  0.4366 -0.1067
  561TIP3    H123174   4.619   5.054   4.211 -0.3701 -0.9130  1.2757
  561TIP3    H223175   4.486   4.986   4.239 -1.2364  0.9293  1.7212
  562TIP3   OH223176   3.755   3.639   0.299 -0.5682  0.6034 -0.6008
  562TIP3    H123177   3.673   3.655   0.252 -0.3761  1.3849 -0.6751
  562TIP3    H223178   3.746   3.550   0.334 -1.7858  0.9860  0.0891
  563TIP3   OH223179   5.122   0.599  12.634  0.0624  0.6169  0.0905
  563TIP3    H123180   5.093   0.688  12.614 -0.4673  0.4861  0.2818
  563TIP3    H223181   5.173   0.608  12.715  0.8676  0.9000 -0.4421
  564TIP3   OH223182   0.942   6.217  13.679  0.3909  0.1160 -0.6126
  564TIP3    H123183   1.018   6.260  13.640 -0.3096  0.3651 -1.7137
  564TIP3    H223184   0.935   6.257  13.766  1.5643  0.0208 -0.4578
  565TIP3   OH223185   0.640   5.539  17.285 -0.4887 -0.8306 -0.1303
  565TIP3    H123186   0.641   5.627  17.246  1.7777 -0.6888  0.1632
  565TIP3    H223187   0.642   5.555  17.379 -2.3207 -1.1991 -0.0123
  566TIP3   OH223188   1.199   4.481   1.582  0.0279  0.6566  0.1567
  566TIP3    H123189   1.216   4.459   1.491  1.7352 -0.2021  0.6610
  566TIP3    H223190   1.105   4.498   1.586  0.2582  2.6227 -2.1486
  567TIP3   OH223191   3.415   5.637  13.710 -0.0314 -0.1397  0.0824
  567TIP3    H123192   3.474   5.601  13.776  0.5939  0.3795 -0.1821
  567TIP3    H223193   3.443   5.728  13.701 -0.6022 -0.0065 -0.3503
  568TIP3   OH223194   0.294   0.140   1.456  0.6642 -0.4451 -0.1116
  568TIP3    H123195   0.343   0.196   1.396  0.8344  0.0969  0.5273
  568TIP3    H223196   0.223   0.104   1.403  0.6932  0.1915 -0.5809
  569TIP3   OH223197   4.511   0.836  14.637 -0.3071 -0.0366 -0.3793
  569TIP3    H123198   4.546   0.893  14.705  0.3517  0.1764 -0.8947
  569TIP3    H223199   4.531   0.881  14.555  0.9887 -1.4166 -0.8461
  570TIP3   OH223200   4.497   3.535  10.712 -0.3006 -0.2261  0.0563
  570TIP3    H123201   4.438   3.471  10.672 -1.0253 -1.7808  3.4346
  570TIP3    H223202   4.582   3.490  10.715  0.4878  1.0107 -2.3565
  571TIP3   OH223203   5.593   3.467   2.831  0.9649 -0.4022 -0.3408
  571TIP3    H123204   5.520   3.525   2.811  0.9630  0.4699  2.0152
  571TIP3    H223205   5.557   3.402   2.892  2.1513  0.1609  1.0145
  572TIP3   OH223206   2.491   1.467   4.817 -0.2358 -0.4015 -0.0108
  572TIP3    H123207   2.437   1.431   4.747 -1.3091  0.1322  0.5375
  572TIP3    H223208   2.468   1.560   4.821  1.5332  0.0728 -0.5130
  573TIP3   OH223209   3.268   4.764   3.602 -0.2828 -0.2486 -0.7713
  573TIP3    H123210   3.282   4.856   3.622  1.6900 -0.9571  1.3917
  573TIP3    H223211   3.175   4.749   3.622  0.0056  0.6809  1.4338
  574TIP3   OH223212   0.406   4.782   2.428 -0.7240  0.3674  0.4589
  574TIP3    H123213   0.347   4.840   2.476  2.2033  2.9188  1.1909
  574TIP3    H223214   0.413   4.704   2.482 -3.0238  0.1921  0.5577
  575TIP3   OH223215   3.176   4.359  17.024 -1.4093  0.2905 -0.4085
  575TIP3    H123216   3.221   4.276  17.042 -0.3271  0.8662 -0.3949
  575TIP3    H223217   3.085   4.334  17.009 -0.9056 -1.0386 -1.4532
  576TIP3   OH223218   3.655   0.706  15.630 -0.2626 -0.2214  0.0073
  576TIP3    H123219   3.737   0.657  15.619 -1.0043 -1.3784 -0.5290
  576TIP3    H223220   3.663   0.780  15.571  0.7972  0.1889  0.6652
  577TIP3   OH223221   4.500   2.719  11.942 -0.4188  0.3309  0.2621
  577TIP3    H123222   4.418   2.768  11.945 -0.5751  0.0484  0.6526
  577TIP3    H223223   4.533   2.732  11.853 -1.1050  0.0878 -0.0314
  578TIP3   OH223224   2.609   5.605   6.822 -0.3692 -0.1538 -0.2622
  578TIP3    H123225   2.620   5.624   6.916 -0.0738  0.8996 -0.5031
  578TIP3    H223226   2.677   5.542   6.802 -0.9889 -1.0530  0.4288
  579TIP3   OH223227   1.519   0.653   0.223 -0.0546  0.4570  0.0190
  579TIP3    H123228   1.439   0.677   0.176 -0.9712 -0.8342  0.8656
  579TIP3    H223229   1.490   0.590   0.289  1.5051  0.7560  1.0334
  580TIP3   OH223230   2.129   3.907  16.275  0.4417  0.0709 -0.6349
  580TIP3    H123231   2.132   3.972  16.345 -0.1918  0.3007 -0.8192
  580TIP3    H223232   2.145   3.957  16.195 -1.8280  0.3074 -0.9731
  581TIP3   OH223233   4.952   4.566   3.212  0.0141 -0.4132 -0.4004
  581TIP3    H123234   4.973   4.522   3.129  0.2821  2.5403 -1.9858
  581TIP3    H223235   4.876   4.621   3.191  0.6798  1.0936  1.0317
  582TIP3   OH223236   0.505   2.611   0.672  0.2078 -0.7361  0.0800
  582TIP3    H123237   0.449   2.689   0.670  0.6746 -0.4086 -0.4643
  582TIP3    H223238   0.525   2.598   0.765  0.1898 -0.1659  0.1637
  583TIP3   OH223239   2.190   6.145   0.661  0.1358  0.0712  0.2565
  583TIP3    H123240   2.182   6.240   0.669 -2.7820 -0.1608  0.6917
  583TIP3    H223241   2.126   6.110   0.723  0.1726 -2.1400 -0.8914
  584TIP3   OH223242   2.271   0.051  14.128 -0.2233  0.2143  0.5824
  584TIP3    H123243   2.349   0.079  14.175 -0.0990 -0.9222  1.0793
  584TIP3    H223244   2.258  -0.039  14.156 -0.9011 -0.0579 -0.5884
  585TIP3   OH223245   3.578   0.699   2.714  0.1603  0.0114 -0.1732
  585TIP3    H123246   3.635   0.724   2.786  0.7567 -1.6888 -0.0333
  585TIP3    H223247   3.634   0.706   2.636  0.3600 -0.9705 -0.1198
  586TIP3   OH223248   3.364   1.845   6.515  0.6127 -0.2186  0.0932
  586TIP3    H123249   3.281   1.891   6.502  0.2635 -0.5602  1.1447
  586TIP3    H223250   3.404   1.846   6.428 -0.6448 -0.3657 -0.5087
  587TIP3   OH223251   4.637   4.259   4.848  0.3025 -0.1253 -0.6864
  587TIP3    H123252   4.704   4.313   4.806 -0.1975  1.2685  0.2843
  587TIP3    H223253   4.564   4.261   4.786  0.9784 -1.2921 -1.5452
  588TIP3   OH223254   6.096   5.484  12.349 -0.7896  0.0782 -0.9238
  588TIP3    H123255   6.043   5.489  12.269 -2.3485  1.8030  0.1873
  588TIP3    H223256   6.108   5.575  12.376 -0.3050 -0.4845  0.8352
  589TIP3   OH223257   4.205   4.915   0.246 -0.0856  0.1464  0.8121
  589TIP3    H123258   4.212   4.871   0.331  0.5764 -0.2184  0.5696
  589TIP3    H223259   4.295   4.931   0.219 -0.3318  2.2435  1.1865
  590TIP3   OH223260   0.381   1.358   4.883  0.2659 -0.1821  0.3984
  590TIP3    H123261   0.419   1.275   4.854 -1.3161 -1.1422  1.0212
  590TIP3    H223262   0.455   1.419   4.881  1.4029 -1.5293 -0.3072
  591TIP3   OH223263   2.257   2.107  16.357 -0.2176 -0.4678  0.3244
  591TIP3    H123264   2.318   2.034  16.348  1.8484  1.3082 -0.5056
  591TIP3    H223265   2.195   2.079  16.424  0.6494 -2.9072  0.1272
  592TIP3   OH223266   4.148   0.588   2.346 -0.1455  0.0661  0.0297
  592TIP3    H123267   4.078   0.645   2.314  0.3748  0.1639 -0.9519
  592TIP3    H223268   4.215   0.648   2.380 -0.2255 -0.0061  0.3176
  593TIP3   OH223269   4.912   5.858   5.114 -0.0657 -0.2773  0.5757
  593TIP3    H123270   4.912   5.802   5.036  0.4015 -0.5540  0.7730
  593TIP3    H223271   5.001   5.851   5.149  0.2141  1.1392  0.1981
  594TIP3   OH223272   2.157   5.394   2.027  0.5995 -0.1320 -0.0127
  594TIP3    H123273   2.194   5.481   2.044  3.7592 -1.5575  0.8097
  594TIP3    H223274   2.101   5.376   2.102  1.0570  0.6242  0.5090
  595TIP3   OH223275   1.412   0.068   3.268 -0.0527 -0.1310 -0.3872
  595TIP3    H123276   1.390  -0.011   3.218 -0.8658 -0.4726  0.4900
  595TIP3    H223277   1.432   0.036   3.355 -0.5836  0.6597  0.0273
  596TIP3   OH223278   1.019   6.471   3.404  0.0707 -0.6076  0.4371
  596TIP3    H123279   1.074   6.396   3.426  0.2735 -0.6311 -0.1434
  596TIP3    H223280   1.077   6.546   3.412 -0.0046 -0.5592  0.5349
  597TIP3   OH223281   1.551   5.670  16.183  0.2946 -0.2666 -0.7939
  597TIP3    H123282   1.558   5.745  16.242 -1.5704 -0.4310 -0.3149
  597TIP3    H223283   1.566   5.706  16.096  0.4183  0.4839 -0.4648
  598TIP3   OH223284   3.494   6.177   6.716  0.4390  0.2174  0.3519
  598TIP3    H123285   3.519   6.094   6.755  0.4747  1.0202  2.0820
  598TIP3    H223286   3.572   6.231   6.721 -0.7735  1.8223  3.3159
  599TIP3   OH223287   5.643   5.410  16.929 -0.5560  0.0164  0.4511
  599TIP3    H123288   5.677   5.407  17.019  0.1843 -2.0233  0.1189
  599TIP3    H223289   5.556   5.370  16.935 -1.0928  1.1695  0.4962
  600TIP3   OH223290   1.960   4.032  12.473  0.2266 -0.2556  0.1905
  600TIP3    H123291   1.992   4.089  12.403 -0.1643 -2.2646 -1.6880
  600TIP3    H223292   2.011   4.058  12.549  1.6094  1.1109 -1.1422
  601TIP3   OH223293   2.427   5.548  12.059 -0.6009  0.0372  0.2722
  601TIP3    H123294   2.364   5.550  11.986  0.5139 -1.1175 -0.7385
  601TIP3    H223295   2.427   5.458  12.089  1.0305 -0.1233 -0.1554
  602TIP3   OH223296   3.093   6.779   1.928 -0.4575 -0.7209  0.0945
  602TIP3    H123297   3.166   6.731   1.888  0.6415 -0.3923  1.6801
  602TIP3    H223298   3.018   6.719   1.921 -0.0088 -1.1332 -1.3795
  603TIP3   OH223299   1.645   0.353  13.605 -0.2696 -0.0939 -0.2897
  603TIP3    H123300   1.589   0.379  13.678 -1.2363 -0.7355 -0.7955
  603TIP3    H223301   1.692   0.276  13.636  1.0626  0.9829  0.4698
  604TIP3   OH223302   2.949   0.244   0.206  0.4711 -0.2699  0.0067
  604TIP3    H123303   2.882   0.311   0.193 -0.8090 -1.4951  0.0436
  604TIP3    H223304   3.028   0.280   0.166 -0.7751  0.3248 -2.0242
  605TIP3   OH223305   2.510   4.337   6.051  0.0482 -0.2759 -0.1639
  605TIP3    H123306   2.479   4.427   6.057 -0.5365 -0.5380  0.7614
  605TIP3    H223307   2.433   4.286   6.027  0.4329 -0.5039 -0.9569
  606TIP3   OH223308   2.193   1.605  14.519  0.3075  0.3664 -0.0686
  606TIP3    H123309   2.275   1.653  14.534  0.3735  0.1739  0.1759
  606TIP3    H223310   2.221   1.519  14.489  0.1994  0.2020  0.3031
  607TIP3   OH223311   0.179   4.680  13.835  1.0432  0.0593 -0.0450
  607TIP3    H123312   0.191   4.750  13.899 -1.3878 -0.2732  0.8209
  607TIP3    H223313   0.185   4.724  13.750  0.7926  1.1144  0.4779
  608TIP3   OH223314   6.484   2.992  14.468 -0.3970 -0.3650  0.1061
  608TIP3    H123315   6.513   2.940  14.543 -0.5582 -0.7479 -0.0963
  608TIP3    H223316   6.490   3.083  14.498  1.0318 -0.4288  0.0726
  609TIP3   OH223317   4.172   6.651   5.594  0.2583 -0.6876 -0.8809
  609TIP3    H123318   4.239   6.584   5.607 -2.4611 -2.9592  2.6105
  609TIP3    H223319   4.160   6.690   5.680 -1.3021  1.2504 -1.9305
  610TIP3   OH223320   4.248   4.708  15.821 -0.0078  0.1827 -0.5729
  610TIP3    H123321   4.189   4.772  15.780 -0.4673  0.2805  0.2189
  610TIP3    H223322   4.258   4.639  15.755  1.7218  1.7730 -2.0396
  611TIP3   OH223323   4.557   3.023  13.346 -0.9294 -0.5640  0.5239
  611TIP3    H123324   4.508   3.051  13.269 -0.7907 -1.6994  0.0248
  611TIP3    H223325   4.518   3.073  13.418 -0.3174  1.3403 -0.4302
  612TIP3   OH223326   0.181   5.404  10.343 -0.7354 -0.5636  0.0414
  612TIP3    H123327   0.169   5.499  10.340 -0.4961 -0.4969  0.9391
  612TIP3    H223328   0.264   5.392  10.390 -1.2853 -1.2402  0.8534
  613TIP3   OH223329   2.884   1.502   2.018 -0.4771  0.3708 -0.1187
  613TIP3    H123330   2.795   1.512   2.053 -0.9121 -2.2438 -0.4060
  613TIP3    H223331   2.886   1.562   1.943 -1.9166  0.6742  0.0604
  614TIP3   OH223332   5.600   0.856  12.118 -0.4739  0.2651  0.6369
  614TIP3    H123333   5.663   0.810  12.063 -0.6701 -1.0111  1.4403
  614TIP3    H223334   5.639   0.853  12.206 -2.0351 -1.3514  1.3180
  615TIP3   OH223335   2.261   0.326   2.604 -0.3303  0.0717  0.3960
  615TIP3    H123336   2.308   0.287   2.677  1.8832  2.2428  0.2017
  615TIP3    H223337   2.326   0.337   2.535 -1.8239  0.3254 -1.0267
  616TIP3   OH223338   1.349   2.431  14.051  0.9204 -0.2180  0.0398
  616TIP3    H123339   1.403   2.510  14.048 -0.2796  0.6516  0.6616
  616TIP3    H223340   1.326   2.422  14.144 -2.5880  1.2442 -0.6236
  617TIP3   OH223341   6.094   3.971  11.824 -0.3264  0.2932 -0.1683
  617TIP3    H123342   6.042   4.019  11.888 -0.3495 -0.4758  0.3906
  617TIP3    H223343   6.096   3.881  11.856 -3.4281 -0.9503 -3.1338
  618TIP3   OH223344   1.695   4.036   4.287 -0.1475  0.1590 -0.0876
  618TIP3    H123345   1.756   4.076   4.224  0.9401 -1.6469 -0.2227
  618TIP3    H223346   1.608   4.057   4.253  0.3075  3.8891  0.7828
  619TIP3   OH223347   2.874   4.313   5.716  0.4152 -0.1562  0.5246
  619TIP3    H123348   2.876   4.408   5.730  0.5500 -0.3283  1.6982
  619TIP3    H223349   2.965   4.286   5.723  0.5119 -0.2330 -0.8831
  620TIP3   OH223350   0.183   0.024  16.409  0.4915  0.1766  0.4819
  620TIP3    H123351   0.269   0.029  16.368  0.1242  0.2203 -0.2887
  620TIP3    H223352   0.131   0.091  16.365 -0.3435 -0.8006 -0.0520
  621TIP3   OH223353   3.914   5.671  14.797  0.1274 -0.0212  0.4090
  621TIP3    H123354   3.910   5.766  14.797 -0.8264 -0.0509 -0.9490
  621TIP3    H223355   3.963   5.648  14.718 -0.0157 -0.6648  0.5008
  622TIP3   OH223356   1.354   0.524   0.944  0.1972  0.1545  1.1105
  622TIP3    H123357   1.390   0.613   0.947  0.4768  0.0712  0.2125
  622TIP3    H223358   1.397   0.483   0.869  0.8482 -1.0702  2.1257
  623TIP3   OH223359   6.725   1.133   1.554 -1.0061  0.0532 -0.2767
  623TIP3    H123360   6.817   1.144   1.579 -1.5210  1.2008  1.2539
  623TIP3    H223361   6.717   1.181   1.471  0.1810 -1.6476 -1.3960
  624TIP3   OH223362   1.581   0.401  14.763 -0.2565  0.7008  0.5589
  624TIP3    H123363   1.625   0.316  14.757 -4.8617 -1.7195 -2.1993
  624TIP3    H223364   1.577   0.419  14.856  2.3042 -1.3089  1.1153
  625TIP3   OH223365   3.582   4.607   3.112 -0.5245  0.6336 -0.0209
  625TIP3    H123366   3.593   4.659   3.032 -1.9793  1.5651  0.3644
  625TIP3    H223367   3.499   4.561   3.100 -0.1290 -0.2144  0.4193
  626TIP3   OH223368   4.376   1.709  11.795  0.6913  0.7545  0.2988
  626TIP3    H123369   4.300   1.656  11.819  1.6289 -0.9670 -0.4876
  626TIP3    H223370   4.414   1.736  11.879 -0.2301  0.8254  0.6983
  627TIP3   OH223371   4.304   2.543   0.453 -0.6573  0.2409  0.2059
  627TIP3    H123372   4.313   2.603   0.527 -0.6619 -0.1113  0.4914
  627TIP3    H223373   4.393   2.514   0.434 -0.4183  1.7162 -1.0867
  628TIP3   OH223374   4.590   0.606   1.802  0.5399 -0.1409 -0.2142
  628TIP3    H123375   4.626   0.538   1.746 -2.3168 -2.6058  0.7992
  628TIP3    H223376   4.631   0.591   1.887 -0.1112 -0.6143  0.0168
  629TIP3   OH223377   2.126   0.564   5.048  0.0670  0.0466  0.0386
  629TIP3    H123378   2.134   0.519   5.132  0.3828 -0.0208 -0.0268
  629TIP3    H223379   2.041   0.534   5.013 -0.5840  0.9278  0.8275
  630TIP3   OH223380   5.959   6.403   4.791 -0.6792  0.3143  0.2098
  630TIP3    H123381   6.005   6.471   4.741 -0.1158 -0.5121 -0.4173
  630TIP3    H223382   5.972   6.428   4.882  0.6154  0.3562  0.0291
  631TIP3   OH223383   4.218   5.286  12.629  0.2422 -0.1092  0.0314
  631TIP3    H123384   4.282   5.229  12.672  0.9980 -0.6457 -1.7575
  631TIP3    H223385   4.267   5.326  12.557 -1.1362  0.4017 -0.6324
  632TIP3   OH223386   6.800   4.806   3.736 -0.1261 -0.2822  0.0457
  632TIP3    H123387   6.722   4.766   3.774 -0.7655  1.8054  0.9700
  632TIP3    H223388   6.868   4.793   3.803 -0.0106 -0.8716 -0.1770
  633TIP3   OH223389   5.761   3.571  13.168 -0.3099 -0.1294 -0.0360
  633TIP3    H123390   5.819   3.497  13.150 -1.1946 -0.8082 -0.1377
  633TIP3    H223391   5.781   3.635  13.100  0.1904 -0.4349 -0.1777
  634TIP3   OH223392   5.720   2.732   2.530 -0.4499 -0.2667  0.4303
  634TIP3    H123393   5.768   2.766   2.455 -1.2978  0.5350  0.2459
  634TIP3    H223394   5.628   2.741   2.507 -0.7179 -0.2621  1.4560
  635TIP3   OH223395   5.441   6.780   1.788  0.1763  0.3011 -0.1927
  635TIP3    H123396   5.422   6.781   1.882 -1.3536  0.3057 -0.4931
  635TIP3    H223397   5.505   6.710   1.778 -0.9883 -0.9016  0.6154
  636TIP3   OH223398   5.632   1.303   5.891 -0.1738  0.0654 -0.8057
  636TIP3    H123399   5.615   1.339   5.804  0.4053 -0.2979 -1.0677
  636TIP3    H223400   5.727   1.291   5.895  0.1937  3.0221  1.0302
  637TIP3   OH223401   3.731   0.876  11.027 -0.1280 -0.1615 -0.4321
  637TIP3    H123402   3.713   0.961  10.987  1.0621 -0.5989 -1.9225
  637TIP3    H223403   3.648   0.828  11.020 -0.8730  0.9653  0.6580
  638TIP3   OH223404   2.857   6.008   5.260 -0.3063 -0.5464 -0.5520
  638TIP3    H123405   2.857   5.965   5.175  1.9686 -0.8859 -0.3995
  638TIP3    H223406   2.781   5.970   5.306 -1.8763  0.0518 -2.5923
  639TIP3   OH223407   1.235   3.464  12.089 -0.5817  0.1258 -0.2593
  639TIP3    H123408   1.173   3.396  12.062  0.8577 -1.2776 -0.0687
  639TIP3    H223409   1.199   3.498  12.171 -1.4807 -0.1647 -0.5259
  640TIP3   OH223410   0.609   4.502  16.308 -0.8381  0.4131  0.4460
  640TIP3    H123411   0.567   4.484  16.392  0.7377  1.0496  1.3886
  640TIP3    H223412   0.630   4.595  16.311 -2.3009  0.8298 -1.3675
  641TIP3   OH223413   0.166   3.143   3.026  0.0010 -0.4504  0.5304
  641TIP3    H123414   0.091   3.135   3.084  0.6594  1.2633  1.6461
  641TIP3    H223415   0.135   3.108   2.942 -2.2391  0.7467  0.8063
  642TIP3   OH223416   3.242   3.189   2.314  0.2536  0.3107 -0.1984
  642TIP3    H123417   3.186   3.264   2.334  1.5256  1.2034  0.0558
  642TIP3    H223418   3.235   3.132   2.391  0.3620  0.8146  0.1807
  643TIP3   OH223419   0.726   0.284   6.429  0.3587  0.3764 -0.4920
  643TIP3    H123420   0.780   0.207   6.451 -1.9509 -1.2689 -0.3458
  643TIP3    H223421   0.783   0.340   6.377  2.0726 -1.5094 -0.6936
  644TIP3   OH223422   2.904   2.403   4.773 -0.4680  0.0161  0.1483
  644TIP3    H123423   2.823   2.367   4.811 -0.5504 -0.1556 -0.1910
  644TIP3    H223424   2.930   2.339   4.707  0.1082 -0.0752  0.4605
  645TIP3   OH223425   0.643   1.958   4.126  0.4320 -0.0966 -0.0918
  645TIP3    H123426   0.635   2.052   4.144  1.9141 -0.1808  1.0678
  645TIP3    H223427   0.727   1.933   4.165  0.2799 -1.8054 -0.8304
  646TIP3   OH223428   0.335   0.984  17.177  0.4049  0.1875  0.0260
  646TIP3    H123429   0.314   0.898  17.214  2.1178  0.1279  0.9403
  646TIP3    H223430   0.420   1.006  17.216  0.5673  1.7363 -1.1658
  647TIP3   OH223431   4.618   5.197   6.570 -0.1093 -0.1236  0.2455
  647TIP3    H123432   4.600   5.104   6.561 -0.0218 -0.2485  1.2856
  647TIP3    H223433   4.540   5.233   6.613  0.2924  0.0890  0.8084
  648TIP3   OH223434   2.410   5.259  17.236 -0.2706 -0.2541 -0.0023
  648TIP3    H123435   2.409   5.198  17.162  1.0579  0.0914 -0.3290
  648TIP3    H223436   2.318   5.272  17.258 -0.6372 -1.0647 -1.0185
  649TIP3   OH223437   5.694   2.521  15.305  0.0213  0.2328  0.0785
  649TIP3    H123438   5.668   2.613  15.309  0.3290  0.3628 -0.7087
  649TIP3    H223439   5.764   2.519  15.239 -1.1519 -0.8262 -1.1686
  650TIP3   OH223440   3.377   6.491  15.232 -0.3340 -0.2714  0.2725
  650TIP3    H123441   3.360   6.585  15.233 -0.6720 -0.2996 -1.3154
  650TIP3    H223442   3.472   6.484  15.245 -0.1945  0.3240 -0.3914
  651TIP3   OH223443   1.783   3.903  13.076 -0.3125 -0.2851  0.4707
  651TIP3    H123444   1.780   3.818  13.120 -2.8228  0.9550  2.8721
  651TIP3    H223445   1.850   3.952  13.124  1.5784 -1.0711 -1.3115
  652TIP3   OH223446   1.621   4.578   2.794 -0.3967  0.0125  0.0004
  652TIP3    H123447   1.679   4.654   2.803 -0.3330  0.0719 -0.8031
  652TIP3    H223448   1.680   4.503   2.794 -0.2790  0.0910 -1.1091
  653TIP3   OH223449   2.523   3.166  16.922 -0.4891 -0.1127  0.3147
  653TIP3    H123450   2.536   3.197  16.832 -1.0765 -0.8559 -0.0293
  653TIP3    H223451   2.444   3.210  16.952  0.0160  0.5691  0.6726
  654TIP3   OH223452   0.629   5.514   3.782  0.4158 -0.7715  0.0160
  654TIP3    H123453   0.626   5.547   3.692  0.5517 -1.5204 -0.2604
  654TIP3    H223454   0.590   5.585   3.834  0.3436 -0.3314 -0.6263
  655TIP3   OH223455   6.592   1.399   4.052 -0.1945 -0.3132  0.0563
  655TIP3    H123456   6.547   1.317   4.072  0.4796 -0.9315 -0.9001
  655TIP3    H223457   6.616   1.435   4.137 -0.3382 -1.2092  0.4785
  656TIP3   OH223458   4.506   2.799  11.657 -0.0025 -0.2742 -0.5647
  656TIP3    H123459   4.546   2.772  11.575 -0.5178  2.0002 -1.6247
  656TIP3    H223460   4.413   2.804  11.638 -0.2120 -0.4911  0.3802
  657TIP3   OH223461   2.451   4.029  16.211 -0.6108  0.8639 -0.3550
  657TIP3    H123462   2.502   3.948  16.217 -0.7201  0.8165 -0.0402
  657TIP3    H223463   2.429   4.049  16.302  1.3356  2.4782 -0.2026
  658TIP3   OH223464   0.586   0.192   5.103  0.1378 -0.2759  0.0184
  658TIP3    H123465   0.660   0.134   5.119 -1.0213 -1.7718  0.0012
  658TIP3    H223466   0.549   0.162   5.020 -0.0920  0.8897 -0.3097
  659TIP3   OH223467   0.867   1.825  11.342 -0.8202  0.4750 -0.0065
  659TIP3    H123468   0.900   1.741  11.310 -0.6823 -0.0189  1.3921
  659TIP3    H223469   0.933   1.855  11.403 -2.2465  0.1714  1.7299
  660TIP3   OH223470   0.437   0.423  13.845  0.0066  0.2543  0.6471
  660TIP3    H123471   0.416   0.330  13.850  0.5072  0.0912 -0.1874
  660TIP3    H223472   0.391   0.462  13.919  0.9129 -0.8596  1.8171
  661TIP3   OH223473   1.011   0.791   3.115 -0.0294  0.3326 -0.5101
  661TIP3    H123474   1.000   0.731   3.041  0.3488  0.2667 -0.5113
  661TIP3    H223475   1.093   0.836   3.098 -1.3081  2.3419 -1.5716
  662TIP3   OH223476   3.503   4.731   1.489 -0.1836 -0.2087 -0.2560
  662TIP3    H123477   3.542   4.740   1.402  0.4752 -0.3113  0.0224
  662TIP3    H223478   3.578   4.728   1.548 -0.4811 -4.0340 -0.0070
  663TIP3   OH223479   5.150   2.631  15.161  0.3709  0.4676  0.2060
  663TIP3    H123480   5.147   2.726  15.167 -0.7341  0.3695  1.5038
  663TIP3    H223481   5.069   2.607  15.116 -0.1212  0.0542  1.2947
  664TIP3   OH223482   5.844   6.560   2.145 -0.2613  0.6694 -0.0454
  664TIP3    H123483   5.771   6.500   2.160  1.2866 -1.2533  0.0254
  664TIP3    H223484   5.882   6.532   2.062  1.2886  0.6965  0.6320
  665TIP3   OH223485   4.941   3.536   5.540 -0.0794  0.0636 -0.0516
  665TIP3    H123486   4.866   3.511   5.486  1.3151  0.0395 -2.0229
  665TIP3    H223487   4.945   3.468   5.607  0.6201 -2.2775 -2.3595
  666TIP3   OH223488   3.294   6.403   4.901  1.1124 -0.1606 -0.3741
  666TIP3    H123489   3.324   6.358   4.822  1.1087 -1.8850  0.5740
  666TIP3    H223490   3.313   6.496   4.885  2.1390 -0.6216 -1.9230
  667TIP3   OH223491   6.143   5.414   3.606  0.4613  0.2344 -0.0179
  667TIP3    H123492   6.195   5.368   3.539  1.8974 -0.2143  1.3550
  667TIP3    H223493   6.114   5.345   3.665 -1.6083  0.5122 -0.6815
  668TIP3   OH223494   1.438   4.830   5.787  0.0299 -0.0580 -0.2010
  668TIP3    H123495   1.377   4.820   5.860 -1.9790 -1.7655 -2.0382
  668TIP3    H223496   1.516   4.782   5.814  0.8339  2.5304  2.3764
  669TIP3   OH223497   4.078   0.466  14.778 -0.2710 -0.5563  0.3550
  669TIP3    H123498   4.126   0.471  14.695 -0.8035 -0.4322  0.0508
  669TIP3    H223499   4.125   0.399  14.828  0.5377 -0.0590  0.2721
  670TIP3   OH223500   5.237   0.886   4.754  0.1916  0.6117  0.3553
  670TIP3    H123501   5.263   0.830   4.828  1.0644 -1.4161 -1.4406
  670TIP3    H223502   5.180   0.830   4.701  0.5132  1.6535 -1.1111
  671TIP3   OH223503   0.972   2.401  15.042  0.0359  0.4725  0.1889
  671TIP3    H123504   0.878   2.408  15.059  0.2804 -1.0102  2.3323
  671TIP3    H223505   0.998   2.488  15.013 -1.9098  1.0386  0.1262
  672TIP3   OH223506   5.843   6.473   3.684 -0.1895 -0.8693  0.0356
  672TIP3    H123507   5.914   6.412   3.705 -0.4543 -1.1451  0.1395
  672TIP3    H223508   5.845   6.482   3.589  0.2273 -0.5802  0.0716
  673TIP3   OH223509   2.907   1.186  15.090  0.4639 -0.4545 -0.3731
  673TIP3    H123510   2.859   1.138  15.023 -1.2038 -1.3099  1.3962
  673TIP3    H223511   2.902   1.278  15.063 -1.1201 -0.6694 -0.8514
  674TIP3   OH223512   3.644   1.762  15.119 -0.7465  0.5077 -0.3829
  674TIP3    H123513   3.731   1.724  15.130 -0.9668  0.2345  0.5410
  674TIP3    H223514   3.651   1.849  15.158 -0.4983  1.0446 -1.6294
  675TIP3   OH223515   5.783   6.292  15.536  0.2044 -0.6611 -0.3661
  675TIP3    H123516   5.710   6.346  15.567  1.0564 -1.0537  2.4172
  675TIP3    H223517   5.822   6.343  15.465  0.1578  1.7503  1.2900
  676TIP3   OH223518   3.060   4.674   5.160 -0.6639 -0.4109 -0.2423
  676TIP3    H123519   3.135   4.713   5.116 -1.3276  0.1355 -0.8829
  676TIP3    H223520   3.083   4.678   5.253  0.0326 -0.1024 -0.4214
  677TIP3   OH223521   6.765   2.699   3.274  0.1298  0.0099  0.0023
  677TIP3    H123522   6.685   2.666   3.231  0.8737  0.3084 -1.6543
  677TIP3    H223523   6.770   2.791   3.248  0.5969  0.1963  0.7463
  678TIP3   OH223524   5.275   5.052   1.143 -0.2564 -0.3875  0.6898
  678TIP3    H123525   5.239   5.040   1.055  0.2945  0.2392  0.3696
  678TIP3    H223526   5.229   5.128   1.178  0.2200 -0.0350  0.5609
  679TIP3   OH223527   5.654   3.042   5.461 -0.3193  0.1158  0.0388
  679TIP3    H123528   5.580   3.100   5.478 -0.7941 -0.6177  0.5250
  679TIP3    H223529   5.649   2.976   5.531 -0.0329 -0.7295 -0.7256
  680TIP3   OH223530   2.441   2.781  17.064  0.0192 -0.3698 -0.3400
  680TIP3    H123531   2.372   2.732  17.020  0.5701 -0.3088 -1.2844
  680TIP3    H223532   2.517   2.773  17.006  0.1874  1.3959 -0.3842
  681TIP3   OH223533   1.313   4.124   6.566 -0.3241 -0.9208 -0.4309
  681TIP3    H123534   1.403   4.137   6.596 -0.7324  0.6979  0.1697
  681TIP3    H223535   1.321   4.110   6.471  0.3168  2.7867 -0.9930
  682TIP3   OH223536   4.403   3.861   1.519 -0.0795 -0.1393  0.4310
  682TIP3    H123537   4.367   3.933   1.468  0.3869  0.3914  0.8488
  682TIP3    H223538   4.471   3.901   1.573 -1.4279 -0.4543  2.4145
  683TIP3   OH223539   2.095   5.000   4.969 -0.4199  0.6408  0.3154
  683TIP3    H123540   2.183   4.984   4.934 -0.3535  2.1928 -0.2438
  683TIP3    H223541   2.090   4.943   5.046  1.1284  0.6410  0.4396
  684TIP3   OH223542   0.939   6.034  12.777  0.3908  0.3069  0.1068
  684TIP3    H123543   0.998   5.960  12.765 -0.0131  0.0550 -0.3856
  684TIP3    H223544   0.911   6.057  12.688 -1.2837 -0.4432  0.4080
  685TIP3   OH223545   5.217   2.486   5.721 -0.1218  0.0761  0.5938
  685TIP3    H123546   5.138   2.481   5.775 -0.3449 -0.5026  0.2107
  685TIP3    H223547   5.248   2.396   5.715  0.2233  0.2193  0.2257
  686TIP3   OH223548   5.715   0.912   5.641 -0.2822  0.1820  0.2729
  686TIP3    H123549   5.733   0.837   5.698  0.5994 -0.4271 -0.7831
  686TIP3    H223550   5.628   0.942   5.667 -0.7408 -1.3565  0.5620
  687TIP3   OH223551   4.684   0.209  12.742 -0.1347 -0.7264 -0.2054
  687TIP3    H123552   4.658   0.269  12.811 -2.2160 -1.2361 -0.5210
  687TIP3    H223553   4.772   0.238  12.717  0.2503  0.0340  1.9883
  688TIP3   OH223554   4.072   4.846  16.642  0.7568  0.6212  0.2939
  688TIP3    H123555   3.992   4.897  16.653 -0.0249 -0.1666 -1.4775
  688TIP3    H223556   4.143   4.909  16.652 -0.1904  1.9808 -1.2852
  689TIP3   OH223557   5.264   0.604   4.924  0.4697 -0.9139 -0.6523
  689TIP3    H123558   5.294   0.602   5.015 -1.4116 -0.8521 -0.0261
  689TIP3    H223559   5.315   0.536   4.881  1.0866 -1.2190  0.5333
  690TIP3   OH223560   0.586   6.809  15.181 -0.0463  0.0832  0.0244
  690TIP3    H123561   0.636   6.851  15.111  2.6966 -1.6126  0.9156
  690TIP3    H223562   0.588   6.872  15.253  1.2975 -0.2133  0.2499
  691TIP3   OH223563   3.748   5.319  11.720  0.1614  0.0634 -0.1048
  691TIP3    H123564   3.700   5.357  11.793  1.8284  0.3177  0.8859
  691TIP3    H223565   3.837   5.355  11.728  1.0306 -1.8534 -0.8001
  692TIP3   OH223566   0.458   2.462   3.472 -0.0232  0.1350  0.6796
  692TIP3    H123567   0.549   2.481   3.451 -0.5023 -0.7025 -2.3967
  692TIP3    H223568   0.429   2.402   3.403 -2.3945 -1.0345  2.6052
  693TIP3   OH223569   0.926   4.242  11.163  0.9232 -0.1496 -0.1781
  693TIP3    H123570   1.011   4.231  11.121  1.4053  0.7210  0.5462
  693TIP3    H223571   0.894   4.153  11.175  1.2529 -0.4395 -1.4117
  694TIP3   OH223572   0.968   4.647   4.837  0.3004 -0.1062 -0.2838
  694TIP3    H123573   0.949   4.736   4.866  0.6324  0.0527 -0.5492
  694TIP3    H223574   0.976   4.597   4.918  0.0484  0.0934 -0.1360
  695TIP3   OH223575   0.008   1.748   1.434  0.1249  0.2648 -0.0763
  695TIP3    H123576   0.011   1.843   1.431 -0.8825  0.3331  0.7088
  695TIP3    H223577   0.062   1.719   1.361  0.6931  1.4377 -0.1193
  696TIP3   OH223578   6.126   5.279   0.800  0.2110 -0.8154 -0.1629
  696TIP3    H123579   6.218   5.298   0.819  0.0878 -0.2271 -0.1628
  696TIP3    H223580   6.102   5.210   0.862  0.7516 -1.2260 -0.4029
  697TIP3   OH223581   1.896   4.076   5.862 -0.5367 -0.4261  1.1777
  697TIP3    H123582   1.951   4.017   5.913 -2.3940 -2.3650  1.0268
  697TIP3    H223583   1.930   4.069   5.772 -0.3614 -0.7822  1.2722
  698TIP3   OH223584   0.592   5.071  15.241 -0.3521  0.3292  0.4095
  698TIP3    H123585   0.616   5.005  15.306 -0.6272 -1.1717 -0.9769
  698TIP3    H223586   0.512   5.111  15.276 -0.2532 -0.1591  1.2007
  699TIP3   OH223587   6.286   1.853   0.546  0.0233  0.1747  0.6386
  699TIP3    H123588   6.218   1.798   0.507  0.8454 -1.6131  1.6637
  699TIP3    H223589   6.365   1.834   0.496  0.1713  0.9160  0.5847
  700TIP3   OH223590   2.621   0.880   0.679 -0.3896  0.4989 -0.0182
  700TIP3    H123591   2.662   0.862   0.764 -1.6053  1.4508  0.7822
  700TIP3    H223592   2.674   0.831   0.616  1.5061  1.0743  1.0884
  701TIP3   OH223593   5.988   5.927  11.304 -0.0602 -0.8915 -0.0953
  701TIP3    H123594   5.953   5.843  11.334 -0.1377 -0.5077  0.9063
  701TIP3    H223595   5.957   5.934  11.214 -1.7401 -1.0254  0.4392
  702TIP3   OH223596   0.355   3.865   2.501  0.4055  0.4006  0.2397
  702TIP3    H123597   0.298   3.942   2.505  0.8133  0.8772 -2.1295
  702TIP3    H223598   0.428   3.887   2.558  0.1062  1.4232  0.2515
  703TIP3   OH223599   1.581   1.675  14.448  0.7779  0.1885  0.1059
  703TIP3    H123600   1.513   1.742  14.445  0.6351 -0.0113 -1.2698
  703TIP3    H223601   1.621   1.677  14.361  1.0610 -1.2282  0.1904
  704TIP3   OH223602   2.191   4.257  13.275 -0.0651 -0.2504  0.0263
  704TIP3    H123603   2.169   4.329  13.333  3.0229  0.1088  0.8700
  704TIP3    H223604   2.280   4.232  13.301 -1.0132 -4.3026 -0.3041
  705TIP3   OH223605   5.449   4.916   2.131 -0.6658  0.0978 -0.0100
  705TIP3    H123606   5.505   4.937   2.206 -0.8891  1.0135 -0.0959
  705TIP3    H223607   5.366   4.888   2.171 -0.8366  0.7329  0.0888
  706TIP3   OH223608   2.801   3.304  16.839  0.2407 -0.5222 -0.2759
  706TIP3    H123609   2.811   3.220  16.885 -2.5272 -0.5143  0.4607
  706TIP3    H223610   2.738   3.285  16.769  1.1292  0.4776 -1.3589
  707TIP3   OH223611   4.410   0.009   5.676 -0.0699 -0.2910 -0.5922
  707TIP3    H123612   4.461   0.079   5.634 -1.0475 -0.0856 -1.4660
  707TIP3    H223613   4.380  -0.045   5.603 -1.9446  0.1722 -0.1833
  708TIP3   OH223614   2.857   6.278   5.184 -0.0485  0.5988 -0.0509
  708TIP3    H123615   2.884   6.212   5.120 -0.6597  0.8648 -0.5916
  708TIP3    H223616   2.825   6.227   5.259 -0.0428  0.2766 -0.2654
  709TIP3   OH223617   1.658   6.157  13.138  0.1424 -0.3595 -0.0645
  709TIP3    H123618   1.686   6.113  13.218 -0.0116  0.5853  0.5224
  709TIP3    H223619   1.726   6.222  13.121 -0.4324  0.2652 -0.0186
  710TIP3   OH223620   5.566   1.396   5.330 -0.1035  0.2867  0.4131
  710TIP3    H123621   5.477   1.428   5.316  0.1490  0.1776 -1.5479
  710TIP3    H223622   5.558   1.301   5.329 -0.2119  0.2581  2.0388
  711TIP3   OH223623   2.681   3.256  16.603 -0.2112  0.6705 -0.6335
  711TIP3    H123624   2.729   3.336  16.582 -1.0018  1.1001 -0.8171
  711TIP3    H223625   2.700   3.197  16.530  0.5588  0.6033 -0.3842
  712TIP3   OH223626   2.659   1.243  13.723  0.0871 -0.2058 -0.2467
  712TIP3    H123627   2.670   1.232  13.818 -0.1161  0.7402 -0.1135
  712TIP3    H223628   2.743   1.278  13.693 -0.3760  0.9647 -0.1831
  713TIP3   OH223629   6.598   3.633  13.812  0.4296  0.1533  0.1085
  713TIP3    H123630   6.582   3.667  13.725 -0.6298  0.0233  0.2427
  713TIP3    H223631   6.693   3.633  13.821  0.5286  0.5151 -0.9009
  714TIP3   OH223632   5.969   3.778   3.244  0.2145  0.5130 -0.6347
  714TIP3    H123633   6.009   3.751   3.161  0.3226 -2.4969  0.3094
  714TIP3    H223634   6.038   3.825   3.290  0.7545  0.5525 -1.4734
  715TIP3   OH223635   1.297   3.995   1.830  0.0089  0.8393 -0.2750
  715TIP3    H123636   1.365   3.951   1.881  1.6245  1.2851 -1.9757
  715TIP3    H223637   1.267   3.927   1.769  0.1980  1.1450 -0.7110
  716TIP3   OH223638   6.112   1.059   0.527  0.1150 -0.5161  0.1381
  716TIP3    H123639   6.140   1.083   0.615 -0.9542  1.0727  0.0609
  716TIP3    H223640   6.029   1.104   0.515  0.3988 -0.4672 -1.7976
  717TIP3   OH223641   5.428   1.561  15.197  0.1291 -0.5810  0.2991
  717TIP3    H123642   5.371   1.591  15.126  1.1993 -1.8306 -1.1327
  717TIP3    H223643   5.374   1.568  15.275 -1.1627  0.6097 -0.6621
  718TIP3   OH223644   2.443   6.448   0.829 -0.0276 -0.1128 -0.1719
  718TIP3    H123645   2.512   6.466   0.766  0.6051  0.7837  0.7642
  718TIP3    H223646   2.463   6.359   0.861 -0.5178 -0.6844 -1.4205
  719TIP3   OH223647   0.910   0.834  14.569  0.3877 -0.0185 -0.1017
  719TIP3    H123648   0.997   0.838  14.529  0.2921  1.3801 -0.1894
  719TIP3    H223649   0.914   0.895  14.642 -0.1202 -0.9387  0.7063
  720TIP3   OH223650   2.632   6.255  16.125 -0.2278 -0.1137  0.0998
  720TIP3    H123651   2.658   6.180  16.179 -0.8398 -1.0070 -0.8164
  720TIP3    H223652   2.544   6.232  16.094  0.6967 -0.2966 -2.4888
  721TIP3   OH223653   0.788   6.770   2.073  0.2454  0.1334  0.0782
  721TIP3    H123654   0.802   6.675   2.079  0.7187  0.2278  0.5108
  721TIP3    H223655   0.817   6.804   2.158 -0.6394  0.5805  0.2001
  722TIP3   OH223656   1.853   3.795   5.865  0.1144 -0.4472 -0.3877
  722TIP3    H123657   1.790   3.788   5.936  0.8458 -2.1787  0.1060
  722TIP3    H223658   1.938   3.794   5.907  0.5416 -0.6405 -1.2381
  723TIP3   OH223659   4.838   0.057   1.373  0.0936  0.2057  0.3974
  723TIP3    H123660   4.927   0.069   1.406  0.8123 -3.3273  0.0215
  723TIP3    H223661   4.819   0.136   1.322  3.6444  0.3101 -0.8526
  724TIP3   OH223662   4.194   5.714  15.549  0.3130 -0.6021 -0.9478
  724TIP3    H123663   4.235   5.697  15.465 -1.2714 -1.3907 -1.5892
  724TIP3    H223664   4.234   5.795  15.580  0.9551 -0.3442 -2.4243
  725TIP3   OH223665   0.012   3.395   3.664 -0.5816  0.1600 -0.4789
  725TIP3    H123666  -0.068   3.353   3.697 -0.0349 -0.5394 -0.0218
  725TIP3    H223667   0.038   3.342   3.589 -0.3815  0.2118 -0.4453
  726TIP3   OH223668   3.591   5.981   4.110  0.0422 -0.0743 -0.2795
  726TIP3    H123669   3.616   6.005   4.199  0.7732 -0.5817 -0.3367
  726TIP3    H223670   3.500   6.007   4.102  0.0940  0.3553  0.4806
  727TIP3   OH223671   1.693   4.317  11.887  0.2821  0.8201  0.1028
  727TIP3    H123672   1.660   4.236  11.925 -1.7110  2.1160  1.1993
  727TIP3    H223673   1.755   4.288  11.820 -1.2265 -1.6281 -0.3010
  728TIP3   OH223674   3.107   5.070  13.351 -0.8269 -0.0733  0.0133
  728TIP3    H123675   3.103   5.164  13.333 -0.1692  0.4093  2.1668
  728TIP3    H223676   3.040   5.031  13.295 -0.4101  1.5489 -1.6506
  729TIP3   OH223677   1.888   3.352   4.731 -0.5924  0.0287  0.3715
  729TIP3    H123678   1.814   3.410   4.750 -0.8060 -0.0787 -0.1226
  729TIP3    H223679   1.932   3.392   4.656  0.1720  0.3803  0.9968
  730TIP3   OH223680   4.102   4.989   5.645  0.4406 -0.2398  0.4382
  730TIP3    H123681   4.016   4.971   5.683  1.2443 -0.2782  2.3066
  730TIP3    H223682   4.161   4.926   5.688  1.9976  2.0376  1.7417
  731TIP3   OH223683   1.835   5.414  12.084 -0.2269  0.1471  0.1131
  731TIP3    H123684   1.761   5.355  12.073 -1.8418  2.1580 -0.0118
  731TIP3    H223685   1.824   5.480  12.016  0.3464  1.8011  1.5842
  732TIP3   OH223686   0.136   5.332   0.936  0.3124 -0.2190 -0.1687
  732TIP3    H123687   0.159   5.256   0.989 -0.1347  1.2326  2.1809
  732TIP3    H223688   0.040   5.331   0.933  0.3013  0.3697  0.0244
  733TIP3   OH223689   6.777   1.413   3.590 -0.2467 -0.5544 -0.4083
  733TIP3    H123690   6.835   1.482   3.555  0.4053 -0.6426  0.4730
  733TIP3    H223691   6.726   1.457   3.658  1.1020 -1.2299  1.0734
  734TIP3   OH223692   2.160   5.933  14.138 -0.2228  0.1685  0.1754
  734TIP3    H123693   2.221   5.962  14.205 -0.3737  2.5770 -0.6722
  734TIP3    H223694   2.208   5.944  14.056 -2.0373  2.9995 -0.5891
  735TIP3   OH223695   1.479   0.779   3.890  0.0601 -0.1357 -0.0135
  735TIP3    H123696   1.533   0.738   3.821 -0.1365 -0.4567  0.0215
  735TIP3    H223697   1.390   0.753   3.869 -0.0703  0.3203 -0.0149
  736TIP3   OH223698   1.236   0.531   1.642  0.0898 -0.0207 -0.6534
  736TIP3    H123699   1.322   0.573   1.640  0.5054 -0.7956  0.3538
  736TIP3    H223700   1.254   0.440   1.664 -1.0808  0.1029  0.9190
  737TIP3   OH223701   5.017   3.990  16.359 -0.6000 -0.2230  0.1456
  737TIP3    H123702   4.947   3.939  16.398 -2.3321  1.5039 -0.5942
  737TIP3    H223703   4.972   4.064  16.317  1.7766  1.8273  1.0817
  738TIP3   OH223704   4.000   0.065   2.889 -0.2393  0.4934 -0.4073
  738TIP3    H123705   3.931   0.114   2.842 -1.0181 -0.6539 -0.4864
  738TIP3    H223706   4.045   0.017   2.820 -1.5409 -1.3857  0.0160
  739TIP3   OH223707   0.271   5.550  15.420  0.6353 -0.5887  0.2929
  739TIP3    H123708   0.252   5.605  15.496  0.6836 -1.8869  1.2546
  739TIP3    H223709   0.324   5.605  15.363 -0.8699  1.0003  0.3859
  740TIP3   OH223710   4.939   4.795  17.034 -0.1771 -0.2743 -0.5307
  740TIP3    H123711   4.903   4.707  17.022  0.6346 -0.7947  0.7058
  740TIP3    H223712   4.876   4.853  16.991 -0.9320 -1.4234 -1.0020
  741TIP3   OH223713   5.811   4.011   3.533  0.0349 -0.1341 -0.0012
  741TIP3    H123714   5.799   3.926   3.575  1.3618 -0.6399 -0.6286
  741TIP3    H223715   5.885   4.052   3.579  2.1495 -1.1078 -2.4176
  742TIP3   OH223716   5.089   1.223   1.920  0.4481 -0.8004  0.0440
  742TIP3    H123717   5.152   1.275   1.869 -1.1054 -0.2314 -1.3402
  742TIP3    H223718   5.113   1.132   1.900  1.9961 -0.6242  1.0027
  743TIP3   OH223719   6.191   4.165   5.547 -0.0281  0.2955 -0.2267
  743TIP3    H123720   6.165   4.257   5.548  0.9308  0.5892 -1.0517
  743TIP3    H223721   6.149   4.129   5.469 -1.3555 -0.2602  0.7354
  744TIP3   OH223722   3.341   1.857  11.811  0.4513 -0.1407 -0.3481
  744TIP3    H123723   3.293   1.902  11.881  2.8730  0.0616  1.2331
  744TIP3    H223724   3.344   1.766  11.839  1.4115 -0.0639 -0.1930
  745TIP3   OH223725   6.121   6.423  13.668  0.3391  0.1349 -0.4574
  745TIP3    H123726   6.208   6.386  13.657  1.0782  1.7735 -0.2947
  745TIP3    H223727   6.116   6.494  13.604 -1.9754 -1.7886 -2.4949
  746TIP3   OH223728   3.042   0.837  14.907 -0.1268 -0.1533  0.5324
  746TIP3    H123729   2.954   0.821  14.873 -0.0666 -1.0855  0.7876
  746TIP3    H223730   3.032   0.836  15.002  0.4156 -1.9359  0.6000
  747TIP3   OH223731   1.019   0.635   1.864  0.5647 -0.0718 -0.3782
  747TIP3    H123732   1.075   0.575   1.815  0.4631 -0.9435  0.5439
  747TIP3    H223733   1.065   0.649   1.947 -0.4607 -0.6218  0.2993
  748TIP3   OH223734   2.979   6.464  14.312  0.1932  0.4002  0.0007
  748TIP3    H123735   2.884   6.456  14.308  0.1360  1.0944 -0.0089
  748TIP3    H223736   2.998   6.474  14.405  0.1643  1.3867 -0.0938
  749TIP3   OH223737   5.744   5.285   0.448  0.3972 -0.3666 -0.2737
  749TIP3    H123738   5.689   5.233   0.506 -0.3705  0.7627  0.0322
  749TIP3    H223739   5.821   5.306   0.500 -0.0653  0.2259  0.1801
  750TIP3   OH223740   0.870   3.589  15.728  0.1918 -0.1932  0.2807
  750TIP3    H123741   0.820   3.510  15.748 -0.5270  0.2366  0.2009
  750TIP3    H223742   0.926   3.564  15.655  1.0937 -1.0779  1.2521
  751TIP3   OH223743   3.114   5.281  10.283  0.6641  0.0480  0.6536
  751TIP3    H123744   3.175   5.351  10.303  0.7376  0.3179 -0.4908
  751TIP3    H223745   3.166   5.217  10.234 -0.2748  0.9095 -1.5192
  752TIP3   OH223746   6.723   5.952  10.827 -0.2888  0.0428  0.5358
  752TIP3    H123747   6.687   6.022  10.881 -0.4205  1.3344 -1.2025
  752TIP3    H223748   6.656   5.884  10.827 -0.2775  0.0189  1.9848
  753TIP3   OH223749   0.511   4.259   1.958 -0.6110 -0.1712 -0.1729
  753TIP3    H123750   0.425   4.264   2.000 -0.3655 -1.5274  0.5232
  753TIP3    H223751   0.508   4.178   1.907  0.7483 -1.0105  1.0390
  754TIP3   OH223752   1.460   4.421   5.739 -0.2524  0.7328 -0.2075
  754TIP3    H123753   1.485   4.330   5.720 -0.9395  0.3418  0.7277
  754TIP3    H223754   1.406   4.447   5.664 -0.2569  0.2850 -0.3622
  755TIP3   OH223755   6.754   4.274   4.666  0.1573 -0.3847 -0.2564
  755TIP3    H123756   6.808   4.208   4.622  1.1858 -0.1442  0.6407
  755TIP3    H223757   6.817   4.336   4.704 -0.6846 -1.0333  2.2657
  756TIP3   OH223758   6.125   1.415   1.966  0.4098 -0.8465  0.0746
  756TIP3    H123759   6.106   1.482   2.033  1.7152 -0.8167  0.4336
  756TIP3    H223760   6.129   1.464   1.884  1.2281 -0.4974  0.3175
  757TIP3   OH223761   5.405   3.554  15.236 -0.4042 -0.6975  0.3475
  757TIP3    H123762   5.391   3.627  15.176  1.3945 -0.5449  0.1036
  757TIP3    H223763   5.418   3.594  15.321 -1.6042 -0.8554  0.6195
  758TIP3   OH223764   2.271   2.598  13.376 -0.1175  0.5411 -0.1126
  758TIP3    H123765   2.253   2.686  13.408 -2.0076 -0.2284  1.0193
  758TIP3    H223766   2.365   2.586  13.390  0.0389  2.1467  0.2906
  759TIP3   OH223767   3.367   6.194  17.262 -0.0694  0.4133 -0.0919
  759TIP3    H123768   3.332   6.252  17.195  0.1187  1.3730  0.6298
  759TIP3    H223769   3.381   6.251  17.338  0.6545 -0.4584  0.4365
  760TIP3   OH223770   6.158   4.193   3.458 -0.2022 -0.2249  0.4178
  760TIP3    H123771   6.142   4.239   3.375 -3.3917 -1.5503  0.2139
  760TIP3    H223772   6.168   4.101   3.433 -0.4459 -0.5334  1.4218
  761TIP3   OH223773   0.899   4.115   4.011 -0.0232 -0.4109 -0.6119
  761TIP3    H123774   0.811   4.119   3.975 -0.8295 -0.5063  1.2966
  761TIP3    H223775   0.888   4.071   4.096  1.8002 -0.1268 -0.2128
  762TIP3   OH223776   3.801   3.605   4.770  0.3489  0.0385  0.1897
  762TIP3    H123777   3.838   3.654   4.844 -1.2709 -0.3752  1.2864
  762TIP3    H223778   3.808   3.666   4.696  1.2311  0.7615  0.8520
  763TIP3   OH223779   5.925   1.893   5.079  0.0405 -0.4567 -0.3149
  763TIP3    H123780   5.933   1.956   5.151 -0.4277 -1.0174  0.2390
  763TIP3    H223781   5.925   1.807   5.122 -0.7370 -0.7794 -0.9388
  764TIP3   OH223782   4.811   5.310   4.408  0.1099  0.1332  0.2284
  764TIP3    H123783   4.889   5.353   4.375  1.2016  0.1647  2.7117
  764TIP3    H223784   4.758   5.381   4.444  0.8163 -0.2973  2.1775
  765TIP3   OH223785   2.267   3.142  12.474 -0.1968 -0.1572  0.2078
  765TIP3    H123786   2.288   3.234  12.458  0.3530 -0.0935  1.2331
  765TIP3    H223787   2.177   3.144  12.507  0.0979  0.0863  0.9963
  766TIP3   OH223788   5.132   6.128   4.131  0.5210 -0.9449 -0.1811
  766TIP3    H123789   5.048   6.175   4.132  1.2656  0.4236 -0.0170
  766TIP3    H223790   5.163   6.138   4.041  1.2059 -0.1318  0.1319
  767TIP3   OH223791   1.461   0.169  15.271 -0.3503 -0.3280  0.3235
  767TIP3    H123792   1.393   0.166  15.339 -1.7701 -0.2673 -1.0753
  767TIP3    H223793   1.425   0.118  15.198  1.0763 -0.2293 -0.4712
  768TIP3   OH223794   2.037   4.246  12.019 -0.3269  0.2054 -0.7138
  768TIP3    H123795   2.116   4.274  11.972 -0.1400 -0.5074 -0.8336
  768TIP3    H223796   1.984   4.326  12.026 -1.1824 -0.0157 -3.7379
  769TIP3   OH223797   6.231   1.155  12.477 -0.8027  0.6577 -0.1698
  769TIP3    H123798   6.258   1.101  12.551  2.3651  0.4392 -1.4024
  769TIP3    H223799   6.158   1.207  12.510 -1.2553 -1.4020  2.2567
  770TIP3   OH223800   2.434   1.151  13.037 -0.7120  0.7409  0.0443
  770TIP3    H123801   2.405   1.242  13.033  1.0848  1.2911 -1.3367
  770TIP3    H223802   2.477   1.143  13.122  0.5663  1.6611 -0.5012
  771TIP3   OH223803   3.969   2.827   5.827 -0.1678  0.3338 -0.5161
  771TIP3    H123804   3.947   2.830   5.734 -1.3831  0.9131 -0.2254
  771TIP3    H223805   3.913   2.758   5.862 -0.7974  1.1268  0.0552
  772TIP3   OH223806   1.619   5.239   1.879 -0.2141  0.5026  0.3885
  772TIP3    H123807   1.670   5.275   1.806 -1.0805  1.0369  0.0482
  772TIP3    H223808   1.667   5.160   1.904  0.0460  0.2643 -0.8200
  773TIP3   OH223809   4.793   0.389   0.386  0.7874  0.2342  0.1037
  773TIP3    H123810   4.855   0.333   0.433 -0.6684 -0.7415  0.8944
  773TIP3    H223811   4.786   0.350   0.299  1.4056  0.4323 -0.0324
  774TIP3   OH223812   3.733   1.983  13.282  0.1065  0.3858 -0.1662
  774TIP3    H123813   3.674   2.050  13.317 -1.1350  1.6646 -4.3104
  774TIP3    H223814   3.817   1.999  13.325 -1.5375  1.1751  2.8232
  775TIP3   OH223815   6.458   6.096   0.610 -0.0557 -0.0830  0.1125
  775TIP3    H123816   6.449   6.031   0.679 -0.2436 -0.0324  0.1354
  775TIP3    H223817   6.508   6.052   0.541 -0.1355 -0.2308  0.1512
  776TIP3   OH223818   4.310   6.558   0.658  0.0234  0.1764 -0.4143
  776TIP3    H123819   4.244   6.550   0.589 -0.4080  1.1326 -0.1189
  776TIP3    H223820   4.380   6.609   0.618  0.0152  0.2644 -0.3161
  777TIP3   OH223821   5.134   1.421  13.210 -0.0873 -0.4803  0.6676
  777TIP3    H123822   5.219   1.384  13.232  1.1368  1.5020 -0.6050
  777TIP3    H223823   5.135   1.431  13.115 -0.4284  2.6188  0.9457
  778TIP3   OH223824   4.225   0.365  10.595 -0.0488 -0.0133  0.0524
  778TIP3    H123825   4.282   0.416  10.654  1.2004 -0.6401 -0.6061
  778TIP3    H223826   4.245   0.274  10.614  1.4080 -0.2199 -2.3417
  779TIP3   OH223827   2.275   2.662  13.904 -0.1066 -0.5605 -0.8738
  779TIP3    H123828   2.348   2.602  13.920  0.1557 -0.1994 -0.7114
  779TIP3    H223829   2.315   2.738  13.862 -0.2605 -0.0144 -0.0416
  780TIP3   OH223830   4.819   1.342   1.938  0.2511  0.4987  0.7121
  780TIP3    H123831   4.772   1.277   1.990 -0.1891  0.2541  0.0231
  780TIP3    H223832   4.911   1.319   1.948  0.1033 -0.1472  0.5896
  781TIP3   OH223833   6.340   2.716  13.225 -0.4655 -0.3325  0.5093
  781TIP3    H123834   6.324   2.810  13.217 -0.1134 -0.2367  0.9052
  781TIP3    H223835   6.361   2.687  13.136  2.1699  0.4738  0.8091
  782TIP3   OH223836   3.911   2.081   5.019 -0.3341 -0.0292  0.1234
  782TIP3    H123837   3.885   2.170   5.042  0.6800  1.2013 -3.1861
  782TIP3    H223838   4.002   2.074   5.048  0.0251  0.5304 -0.8242
  783TIP3   OH223839   6.092   3.234   6.321 -0.7045  0.2100  0.3861
  783TIP3    H123840   5.998   3.239   6.302 -0.6874  0.5209  0.3758
  783TIP3    H223841   6.097   3.201   6.411 -0.7944 -0.9404 -0.0277
  784TIP3   OH223842   3.738   2.174   4.373  0.1312  0.2750  0.1704
  784TIP3    H123843   3.825   2.191   4.410  0.6886 -1.2258 -0.4190
  784TIP3    H223844   3.744   2.202   4.282  0.4237 -1.0906 -0.2415
  785TIP3   OH223845   3.088   0.385  15.071 -0.0805 -0.0461  0.1901
  785TIP3    H123846   3.090   0.410  14.979  0.6604  2.3118  0.7953
  785TIP3    H223847   3.180   0.373  15.094 -0.2712 -0.7717  0.6002
  786TIP3   OH223848   3.454   1.402   2.012 -0.5192  0.2783  0.2164
  786TIP3    H123849   3.415   1.410   1.924 -0.2979 -2.2958 -0.1684
  786TIP3    H223850   3.538   1.359   1.997 -0.5919 -0.4143  1.7170
  787TIP3   OH223851   0.131   5.739  11.692 -0.1270  0.0551 -0.0965
  787TIP3    H123852   0.191   5.739  11.618 -1.5301 -2.6915 -1.2962
  787TIP3    H223853   0.064   5.803  11.670 -0.1399 -0.2333 -0.9031
  788TIP3   OH223854   5.695   0.894  16.827 -0.6013 -0.1809  0.2780
  788TIP3    H123855   5.600   0.904  16.818 -0.5698  0.1292  0.2932
  788TIP3    H223856   5.717   0.942  16.906 -0.1684  1.3997 -0.7748
  789TIP3   OH223857   1.018   5.644   1.759 -0.1302  0.6267 -0.5095
  789TIP3    H123858   1.010   5.687   1.674  1.0097  2.3512  0.2142
  789TIP3    H223859   0.943   5.676   1.810 -0.7768 -0.3545 -0.8303
  790TIP3   OH223860   3.628   0.026  16.644  0.2995 -0.1236 -0.4277
  790TIP3    H123861   3.609   0.045  16.736 -0.8262  0.6438 -0.8053
  790TIP3    H223862   3.545  -0.006  16.608  0.9639 -1.3068 -0.9638
  791TIP3   OH223863   5.180   0.839   3.686 -0.1929  0.3109  0.6911
  791TIP3    H123864   5.174   0.852   3.780 -1.3470 -0.3834  0.7168
  791TIP3    H223865   5.141   0.753   3.670 -0.6473  0.7210 -0.4948
  792TIP3   OH223866   1.454   1.956   1.262  0.2580  0.8638 -0.4106
  792TIP3    H123867   1.469   1.989   1.351 -1.5782  1.9178 -0.4726
  792TIP3    H223868   1.411   1.871   1.275  0.9969  0.5105 -0.2812
  793TIP3   OH223869   1.901   0.493   4.914 -0.6143 -0.2487 -0.3840
  793TIP3    H123870   1.883   0.416   4.968  1.2278 -0.2722  0.2326
  793TIP3    H223871   1.890   0.462   4.824  1.6598 -1.6969 -0.2054
  794TIP3   OH223872   4.401   2.964   0.265 -0.0154  0.1492  0.0648
  794TIP3    H123873   4.487   2.927   0.244  0.0526  0.4547 -0.1902
  794TIP3    H223874   4.408   2.989   0.357  0.3723  0.7415 -0.1233
  795TIP3   OH223875   4.342   3.750  12.001 -0.2951 -0.8248 -0.1858
  795TIP3    H123876   4.332   3.843  12.025  0.1653 -0.8710  0.2137
  795TIP3    H223877   4.399   3.752  11.924  2.0576 -0.9091  1.4883
  796TIP3   OH223878   4.795   3.079   1.447  0.2290  0.2348  0.2503
  796TIP3    H123879   4.779   3.137   1.522 -0.7719 -0.8366  0.8835
  796TIP3    H223880   4.713   3.080   1.398 -0.1620 -1.4115  0.8216
  797TIP3   OH223881   2.746   2.786  12.531  0.3685 -0.1762 -0.2066
  797TIP3    H123882   2.781   2.711  12.578  1.8653 -0.3365 -1.5336
  797TIP3    H223883   2.655   2.763  12.512 -0.0568 -0.3797  1.9893
  798TIP3   OH223884   4.147   5.571  12.164  0.7361 -0.6235 -0.1939
  798TIP3    H123885   4.220   5.561  12.225 -0.6236 -0.9926  1.4180
  798TIP3    H223886   4.109   5.483  12.159 -1.1147  0.0819  0.9651
  799TIP3   OH223887   4.946   0.209  11.851 -0.1155  0.0649 -0.3699
  799TIP3    H123888   5.012   0.190  11.918 -0.7275  0.8133  0.4554
  799TIP3    H223889   4.871   0.242  11.900 -0.8778 -0.1769 -1.3590
  800TIP3   OH223890   2.801   3.035   5.237 -0.5731 -0.2124 -0.4585
  800TIP3    H123891   2.795   2.977   5.312 -0.2270  1.5425  0.9543
  800TIP3    H223892   2.888   3.018   5.201 -0.3516 -0.3427  0.1321
  801TIP3   OH223893   6.796   0.913   4.502 -0.2214 -0.1224  0.2233
  801TIP3    H123894   6.787   0.893   4.409  2.6687  2.3655 -0.6813
  801TIP3    H223895   6.761   1.002   4.511  0.9038  0.2288  1.2085
  802TIP3   OH223896   3.797   2.986   1.960 -0.1379  0.0061  0.6634
  802TIP3    H123897   3.770   3.019   1.874  0.5037  0.3577  0.6022
  802TIP3    H223898   3.764   2.896   1.962 -0.2186  0.0230  0.0785
  803TIP3   OH223899   5.889   0.349  16.303  0.1421 -0.7978 -0.2904
  803TIP3    H123900   5.896   0.404  16.381  0.6827 -1.3826  0.0798
  803TIP3    H223901   5.975   0.355  16.261 -0.1208 -0.5494 -0.8017
  804TIP3   OH223902   4.949   6.449   6.101 -0.3749  0.2764 -0.0610
  804TIP3    H123903   4.942   6.456   6.196 -0.6550 -2.2289  0.1597
  804TIP3    H223904   5.034   6.486   6.080 -0.7015  1.6960  1.0604
  805TIP3   OH223905   2.427   4.593  15.661 -0.2951  0.5608  0.1917
  805TIP3    H123906   2.466   4.553  15.738 -1.0866 -0.6103 -0.0128
  805TIP3    H223907   2.333   4.583  15.673 -0.4040 -0.6024 -1.4185
  806TIP3   OH223908   0.729   2.135  13.376  0.5579  0.0676 -0.8469
  806TIP3    H123909   0.735   2.230  13.362 -0.9018  0.1853 -0.7582
  806TIP3    H223910   0.679   2.127  13.458  0.5399 -0.7878 -0.9427
  807TIP3   OH223911   6.542   2.431   0.445 -0.8274  0.2713  0.0914
  807TIP3    H123912   6.574   2.500   0.503 -1.1801 -0.2480  0.9096
  807TIP3    H223913   6.447   2.440   0.447 -0.7685  1.7689 -2.2778
  808TIP3   OH223914   6.772   6.631  14.377 -0.0274 -0.1408  0.1860
  808TIP3    H123915   6.849   6.638  14.321  0.1280  0.9414  0.5207
  808TIP3    H223916   6.807   6.622  14.465 -0.2888  0.8314  0.3911
  809TIP3   OH223917   5.504   0.896  13.912  0.3276  0.2537 -0.3305
  809TIP3    H123918   5.457   0.821  13.877  2.3226 -1.9302  1.5532
  809TIP3    H223919   5.446   0.931  13.980 -0.0041 -0.4546 -0.2454
  810TIP3   OH223920   3.984   4.195   5.298 -0.7559  0.3541  0.3898
  810TIP3    H123921   4.011   4.145   5.221  0.5436 -0.1225  1.1350
  810TIP3    H223922   3.913   4.251   5.267 -0.5375 -0.1546 -1.0470
  811TIP3   OH223923   5.508   6.393  14.562 -0.3205  0.6961  0.4320
  811TIP3    H123924   5.431   6.346  14.529 -1.0398  1.4121  1.0599
  811TIP3    H223925   5.499   6.481  14.525  1.4471  0.1350 -1.4088
  812TIP3   OH223926   3.492   2.126  11.362  0.3043 -0.6367  0.3303
  812TIP3    H123927   3.400   2.150  11.361  0.5414  0.2094 -1.4378
  812TIP3    H223928   3.494   2.038  11.324  0.1226 -1.1464  1.4469
  813TIP3   OH223929   4.640   3.970   0.131 -0.2353 -0.1363 -0.4744
  813TIP3    H123930   4.657   4.015   0.214 -2.7968  1.0722 -0.5422
  813TIP3    H223931   4.716   3.988   0.077  2.5600 -2.8081  2.3266
  814TIP3   OH223932   2.809   2.850  16.429  0.3475 -0.2482  0.2772
  814TIP3    H123933   2.814   2.846  16.333 -0.8415  0.3291  0.1833
  814TIP3    H223934   2.884   2.800  16.459  0.9533 -0.0996 -0.9677
  815TIP3   OH223935   4.897   2.775  13.190 -0.1869 -0.6885 -0.6233
  815TIP3    H123936   4.844   2.819  13.123  1.0121  0.7943 -0.6357
  815TIP3    H223937   4.874   2.819  13.272  0.3327 -0.6794 -0.4825
  816TIP3   OH223938   3.405   2.337  17.072 -0.3308  0.3647  0.2601
  816TIP3    H123939   3.334   2.354  17.135 -0.6302  0.0577  0.0078
  816TIP3    H223940   3.362   2.342  16.987  0.3154  2.0284  0.0110
  817TIP3   OH223941   2.886   4.662  16.339  0.3812  0.7726 -0.5276
  817TIP3    H123942   2.924   4.664  16.427 -0.1499  2.5255 -0.3142
  817TIP3    H223943   2.875   4.569  16.319  1.8421  0.3311  0.6755
  818TIP3   OH223944   3.663   0.161   2.861 -0.2212 -0.6602 -0.2239
  818TIP3    H123945   3.627   0.072   2.861  0.7367 -1.1098  2.3983
  818TIP3    H223946   3.722   0.163   2.785 -0.1181 -2.3235 -0.2120
  819TIP3   OH223947   3.906   4.013   6.299  0.0808 -0.3787  0.0972
  819TIP3    H123948   3.908   3.947   6.369  0.5761 -0.4000  0.0630
  819TIP3    H223949   3.834   3.986   6.242 -0.5758 -0.1444  0.8129
  820TIP3   OH223950   1.886   1.884   3.567 -0.3125 -0.6768 -0.3801
  820TIP3    H123951   1.908   1.877   3.660 -1.0954 -1.0013 -0.2104
  820TIP3    H223952   1.963   1.922   3.526  0.2845 -1.1571  0.3015
  821TIP3   OH223953   1.158   3.763   0.289 -0.1398 -1.0553 -0.5681
  821TIP3    H123954   1.236   3.713   0.315 -0.4960 -0.9490  0.7465
  821TIP3    H223955   1.084   3.709   0.318 -0.5526 -1.0171 -1.5458
  822TIP3   OH223956   5.754   5.265  12.415  0.6608  0.3583 -0.2353
  822TIP3    H123957   5.699   5.342  12.428 -0.1703 -0.6200  2.4626
  822TIP3    H223958   5.754   5.250  12.321 -1.7521  1.7749 -0.4942
  823TIP3   OH223959   5.386   3.484  10.802  0.1686 -0.8856 -0.1027
  823TIP3    H123960   5.412   3.550  10.866  1.6245 -1.8153  0.2899
  823TIP3    H223961   5.294   3.502  10.785  0.1064  0.1737  1.2837
  824TIP3   OH223962   4.348   4.271   6.634 -0.6974 -0.8515 -0.1309
  824TIP3    H123963   4.443   4.271   6.624 -0.6001 -0.2100  0.7099
  824TIP3    H223964   4.319   4.192   6.590  0.2821 -1.3576  0.1195
  825TIP3   OH223965   3.680   1.308  12.958  0.1226 -0.4356 -0.5831
  825TIP3    H123966   3.711   1.309  13.048  0.2228  0.2395 -0.6249
  825TIP3    H223967   3.739   1.367  12.911 -1.1374  0.7538 -0.6911
  826TIP3   OH223968   5.795   6.176   4.281 -0.6172  0.2909  0.1492
  826TIP3    H123969   5.738   6.170   4.205 -0.4452  2.4878 -0.1890
  826TIP3    H223970   5.743   6.142   4.353 -1.2370 -0.5974 -0.7093
  827TIP3   OH223971   6.398   6.147  14.890 -0.4022  0.6217 -0.2317
  827TIP3    H123972   6.398   6.214  14.959  1.2962  0.2930  0.1014
  827TIP3    H223973   6.400   6.064  14.937 -1.8427  0.3394 -0.6548
  828TIP3   OH223974   0.882   3.843  14.773  0.5186  0.1178  0.8604
  828TIP3    H123975   0.941   3.906  14.732 -2.3478  2.4183  0.1161
  828TIP3    H223976   0.879   3.770  14.711  0.4045  1.2180 -0.4663
  829TIP3   OH223977   4.992   1.183  15.146 -0.5275  0.4630  0.0191
  829TIP3    H123978   5.014   1.124  15.218  0.9895 -0.9808 -1.5385
  829TIP3    H223979   5.049   1.154  15.074  0.5671  4.1142 -0.6948
  830TIP3   OH223980   1.254   4.345   1.000 -0.6816 -0.1173 -0.0823
  830TIP3    H123981   1.341   4.349   1.039 -0.0627  2.3063 -1.5988
  830TIP3    H223982   1.258   4.272   0.939  0.4708  0.3044 -0.5266
  831TIP3   OH223983   0.143   2.331  16.949 -0.3955 -0.1140  0.2641
  831TIP3    H123984   0.156   2.401  17.013 -0.2355 -0.2116  0.3400
  831TIP3    H223985   0.231   2.309  16.920 -0.4433 -0.3155  0.2760
  832TIP3   OH223986   1.358   1.456   4.090 -0.0289  1.0371  0.4136
  832TIP3    H123987   1.412   1.442   4.012 -1.5874 -0.2947 -0.4614
  832TIP3    H223988   1.368   1.376   4.141 -1.5073  0.5821  0.0204
  833TIP3   OH223989   2.577   2.491   0.552  0.5284  0.5152 -0.0017
  833TIP3    H123990   2.514   2.547   0.506 -1.1389 -0.3564  1.1823
  833TIP3    H223991   2.649   2.480   0.489 -0.6468  1.2304 -1.5102
  834TIP3   OH223992   3.483   1.391   3.137 -0.1344 -0.7630 -0.3640
  834TIP3    H123993   3.526   1.307   3.121  1.6880  0.1375 -0.3414
  834TIP3    H223994   3.537   1.432   3.205 -1.5026  0.0610  0.2379
  835TIP3   OH223995   5.039   4.311   5.732  0.1108 -0.6888  0.3303
  835TIP3    H123996   5.004   4.257   5.803  0.6388  0.6465  1.6379
  835TIP3    H223997   5.045   4.399   5.770  1.0020 -0.0861 -1.1754
  836TIP3   OH223998   4.462   6.378  12.315  0.1685  0.4122 -0.0027
  836TIP3    H123999   4.533   6.340  12.263  0.2715 -1.5036  1.5139
  836TIP3    H224000   4.400   6.411  12.250  1.4478  0.2337 -1.3397
  837TIP3   OH224001   5.872   5.192   0.229  0.2912 -0.3520  0.0029
  837TIP3    H124002   5.800   5.150   0.181  0.6864 -2.6000  1.2824
  837TIP3    H224003   5.828   5.251   0.291 -0.3812 -0.4104 -0.4131
  838TIP3   OH224004   4.616   0.854  16.133 -0.0969 -0.1709  0.1286
  838TIP3    H124005   4.623   0.764  16.165  2.6023  0.2210  0.7250
  838TIP3    H224006   4.688   0.864  16.072 -0.0152  1.7810  0.5131
  839TIP3   OH224007   1.955   3.382  11.669 -0.2663 -0.5115 -0.0396
  839TIP3    H124008   1.861   3.385  11.686 -0.5250 -2.8998 -0.8739
  839TIP3    H224009   1.963   3.344  11.582  1.4770 -0.0905 -0.1015
  840TIP3   OH224010   1.789   1.971  13.721  0.0450 -0.4745 -0.0578
  840TIP3    H124011   1.777   2.021  13.802  1.3382 -0.4259  0.1149
  840TIP3    H224012   1.841   2.029  13.665 -3.0789  0.6072 -1.9781
  841TIP3   OH224013   6.727   3.768   5.517 -0.2490  0.7086  0.9380
  841TIP3    H124014   6.677   3.743   5.595 -1.9122 -0.1128 -0.3761
  841TIP3    H224015   6.754   3.686   5.477  1.0035  1.1335  0.8668
  842TIP3   OH224016   3.197   0.889   2.944  0.1998 -0.5133  0.0525
  842TIP3    H124017   3.241   0.859   2.864 -1.0963 -1.5225 -0.3012
  842TIP3    H224018   3.264   0.883   3.012  1.2090  0.0052 -0.8823
  843TIP3   OH224019   1.218   1.994  15.129 -0.4168 -0.0090 -0.5516
  843TIP3    H124020   1.293   1.940  15.102  0.2683  1.1698 -1.0325
  843TIP3    H224021   1.181   1.947  15.204  0.8683 -0.5633 -0.2454
  844TIP3   OH224022   2.442   1.138  15.826 -0.0345 -0.4990  0.2678
  844TIP3    H124023   2.453   1.099  15.739 -1.0632 -0.6187  0.1754
  844TIP3    H224024   2.456   1.065  15.887  0.3290 -0.4976  0.1827
  845TIP3   OH224025   2.053   2.423  16.765  0.9021  0.1397 -0.4279
  845TIP3    H124026   2.107   2.472  16.703 -0.5524  0.6730 -1.2889
  845TIP3    H224027   1.971   2.407  16.718 -0.0172  0.0735  1.1690
  846TIP3   OH224028   5.215   2.194   2.754 -0.6681  0.1111 -0.0391
  846TIP3    H124029   5.158   2.204   2.830 -1.1158  0.4225 -0.4127
  846TIP3    H224030   5.185   2.261   2.693 -2.2135 -1.9775 -1.6575
  847TIP3   OH224031   0.371   5.555   1.896  0.0552  0.1778 -0.5726
  847TIP3    H124032   0.302   5.491   1.877 -0.2243  0.3575 -0.1693
  847TIP3    H224033   0.451   5.514   1.865 -0.3324  0.2693 -1.7079
  848TIP3   OH224034   4.834   2.668  12.597  0.0926 -0.1151 -0.2588
  848TIP3    H124035   4.757   2.618  12.624 -0.4290  0.8979  0.1655
  848TIP3    H224036   4.899   2.650  12.665  0.0589 -0.5642 -0.3438
  849TIP3   OH224037   1.458   5.801  13.656  0.3477 -0.4796 -0.4523
  849TIP3    H124038   1.542   5.772  13.691  0.1115 -0.4675  0.1334
  849TIP3    H224039   1.480   5.849  13.577  0.8635 -0.8212 -0.5149
  850TIP3   OH224040   3.356   1.987  13.477 -0.0190 -0.0983 -0.6687
  850TIP3    H124041   3.363   2.001  13.382  1.2459 -1.0408 -0.7218
  850TIP3    H224042   3.441   2.015  13.511  0.9575 -3.3497 -0.2669
  851TIP3   OH224043   6.391   3.250  15.424 -0.1910 -0.4465  0.1551
  851TIP3    H124044   6.433   3.167  15.443 -1.3026 -0.8901  0.7605
  851TIP3    H224045   6.297   3.232  15.435 -0.6479  0.1863 -2.3634
  852TIP3   OH224046   5.039   2.259  13.170  0.2988 -0.2333  0.5102
  852TIP3    H124047   5.079   2.341  13.198 -0.0140 -0.1887  0.8338
  852TIP3    H224048   5.038   2.204  13.249  0.3027 -0.4662  0.3509
  853TIP3   OH224049   6.496   4.265  13.363  0.1198  0.1015 -0.1901
  853TIP3    H124050   6.435   4.231  13.429 -0.1168  0.6001 -0.1524
  853TIP3    H224051   6.470   4.220  13.282 -0.6232  0.6709 -0.2790
  854TIP3   OH224052   2.505   5.329  16.635  0.5635  0.0098 -0.2984
  854TIP3    H124053   2.566   5.300  16.703  1.6768  1.0109 -0.8381
  854TIP3    H224054   2.515   5.424  16.633 -0.3425  0.0973 -1.0372
  855TIP3   OH224055   4.475   2.714  12.503 -0.4703 -0.5898  0.2909
  855TIP3    H124056   4.507   2.651  12.567 -0.6877 -2.5318 -1.4507
  855TIP3    H224057   4.424   2.777  12.554 -0.5429 -2.0275  2.0230
  856TIP3   OH224058   6.536   0.396   2.230  0.2374 -0.0152 -0.2258
  856TIP3    H124059   6.506   0.376   2.141  1.0225  2.1216 -0.9977
  856TIP3    H224060   6.608   0.335   2.245  0.1546 -0.3365 -1.0828
  857TIP3   OH224061   1.426   6.706  16.499  0.0197 -0.2571  0.3603
  857TIP3    H124062   1.514   6.692  16.534  1.2166 -0.2757 -2.5351
  857TIP3    H224063   1.384   6.620  16.504  0.6942 -0.5885  0.3159
  858TIP3   OH224064   4.493   6.321   0.732 -0.0659  0.1746 -0.0913
  858TIP3    H124065   4.432   6.383   0.692 -0.6724 -0.8974 -0.8831
  858TIP3    H224066   4.436   6.258   0.776  0.5208 -0.0570  0.3373
  859TIP3   OH224067   2.486   4.860   5.104  0.6035  0.0561  0.3193
  859TIP3    H124068   2.579   4.873   5.081  0.8625 -1.2308  0.6157
  859TIP3    H224069   2.470   4.768   5.086 -0.4786  0.1464  0.8150
  860TIP3   OH224070   0.760   1.876  11.954 -0.5904  0.1531 -0.3454
  860TIP3    H124071   0.795   1.843  12.037  4.0273  0.5142 -1.9876
  860TIP3    H224072   0.758   1.971  11.966 -2.1498  0.0747  0.1169
  861TIP3   OH224073   4.714   1.425   2.529 -0.8585 -0.1887 -0.2236
  861TIP3    H124074   4.800   1.396   2.560 -1.3469 -2.6934 -1.1202
  861TIP3    H224075   4.658   1.424   2.606 -0.5463 -0.3570 -0.0012
  862TIP3   OH224076   6.568   5.994   5.046  0.4078  0.2911  0.3737
  862TIP3    H124077   6.501   6.059   5.027  0.5905  0.0214 -1.2212
  862TIP3    H224078   6.529   5.911   5.018  0.7005 -0.1242  1.1661
  863TIP3   OH224079   2.282   0.469   0.115  0.1295 -0.0903  0.2286
  863TIP3    H124080   2.257   0.561   0.113  1.5833  0.3107 -0.5770
  863TIP3    H224081   2.334   0.456   0.035  1.2771 -1.2087  1.1227
  864TIP3   OH224082   0.957   4.789  17.007 -0.3890 -0.2871 -0.5415
  864TIP3    H124083   1.050   4.779  17.023 -0.7864 -1.2054  1.3398
  864TIP3    H224084   0.920   4.810  17.093 -1.8992  0.1202 -1.2688
  865TIP3   OH224085   4.046   2.350  12.580 -0.5932 -0.5972 -0.5379
  865TIP3    H124086   4.081   2.295  12.651 -1.7751 -1.2162 -0.4222
  865TIP3    H224087   4.121   2.366  12.523 -0.1251 -1.9743 -0.3327
  866TIP3   OH224088   0.426   1.659   4.399 -0.1943 -0.2405  0.0884
  866TIP3    H124089   0.360   1.717   4.361 -1.0823  0.0088  1.9300
  866TIP3    H224090   0.395   1.571   4.376 -0.3600 -0.0768 -0.3320
  867TIP3   OH224091   0.087   5.794   4.777 -0.4496 -0.0586 -0.1322
  867TIP3    H124092   0.140   5.873   4.781 -1.7219  0.8540 -0.7750
  867TIP3    H224093   0.016   5.816   4.717 -1.4240 -1.3245  0.5249
  868TIP3   OH224094   5.016   3.956   2.120  0.4768  0.1850  0.2813
  868TIP3    H124095   5.026   4.002   2.037  2.5956 -1.7794 -0.5922
  868TIP3    H224096   4.980   3.871   2.096  1.5771 -0.5804  1.3108
  869TIP3   OH224097   5.635   4.274  13.230 -0.5162 -0.2352  0.6862
  869TIP3    H124098   5.635   4.186  13.267 -0.3124 -0.3149  0.4940
  869TIP3    H224099   5.626   4.261  13.136 -0.6217 -0.0460  0.6693
  870TIP3   OH224100   4.717   1.579  15.618 -0.0983 -0.1179 -0.3640
  870TIP3    H124101   4.655   1.609  15.552  0.2743  0.2404 -0.5509
  870TIP3    H224102   4.761   1.659  15.647  0.1180 -0.3448 -0.0692
  871TIP3   OH224103   1.225   3.257  16.388  0.4525 -0.7400 -0.4649
  871TIP3    H124104   1.259   3.347  16.388  1.3478 -1.0711 -0.4426
  871TIP3    H224105   1.171   3.251  16.309  1.3614 -0.5346 -1.1123
  872TIP3   OH224106   5.455   5.314  12.600  0.0272 -0.1822 -0.6937
  872TIP3    H124107   5.510   5.248  12.558 -1.2083 -0.6295 -1.6300
  872TIP3    H224108   5.479   5.396  12.558  0.0883 -0.3552 -0.9988
  873TIP3   OH224109   5.284   5.460   5.425 -0.3641 -0.4992 -0.6006
  873TIP3    H124110   5.313   5.409   5.501  1.3737 -0.6166 -1.3195
  873TIP3    H224111   5.260   5.545   5.462  1.4034 -0.2292 -0.0212
  874TIP3   OH224112   4.035   6.747  15.435 -0.4179  0.6408  0.2975
  874TIP3    H124113   3.952   6.701  15.449 -0.4081  0.4638 -0.2305
  874TIP3    H224114   4.086   6.729  15.514 -1.4623  1.9862  1.2810
  875TIP3   OH224115   3.417   4.946   1.918 -0.0599  0.1397 -0.2824
  875TIP3    H124116   3.396   5.023   1.971 -2.3484  0.7581 -1.9795
  875TIP3    H224117   3.338   4.891   1.924  0.4814 -0.7682 -1.3246
  876TIP3   OH224118   5.675   4.774   5.336  0.4330  0.1897  0.4974
  876TIP3    H124119   5.682   4.786   5.241 -0.1930 -0.0145  0.4213
  876TIP3    H224120   5.765   4.771   5.367  0.6701 -1.2342 -0.2828
  877TIP3   OH224121   4.891   1.513   5.335 -0.3894 -0.5180  0.2459
  877TIP3    H124122   4.946   1.516   5.413 -0.4190  0.5863  0.2231
  877TIP3    H224123   4.803   1.492   5.369  0.1316 -2.9460  0.2185
  878TIP3   OH224124   0.745   6.136   4.091  0.0261 -0.1087  0.2245
  878TIP3    H124125   0.659   6.172   4.113  0.2943  0.2470  0.6913
  878TIP3    H224126   0.736   6.106   4.000 -0.4016  0.5074  0.0635
  879TIP3   OH224127   4.126   5.121   3.871 -0.7679 -0.7303 -0.2411
  879TIP3    H124128   4.186   5.122   3.945 -1.1679 -0.5915  0.0830
  879TIP3    H224129   4.122   5.030   3.843 -0.2250 -0.7017 -0.4131
  880TIP3   OH224130   4.328   0.590  15.720  0.1759 -0.2950  0.2770
  880TIP3    H124131   4.327   0.682  15.748 -2.5557 -0.0382 -0.4440
  880TIP3    H224132   4.376   0.590  15.638  0.2284  0.4921  0.3010
  881TIP3   OH224133   6.577   0.392  15.268 -0.3536  0.0692  0.1098
  881TIP3    H124134   6.665   0.396  15.229 -0.6458 -3.0337 -1.0183
  881TIP3    H224135   6.589   0.343  15.349 -0.9181  0.3566  0.3668
  882TIP3   OH224136   5.217   4.637   3.251 -0.3936 -0.2793 -0.1762
  882TIP3    H124137   5.123   4.652   3.239  0.0567  3.2518  0.3905
  882TIP3    H224138   5.222   4.584   3.331 -1.8415  0.6878  0.5806
  883TIP3   OH224139   4.639   2.619  14.309 -0.1620 -0.6475 -0.2323
  883TIP3    H124140   4.716   2.639  14.361 -0.7718  1.0372  0.0360
  883TIP3    H224141   4.633   2.523  14.311  1.0771 -0.7103  0.9491
  884TIP3   OH224142   6.240   2.681  11.283 -0.3775  0.0655  0.3706
  884TIP3    H124143   6.242   2.699  11.189 -0.5131 -0.0060  0.3537
  884TIP3    H224144   6.287   2.754  11.323 -3.6000  2.1277  0.5726
  885TIP3   OH224145   4.284   3.021  16.257  0.1067  0.6273 -0.0619
  885TIP3    H124146   4.336   2.952  16.298  0.7468  0.6796 -0.7629
  885TIP3    H224147   4.319   3.102  16.293  0.0553  0.6345 -0.0265
  886TIP3   OH224148   6.324   5.854  14.336  0.0766  0.7797  0.2045
  886TIP3    H124149   6.404   5.905  14.340 -0.6232  1.8846  0.4213
  886TIP3    H224150   6.325   5.800  14.415  0.8594  0.3950 -0.0663
  887TIP3   OH224151   5.804   1.438  15.611  0.1314 -0.3426  0.6777
  887TIP3    H124152   5.866   1.440  15.538 -0.6145  3.5723  0.0613
  887TIP3    H224153   5.859   1.453  15.688  0.4359 -0.7598  0.5463
  888TIP3   OH224154   0.148   6.269  11.406  0.4804  0.1091 -0.5408
  888TIP3    H124155   0.146   6.283  11.311 -1.0422 -0.3640 -0.6008
  888TIP3    H224156   0.104   6.185  11.418  2.3837 -0.7664  0.4417
  889TIP3   OH224157   0.433   1.850  13.203  0.6443  0.0183 -0.0682
  889TIP3    H124158   0.450   1.821  13.293 -2.0697 -0.6180  0.3116
  889TIP3    H224159   0.442   1.770  13.151 -1.4984 -0.4434  0.2131
  890TIP3   OH224160   3.878   3.789  16.303 -0.1075  0.0471 -0.2405
  890TIP3    H124161   3.899   3.722  16.368 -0.8845  0.5513  0.5370
  890TIP3    H224162   3.865   3.869  16.354 -2.6666  0.0398 -0.8016
  891TIP3   OH224163   3.588   1.080  11.697 -0.4282  0.2174 -0.4512
  891TIP3    H124164   3.596   0.999  11.648  0.0878 -0.4910  0.7825
  891TIP3    H224165   3.672   1.089  11.742 -1.2272  0.3888  1.0205
  892TIP3   OH224166   2.981   2.556  15.419 -0.3987  0.4665 -0.0094
  892TIP3    H124167   3.066   2.540  15.380 -0.3473  1.2148 -0.2085
  892TIP3    H224168   2.918   2.536  15.349 -0.3997 -0.2276  0.1827
  893TIP3   OH224169   2.997   0.766  11.915  0.0250 -0.0709  0.2907
  893TIP3    H124170   2.976   0.741  11.825  2.7927 -1.7953  0.0898
  893TIP3    H224171   2.911   0.770  11.958 -1.4068  1.3698 -2.5167
  894TIP3   OH224172   6.576   0.611  11.470 -0.0001 -0.1569 -0.5835
  894TIP3    H124173   6.615   0.527  11.447  2.0993  0.8233 -0.7111
  894TIP3    H224174   6.552   0.651  11.387  2.4122  0.9514 -0.7735
  895TIP3   OH224175   1.431   5.139  16.113 -0.3074 -0.4441 -0.2491
  895TIP3    H124176   1.510   5.124  16.060 -0.3072  0.6731 -0.5966
  895TIP3    H224177   1.358   5.118  16.054 -0.2749 -1.1628 -0.0316
  896TIP3   OH224178   1.210   4.441  15.082  0.4468  0.4571  0.1692
  896TIP3    H124179   1.235   4.526  15.118  0.9820  0.0931  0.6860
  896TIP3    H224180   1.284   4.416  15.027  0.0351  0.5899 -0.4417
  897TIP3   OH224181   0.290   1.399  12.019 -0.1223  0.5934  0.1210
  897TIP3    H124182   0.373   1.417  11.975 -0.2749  0.2923 -0.3045
  897TIP3    H224183   0.233   1.471  11.992 -0.1886  0.4572 -0.1087
  898TIP3   OH224184   1.921   6.540   4.202 -0.2038  0.0636 -0.4795
  898TIP3    H124185   1.884   6.459   4.165 -1.3894 -0.0123  0.8286
  898TIP3    H224186   1.963   6.512   4.284 -1.1691  0.8660  0.3014
  899TIP3   OH224187   5.813   5.300   4.877  0.7189 -0.0830 -0.1945
  899TIP3    H124188   5.873   5.228   4.897  0.4700 -0.3072 -0.2493
  899TIP3    H224189   5.780   5.327   4.963  0.4287 -0.3679 -0.2167
  900TIP3   OH224190   1.026   2.443   0.157 -0.5321  0.6714 -0.4881
  900TIP3    H124191   0.932   2.454   0.142 -0.3889  1.2703 -1.0045
  900TIP3    H224192   1.065   2.526   0.127  0.4218 -0.6033 -2.9020
  901TIP3   OH224193   3.415   3.173   2.665  0.4088  0.5733 -0.0621
  901TIP3    H124194   3.488   3.216   2.710  0.1199  1.8401 -0.7953
  901TIP3    H224195   3.337   3.201   2.711  0.3188 -0.2543  0.3033
  902TIP3   OH224196   4.043   6.083  16.124 -0.2060 -0.1216 -0.1021
  902TIP3    H124197   4.071   6.174  16.131  2.3704 -0.8407 -0.5578
  902TIP3    H224198   3.954   6.082  16.160 -0.2869  2.5721 -0.1719
  903TIP3   OH224199   3.824   0.871   4.984 -0.4813 -0.4249  0.2142
  903TIP3    H124200   3.915   0.864   4.954 -0.4039 -1.7561  0.7449
  903TIP3    H224201   3.829   0.855   5.078 -0.8223  2.9750  0.8702
  904TIP3   OH224202   3.774   1.830   0.814  0.0755 -0.1437  0.0183
  904TIP3    H124203   3.837   1.901   0.821 -0.2856  0.1169  0.6634
  904TIP3    H224204   3.796   1.771   0.886 -0.0869 -0.3150 -0.0719
  905TIP3   OH224205   3.287   4.498  12.207 -0.3626 -0.3973 -0.1184
  905TIP3    H124206   3.287   4.407  12.177 -1.5207 -1.0451  1.7598
  905TIP3    H224207   3.361   4.538  12.162 -0.2164 -2.1001 -1.4570
  906TIP3   OH224208   4.728   5.215  15.193  0.1788  0.1566  0.2510
  906TIP3    H124209   4.753   5.205  15.285 -1.1089 -0.7404  0.5275
  906TIP3    H224210   4.803   5.181  15.144  0.4967 -0.2297  0.9909
  907TIP3   OH224211   3.920   3.461   1.256 -0.1772 -0.1746  0.9302
  907TIP3    H124212   3.981   3.535   1.253  0.7285 -0.9065  0.9408
  907TIP3    H224213   3.849   3.485   1.197  0.8686  0.0569 -0.2530
  908TIP3   OH224214   1.571   6.329   2.756  0.2417 -0.4481  0.4684
  908TIP3    H124215   1.666   6.314   2.750  0.9331  2.9925  1.6576
  908TIP3    H224216   1.546   6.289   2.840  0.1854 -3.1387 -0.7597
  909TIP3   OH224217   1.711   2.514   1.298 -0.2076 -0.5047  0.0275
  909TIP3    H124218   1.640   2.459   1.330 -0.9291 -0.7448 -1.9282
  909TIP3    H224219   1.670   2.598   1.280  0.0509 -0.5765 -0.9108
  910TIP3   OH224220   6.270   1.466   3.980  0.0923 -0.3885 -0.3131
  910TIP3    H124221   6.355   1.459   4.024  0.2870  0.7759 -0.5032
  910TIP3    H224222   6.208   1.433   4.045  0.7901 -2.2059 -0.5383
  911TIP3   OH224223   3.626   5.710  10.636 -0.5053 -0.3434  0.1009
  911TIP3    H124224   3.661   5.796  10.613  0.2333 -0.2708  1.4876
  911TIP3    H224225   3.546   5.703  10.585  0.7555  0.0879 -2.0202
  912TIP3   OH224226   2.168   1.095   5.497  0.3291 -0.5028  0.1645
  912TIP3    H124227   2.175   1.043   5.417  1.5241  0.9379 -0.7134
  912TIP3    H224228   2.080   1.135   5.492  0.6889  0.1943 -0.8434
  913TIP3   OH224229   4.524   5.098  15.042 -0.0149 -0.5933  0.5595
  913TIP3    H124230   4.586   5.148  15.095 -0.1236  1.2738 -1.0421
  913TIP3    H224231   4.455   5.074  15.103  1.6862 -1.7228  2.1077
  914TIP3   OH224232   0.791   1.935   5.619 -0.2360 -0.1309 -0.5108
  914TIP3    H124233   0.732   1.896   5.555  0.8822 -0.2267 -1.5115
  914TIP3    H224234   0.798   1.869   5.688 -1.3021 -0.1110 -0.3833
  915TIP3   OH224235   5.344   3.795  17.025  0.0114  0.2182 -0.5298
  915TIP3    H124236   5.274   3.747  17.068 -0.2716 -0.3163 -1.5827
  915TIP3    H224237   5.399   3.728  16.985  0.0928  0.7212 -1.2756
  916TIP3   OH224238   6.070   5.597  11.753 -0.0956 -0.6396 -0.4800
  916TIP3    H124239   6.065   5.506  11.724 -0.8820 -0.7092 -0.1336
  916TIP3    H224240   6.161   5.621  11.739 -0.6688 -0.2945 -4.1090
  917TIP3   OH224241   3.743   1.654   2.029 -0.0505 -0.3659 -0.3465
  917TIP3    H124242   3.806   1.618   2.092 -0.9127 -1.3849 -0.0477
  917TIP3    H224243   3.769   1.615   1.945  0.3860  0.0880 -0.4292
  918TIP3   OH224244   5.135   6.746  11.342  0.0117  0.2154  0.2050
  918TIP3    H124245   5.179   6.766  11.259  1.2563 -0.4756  0.6766
  918TIP3    H224246   5.197   6.774  11.409 -0.7586  0.2725  0.9023
  919TIP3   OH224247   5.913   6.768  16.296  0.1198 -0.0488 -0.3037
  919TIP3    H124248   5.999   6.790  16.259 -0.8866  1.6033 -1.7194
  919TIP3    H224249   5.926   6.682  16.336  2.5027  0.2920 -0.2670
  920TIP3   OH224250   3.506   3.655   0.193  0.4884  0.1711 -0.0132
  920TIP3    H124251   3.487   3.563   0.206 -0.8681  0.7579  2.4123
  920TIP3    H224252   3.421   3.696   0.181  0.9152  1.3942  1.0199
  921TIP3   OH224253   2.592   3.142   5.561 -0.1268  0.0816 -0.1171
  921TIP3    H124254   2.684   3.169   5.555  0.1862 -1.0364 -0.4114
  921TIP3    H224255   2.583   3.074   5.494 -0.9270 -0.5011  0.5886
  922TIP3   OH224256   1.223   2.134   2.653 -0.0460 -0.3386  0.1643
  922TIP3    H124257   1.301   2.081   2.637 -0.0718 -0.3679  0.1345
  922TIP3    H224258   1.170   2.082   2.714  0.4951  0.2111  1.1068
  923TIP3   OH224259   6.635   3.743   1.569 -0.2949  0.4707  0.0321
  923TIP3    H124260   6.667   3.652   1.565  1.8910  1.2976 -2.6307
  923TIP3    H224261   6.665   3.775   1.653 -1.4081 -1.3480  1.1778
  924TIP3   OH224262   4.289   4.699   4.950 -0.4085 -0.0203 -0.1726
  924TIP3    H124263   4.376   4.681   4.916 -0.0681  1.9561 -0.4387
  924TIP3    H224264   4.263   4.619   4.996  2.1307 -0.1252  1.1408
  925TIP3   OH224265   3.329   6.479  16.927 -0.2210  0.1988  0.2932
  925TIP3    H124266   3.402   6.533  16.898  1.5532 -0.7547  2.8015
  925TIP3    H224267   3.343   6.395  16.884 -1.2602  0.7488 -1.1677
  926TIP3   OH224268   0.720   0.044  14.124  0.0980  0.4923  0.2603
  926TIP3    H124269   0.779   0.098  14.071 -0.0531  0.5718  0.1724
  926TIP3    H224270   0.747  -0.046  14.106 -0.7256  0.4611 -0.8796
  927TIP3   OH224271   5.622   1.987  11.729 -0.0290 -0.4170 -0.2105
  927TIP3    H124272   5.614   1.977  11.634  2.7187 -0.4197 -0.4924
  927TIP3    H224273   5.704   2.034  11.742  1.2231 -3.0795  2.2541
  928TIP3   OH224274   3.737   0.517   0.301 -0.0002  0.4518 -0.3518
  928TIP3    H124275   3.828   0.543   0.289 -0.2750  1.3539 -0.5949
  928TIP3    H224276   3.732   0.427   0.269  0.9828  0.1043  0.4657
  929TIP3   OH224277   3.989   4.348  12.972 -0.0861 -0.1208  0.3795
  929TIP3    H124278   4.016   4.420  13.029 -1.4599  0.3343  0.4793
  929TIP3    H224279   3.910   4.380  12.930  0.5882 -0.6937 -1.3414
  930TIP3   OH224280   0.425   2.879  16.021 -0.2116  0.2073 -0.5725
  930TIP3    H124281   0.511   2.856  16.056 -0.4133  0.6526  0.2284
  930TIP3    H224282   0.445   2.932  15.944  0.2401 -1.5926 -1.7398
  931TIP3   OH224283   1.220   2.454   4.249  0.4039 -0.2040 -0.4644
  931TIP3    H124284   1.194   2.525   4.308 -0.4099  0.1069 -1.1935
  931TIP3    H224285   1.162   2.382   4.271  1.6867 -0.8976  0.7552
  932TIP3   OH224286   2.957   2.470   6.715  0.0546  0.3635 -0.3694
  932TIP3    H124287   2.891   2.402   6.704 -0.5508  0.9999 -0.7307
  932TIP3    H224288   3.027   2.445   6.655  0.3818 -0.5966  0.3968
  933TIP3   OH224289   4.840   1.769  13.445  0.2405 -0.1381  0.4691
  933TIP3    H124290   4.915   1.720  13.412  0.1365  0.4050 -0.6191
  933TIP3    H224291   4.878   1.840  13.496  0.4873  0.2961 -0.3072
  934TIP3   OH224292   4.924   2.863  17.125 -0.0082 -0.1167  0.8569
  934TIP3    H124293   4.941   2.931  17.190  0.1300  0.6068  0.0801
  934TIP3    H224294   4.829   2.854  17.124 -0.0742  0.6015  0.4274
  935TIP3   OH224295   1.667   4.720   2.233 -0.1508  0.1155  0.2871
  935TIP3    H124296   1.612   4.656   2.189 -0.2912  0.5036 -0.1119
  935TIP3    H224297   1.712   4.766   2.161  2.4358 -1.7325  0.6626
  936TIP3   OH224298   2.106   5.777  10.587  0.0329  0.3469 -0.0232
  936TIP3    H124299   2.104   5.758  10.493 -0.5859 -0.8837  0.2293
  936TIP3    H224300   2.155   5.859  10.594  2.9716 -1.2208 -1.1810
  937TIP3   OH224301   4.049   2.828   4.513  0.7654  0.8115  0.4448
  937TIP3    H124302   4.125   2.869   4.470  0.3132  1.4738  0.2684
  937TIP3    H224303   3.985   2.898   4.519  0.4184  0.4249  1.2193
  938TIP3   OH224304   0.201   2.613   5.997 -0.3154 -0.5543 -0.0162
  938TIP3    H124305   0.278   2.568   5.964  0.2571  0.5322 -0.1762
  938TIP3    H224306   0.131   2.548   5.992  0.2254 -1.0452 -1.3863
  939TIP3   OH224307   4.870   2.657   5.921  0.5284  0.7391 -0.3469
  939TIP3    H124308   4.935   2.682   5.987  0.7765 -0.9424  0.0594
  939TIP3    H224309   4.786   2.683   5.959  0.8671  2.1040 -0.4874
  940TIP3   OH224310   2.256   0.310   0.744 -0.1972  0.0237  0.4772
  940TIP3    H124311   2.276   0.394   0.703  1.6157 -0.9744 -0.7967
  940TIP3    H224312   2.199   0.331   0.817  0.7586  2.4320  0.5720
  941TIP3   OH224313   5.263   1.722  14.463  0.6237  0.8404 -0.4390
  941TIP3    H124314   5.349   1.682  14.459 -0.7142 -2.1977 -0.0904
  941TIP3    H224315   5.260   1.765  14.548  1.3193 -0.2018  0.1172
  942TIP3   OH224316   4.140   3.761  11.588  0.1830  0.1164 -0.1541
  942TIP3    H124317   4.052   3.784  11.615  1.1575  1.0784  2.3271
  942TIP3    H224318   4.157   3.675  11.627  0.8340  0.5695  0.5869
  943TIP3   OH224319   1.810   4.844   1.985 -0.4416 -0.7965  0.1372
  943TIP3    H124320   1.842   4.933   1.970 -0.8404 -0.5257  0.8692
  943TIP3    H224321   1.884   4.798   2.024 -1.1546  0.0437  2.5737
  944TIP3   OH224322   1.551   2.625   3.639 -0.0391 -0.2899  0.0875
  944TIP3    H124323   1.542   2.530   3.640 -1.2628 -0.1861  2.7610
  944TIP3    H224324   1.502   2.653   3.562 -0.0960 -1.7944 -0.4291
  945TIP3   OH224325   1.956   1.285   4.297 -0.3733  0.0877 -0.5622
  945TIP3    H124326   1.879   1.302   4.351 -0.6019  0.6690 -1.0652
  945TIP3    H224327   1.975   1.368   4.254  1.4196  0.3568  0.6721
  946TIP3   OH224328   4.920   2.273   1.580  0.9544  0.3622 -0.3836
  946TIP3    H124329   4.987   2.305   1.520 -0.6085  2.0001 -1.3070
  946TIP3    H224330   4.908   2.342   1.644 -0.6277  0.5879 -0.8865
  947TIP3   OH224331   2.971   2.597   3.936 -0.2334  0.4376  0.1142
  947TIP3    H124332   3.040   2.656   3.966  0.7358  0.3802 -1.8932
  947TIP3    H224333   2.904   2.601   4.004  2.0443 -0.0328  2.4990
  948TIP3   OH224334   5.341   0.856   2.165  0.1879 -0.9122 -0.0217
  948TIP3    H124335   5.372   0.793   2.101 -0.2515 -1.9794  0.7893
  948TIP3    H224336   5.275   0.808   2.216 -0.0676  0.1601  0.6825
  949TIP3   OH224337   1.026   2.162  14.482 -0.3940 -0.5698 -0.2484
  949TIP3    H124338   1.092   2.146  14.414 -1.2488 -0.7050 -1.0504
  949TIP3    H224339   0.997   2.252  14.468  0.9773  0.1415  1.2977
  950TIP3   OH224340   4.998   0.334   4.029 -0.5851 -0.2536 -0.1909
  950TIP3    H124341   4.954   0.298   3.952  0.5154  0.8765 -1.3774
  950TIP3    H224342   5.012   0.426   4.008  0.6200 -0.1649  0.9494
  951TIP3   OH224343   5.531   0.095   2.318 -0.2415 -0.1020  0.1176
  951TIP3    H124344   5.540   0.018   2.261 -0.7426 -0.3007  0.3074
  951TIP3    H224345   5.545   0.169   2.260  1.2604 -0.3665  0.1306
  952TIP3   OH224346   6.397   4.691   1.441  0.4754  0.2750  0.0240
  952TIP3    H124347   6.340   4.617   1.459 -3.0377  2.7423 -0.4807
  952TIP3    H224348   6.414   4.687   1.347  1.2735 -0.5270  0.1961
  953TIP3   OH224349   6.780   3.139   1.878  0.1032 -0.4309  0.4681
  953TIP3    H124350   6.689   3.115   1.861 -0.3864  0.7525  1.3055
  953TIP3    H224351   6.829   3.058   1.864 -1.0422 -1.0338 -0.2067
  954TIP3   OH224352   6.785   1.867  14.704 -0.1495 -0.5188 -0.2030
  954TIP3    H124353   6.713   1.928  14.718 -0.1846 -0.2064 -1.7257
  954TIP3    H224354   6.850   1.892  14.770 -0.5195  0.6006 -0.2548
  955TIP3   OH224355   0.067   2.649   0.725  0.9058 -0.5544  0.1820
  955TIP3    H124356  -0.010   2.690   0.686  0.2931  0.7467  2.6619
  955TIP3    H224357   0.072   2.563   0.682 -0.7352  0.1240 -1.4518
  956TIP3   OH224358   1.326   3.800  16.805 -0.5722 -0.6298  0.2955
  956TIP3    H124359   1.260   3.819  16.737  0.0992  1.5763  0.2394
  956TIP3    H224360   1.275   3.789  16.885 -1.1962 -1.1742 -0.1664
  957TIP3   OH224361   0.242   6.417   1.495  0.3234 -0.0645  0.1385
  957TIP3    H124362   0.250   6.329   1.458 -1.1951 -0.2548  0.2429
  957TIP3    H224363   0.316   6.424   1.556 -0.4665 -1.8732  1.3405
  958TIP3   OH224364   4.221   3.889   3.405 -0.3885 -0.3458 -0.0169
  958TIP3    H124365   4.280   3.830   3.359  0.5586 -0.1903  0.9669
  958TIP3    H224366   4.262   3.975   3.397  1.0345 -0.6550  3.0267
  959TIP3   OH224367   5.028   3.276  11.770 -0.5308  0.2637  0.1669
  959TIP3    H124368   5.013   3.189  11.733 -0.0492  0.6799 -1.0469
  959TIP3    H224369   5.028   3.263  11.864 -0.0989 -1.1249 -0.0162
  960TIP3   OH224370   5.872   3.598  16.268 -0.7903 -0.1990  0.1739
  960TIP3    H124371   5.787   3.610  16.309 -0.2693  0.5148  1.0736
  960TIP3    H224372   5.899   3.686  16.242  0.1770 -0.2632  0.9310
  961TIP3   OH224373   4.606   2.474   1.720 -0.5514 -0.0416 -0.4443
  961TIP3    H124374   4.635   2.562   1.740  1.3890 -0.8933  0.5848
  961TIP3    H224375   4.531   2.486   1.662 -0.2672  2.2646 -0.3630
  962TIP3   OH224376   6.349   2.045   1.880 -0.0773 -0.0545  0.0606
  962TIP3    H124377   6.302   1.966   1.855 -2.8737  1.6208 -0.2478
  962TIP3    H224378   6.368   2.089   1.798  3.5439 -1.4562  0.0651
  963TIP3   OH224379   0.747   0.186   1.073 -0.0201 -0.1301 -0.6443
  963TIP3    H124380   0.674   0.125   1.082 -1.1082  1.0336 -1.3477
  963TIP3    H224381   0.772   0.207   1.163  2.6479 -4.1920 -0.3057
  964TIP3   OH224382   3.838   2.570  15.109 -0.0431  0.2462  0.0598
  964TIP3    H124383   3.816   2.617  15.029 -0.6732 -0.1629 -0.0148
  964TIP3    H224384   3.801   2.625  15.179 -0.8825 -0.1903 -0.0350
  965TIP3   OH224385   2.956   5.068   0.026  0.0676 -0.0338 -0.1750
  965TIP3    H124386   2.969   5.142   0.085  2.4643 -1.3738  1.0903
  965TIP3    H224387   2.974   4.991   0.080 -1.0552 -1.4732 -1.8029
  966TIP3   OH224388   0.644   3.997  15.942 -0.2436  0.6191  0.8455
  966TIP3    H124389   0.716   4.028  15.887  0.2311 -1.5278  0.1926
  966TIP3    H224390   0.676   4.004  16.031  0.1795  1.1380  0.6572
  967TIP3   OH224391   5.395   4.539   3.066 -0.4830  0.4183 -0.7700
  967TIP3    H124392   5.366   4.455   3.030  0.9653  0.6006 -2.4439
  967TIP3    H224393   5.322   4.569   3.119 -0.5686 -2.4739  0.8424
  968TIP3   OH224394   0.226   5.550   5.142 -0.1891  0.7130  0.6782
  968TIP3    H124395   0.250   5.630   5.097 -0.4799  0.0631 -0.6557
  968TIP3    H224396   0.205   5.488   5.072  0.4802 -0.6669  1.6773
  969TIP3   OH224397   1.183   1.855  17.010 -0.0475 -0.7412 -0.6623
  969TIP3    H124398   1.174   1.787  16.944 -1.0723  0.0050 -1.3120
  969TIP3    H224399   1.153   1.814  17.091 -0.4534 -1.1316 -1.0045
  970TIP3   OH224400   6.722   0.009  16.785  0.3250 -0.1316  0.1251
  970TIP3    H124401   6.674   0.059  16.719  2.3245  0.1082 -1.1919
  970TIP3    H224402   6.687  -0.080  16.777 -0.6492  0.2569 -0.0613
  971TIP3   OH224403   2.439   5.369  15.690 -0.1768 -0.1228 -0.4325
  971TIP3    H124404   2.349   5.364  15.722  0.5679 -0.8494  1.5774
  971TIP3    H224405   2.457   5.463  15.684 -1.0184  0.0244 -0.7620
  972TIP3   OH224406   3.813   1.086  12.205  0.0175 -0.2646  0.3195
  972TIP3    H124407   3.738   1.136  12.171  0.8766  0.9917  0.2120
  972TIP3    H224408   3.856   1.051  12.127  0.8891  1.0099  0.2102
  973TIP3   OH224409   2.117   6.279  15.536  0.5203  0.2606  0.0388
  973TIP3    H124410   2.163   6.200  15.564 -0.2753 -0.0898  0.3825
  973TIP3    H224411   2.048   6.291  15.601 -0.1266  0.5489 -0.6861
  974TIP3   OH224412   0.335   4.771   5.984  0.0566 -1.0247 -0.2066
  974TIP3    H124413   0.342   4.710   6.057 -2.9558  0.7998  1.7536
  974TIP3    H224414   0.410   4.829   5.993  0.0698 -1.2336  1.0986
  975TIP3   OH224415   4.646   2.495  12.675  0.0819 -0.2040 -0.6964
  975TIP3    H124416   4.606   2.573  12.714  2.6704  1.0550 -0.4630
  975TIP3    H224417   4.640   2.428  12.744 -0.5982  0.2740 -0.2785
  976TIP3   OH224418   3.945   1.609  14.763 -0.3908  0.5527 -0.2890
  976TIP3    H124419   3.913   1.541  14.704  0.5803 -0.2267  0.0639
  976TIP3    H224420   3.898   1.595  14.845  0.1029  0.0463 -0.0899
  977TIP3   OH224421   0.880   1.865   2.521  0.3905 -0.4147 -0.3121
  977TIP3    H124422   0.841   1.782   2.495  0.6269  0.1044 -2.3517
  977TIP3    H224423   0.970   1.844   2.544  0.3656 -0.7641 -0.5458
  978TIP3   OH224424   2.484   4.215   5.547  0.3635 -0.3723  0.0891
  978TIP3    H124425   2.559   4.270   5.521 -0.7492  1.2519  0.2461
  978TIP3    H224426   2.494   4.206   5.642  0.6331 -0.5963  0.0432
  979TIP3   OH224427   1.239   2.968   0.805  0.1340  0.1479  0.2261
  979TIP3    H124428   1.210   2.937   0.719  0.6257 -1.4282  0.5986
  979TIP3    H224429   1.216   2.896   0.864 -1.0539  1.6170  1.5726
  980TIP3   OH224430   1.888   3.705  13.894  0.0809 -0.2749  0.2573
  980TIP3    H124431   1.814   3.752  13.932 -0.4493  0.3712 -1.5443
  980TIP3    H224432   1.963   3.733  13.946 -0.7780 -0.2359  1.5194
  981TIP3   OH224433   3.648   2.481  15.651 -0.0976  0.5462  0.0842
  981TIP3    H124434   3.704   2.406  15.632 -1.7377 -0.8810  0.7369
  981TIP3    H224435   3.633   2.522  15.566  2.0382  1.0406 -0.0768
  982TIP3   OH224436   3.199   5.145  17.190 -0.2972 -0.0522  0.3442
  982TIP3    H124437   3.270   5.109  17.243 -0.0775 -0.1551 -0.0125
  982TIP3    H224438   3.119   5.113  17.231 -0.0598 -4.5441 -2.3665
  983TIP3   OH224439   4.764   3.940  15.808 -0.0643 -0.0806  0.6347
  983TIP3    H124440   4.729   4.005  15.747 -1.4779 -0.9236  0.5220
  983TIP3    H224441   4.841   3.904  15.764 -0.4950  0.0337 -0.2232
  984TIP3   OH224442   3.429   4.226  14.334  0.3706  0.6306 -0.0892
  984TIP3    H124443   3.484   4.152  14.360  0.4457  0.2703 -1.2610
  984TIP3    H224444   3.486   4.281  14.281  0.6075  2.0628  1.6099
  985TIP3   OH224445   6.606   0.086   6.516 -0.1941 -0.4420 -0.1198
  985TIP3    H124446   6.596   0.178   6.489  0.3167 -0.3514 -0.0237
  985TIP3    H224447   6.598   0.036   6.435  4.3757  0.0345 -1.0313
  986TIP3   OH224448   3.259   3.362  14.475  0.6613 -0.6743 -0.2299
  986TIP3    H124449   3.279   3.441  14.525 -0.8077 -0.0899 -0.5453
  986TIP3    H224450   3.269   3.291  14.538 -0.2026 -0.0260  0.6594
  987TIP3   OH224451   5.318   1.533  14.073  0.1459  0.0795  0.0717
  987TIP3    H124452   5.353   1.444  14.069  0.2969  0.0440  1.5603
  987TIP3    H224453   5.386   1.587  14.034  0.9800 -0.2387  1.0369
  988TIP3   OH224454   5.361   6.721   2.456  0.8102 -0.4831  0.2642
  988TIP3    H124455   5.426   6.769   2.507  1.2716 -1.3151  0.4669
  988TIP3    H224456   5.324   6.787   2.396  1.1242  0.2170  0.8275
  989TIP3   OH224457   3.206   2.937   4.653 -0.1093  0.1819 -0.4531
  989TIP3    H124458   3.135   2.881   4.683  0.8835 -1.4366 -1.0995
  989TIP3    H224459   3.194   3.019   4.701 -2.5168 -0.0047 -0.7070
  990TIP3   OH224460   5.967   1.125   0.994  0.4229 -0.1623  0.4694
  990TIP3    H124461   5.996   1.076   1.071 -2.0795 -0.2280  1.4226
  990TIP3    H224462   5.952   1.214   1.026 -0.0733 -0.0531 -0.0524
  991TIP3   OH224463   6.084   3.494   3.661  0.1658  0.7128  1.0437
  991TIP3    H124464   6.176   3.489   3.635 -0.4362  0.6502 -1.2060
  991TIP3    H224465   6.063   3.407   3.693  0.5128  0.3165  0.2052
  992TIP3   OH224466   3.080   2.092  11.937 -0.0884  0.5006  0.4119
  992TIP3    H124467   3.008   2.092  11.874 -0.6398 -0.0339  1.0330
  992TIP3    H224468   3.096   1.999  11.955  0.8303  0.6125  0.2011
  993TIP3   OH224469   4.417   6.164  16.300 -0.4805  0.1513  0.2971
  993TIP3    H124470   4.389   6.075  16.276 -0.8151 -0.2151  2.0132
  993TIP3    H224471   4.511   6.155  16.319 -0.0015  0.6224 -1.6614
  994TIP3   OH224472   6.388   4.056   4.920 -0.1250  0.0720 -0.5286
  994TIP3    H124473   6.433   4.123   4.869 -0.1908  1.0533  0.6860
  994TIP3    H224474   6.296   4.061   4.891 -0.6624  2.3676  1.4859
  995TIP3   OH224475   4.521   1.648   4.608 -0.2726 -0.2457 -0.2958
  995TIP3    H124476   4.611   1.628   4.634 -0.2058 -0.3833 -0.6362
  995TIP3    H224477   4.494   1.575   4.553 -0.8305 -0.5378  0.3630
  996TIP3   OH224478   0.846   3.141  15.844  0.1640 -0.1128 -0.2991
  996TIP3    H124479   0.899   3.092  15.906  2.8651  0.9320 -1.7260
  996TIP3    H224480   0.909   3.187  15.788 -2.1672 -0.6273 -3.5266
  997TIP3   OH224481   3.704   6.479   0.378  0.5886 -0.7104 -0.4069
  997TIP3    H124482   3.747   6.541   0.319  0.9275 -0.0883  0.4827
  997TIP3    H224483   3.614   6.511   0.386  0.7414 -0.3852 -0.0112
  998TIP3   OH224484   5.625   2.207  12.922  0.2923  0.2419 -0.2658
  998TIP3    H124485   5.692   2.268  12.954 -0.1468 -0.3177  1.8497
  998TIP3    H224486   5.561   2.203  12.994 -1.0595 -0.6335 -1.4997
  999TIP3   OH224487   5.894   2.675  14.476 -0.1719  0.2080 -0.2753
  999TIP3    H124488   5.978   2.629  14.485  0.5713  1.5255 -0.1974
  999TIP3    H224489   5.916   2.753  14.424 -0.8523  1.7563  1.6719
 1000TIP3   OH224490   4.120   2.004  16.295 -0.1133  0.6191 -0.7553
 1000TIP3    H124491   4.104   2.057  16.373  1.1686  0.3742 -0.3180
 1000TIP3    H224492   4.183   2.054  16.244  0.9240 -0.3590 -0.4559
 1001TIP3   OH224493   6.372   3.038  15.160 -0.1437  0.7059  0.2686
 1001TIP3    H124494   6.456   3.071  15.130  0.8776 -2.4963 -0.5644
 1001TIP3    H224495   6.384   3.021  15.253 -0.7507  2.7257  0.7592
 1002TIP3   OH224496   6.185   1.603   3.245  0.1352 -0.0177 -0.6819
 1002TIP3    H124497   6.148   1.516   3.229  0.9276 -0.3331 -0.8317
 1002TIP3    H224498   6.109   1.657   3.267 -0.3340 -0.8130 -0.2829
 1003TIP3   OH224499   4.518   5.784  14.830 -1.0185 -0.1312 -0.1502
 1003TIP3    H124500   4.609   5.803  14.853 -1.9295  2.9323  1.2683
 1003TIP3    H224501   4.514   5.796  14.735 -0.5992  3.1478  0.1746
 1004TIP3   OH224502   4.558   2.891  16.806 -0.2207 -0.1408 -0.3516
 1004TIP3    H124503   4.536   2.958  16.741 -0.6567 -1.0355 -1.1373
 1004TIP3    H224504   4.651   2.873  16.793 -0.1506  0.1561 -0.2740
 1005TIP3   OH224505   2.101   0.999   3.637 -0.4579 -0.1747  0.7444
 1005TIP3    H124506   2.153   0.921   3.658 -1.0911 -0.9559 -0.4849
 1005TIP3    H224507   2.086   0.992   3.542 -2.4871  0.2086  1.0180
 1006TIP3   OH224508   0.995   1.100  15.104  0.3601  0.1263  0.7010
 1006TIP3    H124509   1.032   1.160  15.169 -1.0843  1.5242  0.2634
 1006TIP3    H224510   0.959   1.156  15.036  1.8314 -1.3201 -1.3623
 1007TIP3   OH224511   3.044   3.528   1.355  0.3219 -0.3076  0.2455
 1007TIP3    H124512   3.038   3.611   1.308  1.0012 -0.2332  0.2870
 1007TIP3    H224513   3.137   3.517   1.373  0.2856 -1.2550 -0.0851
 1008TIP3   OH224514   6.167   0.895  13.409 -0.1900 -0.0787  0.0609
 1008TIP3    H124515   6.259   0.870  13.413 -0.3330 -0.5035  0.7574
 1008TIP3    H224516   6.128   0.833  13.347 -0.6034 -1.8368  2.0059
 1009TIP3   OH224517   1.563   1.882   4.358 -0.4183  0.3283  0.7349
 1009TIP3    H124518   1.613   1.863   4.437 -0.2892 -2.6014  0.0126
 1009TIP3    H224519   1.625   1.868   4.287 -0.6682  2.4778  0.0519
 1010TIP3   OH224520   5.898   5.309   2.507  0.2660  0.1091 -0.1798
 1010TIP3    H124521   5.925   5.400   2.498  1.0467 -0.3693 -3.0944
 1010TIP3    H224522   5.840   5.293   2.433 -1.5133 -1.2248  1.4405
 1011TIP3   OH224523   2.669   4.469   4.915 -0.2928 -0.2784  0.2738
 1011TIP3    H124524   2.758   4.444   4.936  0.2471 -0.4443 -2.0145
 1011TIP3    H224525   2.628   4.487   4.999  2.7361  2.7060  1.2241
 1012TIP3   OH224526   5.204   1.752   2.124 -0.0657  0.0757  0.4621
 1012TIP3    H124527   5.172   1.671   2.086 -1.8364  1.9533 -2.1424
 1012TIP3    H224528   5.131   1.785   2.176  0.3779  0.4212  0.8746
 1013TIP3   OH224529   0.205   6.164   2.339 -0.3404 -0.8864  0.4674
 1013TIP3    H124530   0.254   6.131   2.263 -0.5797 -1.2284  0.4599
 1013TIP3    H224531   0.191   6.086   2.393 -0.9708 -0.8065  0.4174
 1014TIP3   OH224532   4.272   1.824   2.019  0.0375 -0.4936 -0.0779
 1014TIP3    H124533   4.227   1.907   2.000 -1.8336 -1.6498 -0.8538
 1014TIP3    H224534   4.363   1.841   1.997 -0.0011  1.8974  1.4557
 1015TIP3   OH224535   3.299   5.653   2.915 -0.0208 -0.0230  0.6507
 1015TIP3    H124536   3.265   5.591   2.979 -2.2670  0.7048  0.1955
 1015TIP3    H224537   3.281   5.613   2.830 -1.4974  1.2292  0.3519
 1016TIP3   OH224538   6.602   2.501   1.481 -0.3202 -0.2881 -0.0632
 1016TIP3    H124539   6.540   2.555   1.432  0.6592  0.1814 -0.8136
 1016TIP3    H224540   6.593   2.414   1.442 -1.0829 -0.3963  0.3688
 1017TIP3   OH224541   0.704   0.800  15.610 -0.2503  0.5022  0.2473
 1017TIP3    H124542   0.785   0.821  15.564 -0.1282  0.8682  0.6280
 1017TIP3    H224543   0.731   0.786  15.701 -0.7513  1.5865  0.5661
 1018TIP3   OH224544   3.124   5.471   0.594 -0.3495 -0.6063  0.2762
 1018TIP3    H124545   3.212   5.450   0.563  0.7095 -0.3903  3.0041
 1018TIP3    H224546   3.100   5.550   0.546  0.6196 -1.0924 -1.0385
 1019TIP3   OH224547   3.809   3.171   2.157 -0.0309  0.4502  0.3361
 1019TIP3    H124548   3.802   3.103   2.091 -1.1369  1.9264 -1.1130
 1019TIP3    H224549   3.826   3.251   2.107  4.1711  0.8280  2.1557
 1020TIP3   OH224550   4.353   4.326   0.088  0.0750 -0.6789 -0.0909
 1020TIP3    H124551   4.409   4.347   0.013 -0.1346  0.7993  0.1607
 1020TIP3    H224552   4.277   4.383   0.078 -0.3379 -1.0600  0.8066
 1021TIP3   OH224553   3.031   0.895  11.464  0.2197 -0.4978  0.2254
 1021TIP3    H124554   2.944   0.911  11.429 -0.2650 -1.4516  0.9867
 1021TIP3    H224555   3.074   0.981  11.461 -0.3539 -0.2410 -1.1749
 1022TIP3   OH224556   2.901   0.623  12.548 -0.0054 -0.3511  0.5807
 1022TIP3    H124557   2.958   0.684  12.502  0.9212 -1.0960  0.7418
 1022TIP3    H224558   2.819   0.625  12.498 -0.0437  1.1276  0.6702
 1023TIP3   OH224559   1.576   1.133   5.420  0.3327 -0.1167 -0.0050
 1023TIP3    H124560   1.631   1.207   5.445  0.7603 -0.6100  0.5226
 1023TIP3    H224561   1.489   1.156   5.453  0.7859 -0.5454  1.5434
 1024TIP3   OH224562   4.155   1.565  11.888  0.7924 -0.1467 -0.3223
 1024TIP3    H124563   4.088   1.606  11.835  0.1745  2.1011  2.1322
 1024TIP3    H224564   4.170   1.480  11.846 -1.5572  0.4685 -2.4949
 1025TIP3   OH224565   1.838   0.262  16.371 -0.1439 -0.1652  1.1166
 1025TIP3    H124566   1.786   0.194  16.413 -0.2308  0.9461  2.8619
 1025TIP3    H224567   1.886   0.304  16.442  1.1611  0.5272 -0.1366
 1026TIP3   OH224568   2.727   1.642  11.007 -0.9812 -0.3294 -0.3873
 1026TIP3    H124569   2.664   1.681  10.945  0.3287 -0.5783 -1.8948
 1026TIP3    H224570   2.749   1.557  10.969  2.3636  0.8991 -1.3556
 1027TIP3   OH224571   1.508   6.112   3.786  0.3801  0.1288  0.4144
 1027TIP3    H124572   1.536   6.022   3.776 -0.1059  0.0366 -0.1548
 1027TIP3    H224573   1.542   6.139   3.872 -1.9703 -1.5381  1.9229
 1028TIP3   OH224574   3.539   0.185   3.584 -0.4502 -0.1567  0.0616
 1028TIP3    H124575   3.499   0.172   3.670 -1.4940  0.5404 -0.3199
 1028TIP3    H224576   3.589   0.266   3.593 -0.9894  0.1958 -0.1542
 1029TIP3   OH224577   2.306   0.802  13.940  0.3650  0.0190  0.6347
 1029TIP3    H124578   2.340   0.785  13.852 -3.1761 -4.0873 -0.1354
 1029TIP3    H224579   2.284   0.895  13.940 -0.2188 -0.0335 -3.0933
 1030TIP3   OH224580   3.448   5.793   0.745 -0.1314  0.3887 -0.6957
 1030TIP3    H124581   3.362   5.756   0.761  0.4868 -0.0230  1.9384
 1030TIP3    H224582   3.507   5.718   0.747  0.6218  1.0042  0.3156
 1031TIP3   OH224583   5.679   0.871   2.119  0.7028  0.1758  0.6030
 1031TIP3    H124584   5.711   0.938   2.059  0.4744 -0.0516  0.2227
 1031TIP3    H224585   5.724   0.888   2.202 -1.0980  2.2597  1.2097
 1032TIP3   OH224586   5.736   4.233   5.766 -0.1931  0.6773 -0.4391
 1032TIP3    H124587   5.730   4.196   5.854 -0.3163  0.4810 -0.5312
 1032TIP3    H224588   5.648   4.267   5.748  0.1276  1.7421 -0.0318
 1033TIP3   OH224589   5.854   0.890  16.147 -0.0443 -0.3706  0.2248
 1033TIP3    H124590   5.836   0.820  16.209  0.8962 -0.1704  0.7327
 1033TIP3    H224591   5.929   0.859  16.097 -0.4187 -0.2681 -0.4002
 1034TIP3   OH224592   0.617   4.325  13.734  0.0723 -0.1842 -0.3398
 1034TIP3    H124593   0.627   4.404  13.680 -1.5636 -0.6226 -1.2820
 1034TIP3    H224594   0.547   4.347  13.796  0.7093 -0.3311  0.4429
 1035TIP3   OH224595   1.307   5.491  13.254 -0.1561  0.3389  0.5165
 1035TIP3    H124596   1.345   5.578  13.263 -1.4579  0.7927  1.8500
 1035TIP3    H224597   1.382   5.432  13.246  0.7694  1.4025  1.3038
 1036TIP3   OH224598   3.148   2.703  15.106  0.0542 -0.3228 -0.6035
 1036TIP3    H124599   3.205   2.670  15.175  0.2452  0.4205 -0.4062
 1036TIP3    H224600   3.138   2.796  15.125  0.3614 -0.0457 -1.7604
 1037TIP3   OH224601   2.427   5.081  15.234  0.0802  0.4136  0.4590
 1037TIP3    H124602   2.418   4.990  15.204  0.7154  0.1967  0.9076
 1037TIP3    H224603   2.377   5.084  15.315 -1.4091  0.9290 -0.4618
 1038TIP3   OH224604   3.590   3.822   0.491 -0.2563 -0.1789  0.6684
 1038TIP3    H124605   3.596   3.827   0.396  0.3071 -0.8189  0.6692
 1038TIP3    H224606   3.652   3.887   0.523  0.8135 -1.1644  0.6110
 1039TIP3   OH224607   6.002   4.115   0.952 -0.4135 -0.0783 -0.1223
 1039TIP3    H124608   6.080   4.169   0.938 -0.5267  0.2429  0.4557
 1039TIP3    H224609   5.969   4.097   0.864 -0.8476  1.5059 -0.3171
 1040TIP3   OH224610   4.297   3.826   4.545  0.0687 -1.1300  0.3022
 1040TIP3    H124611   4.367   3.784   4.495 -0.3119 -1.3618 -0.0479
 1040TIP3    H224612   4.218   3.776   4.521 -0.9147  1.5302 -2.3504
 1041TIP3   OH224613   5.810   6.134   0.396 -0.2203  0.4045 -0.4453
 1041TIP3    H124614   5.771   6.219   0.375  0.8402  1.0780  0.2990
 1041TIP3    H224615   5.817   6.133   0.491 -1.8642 -1.2659 -0.3023
 1042TIP3   OH224616   6.622   4.655   2.049 -0.3621  0.5460  0.4405
 1042TIP3    H124617   6.711   4.688   2.033 -1.1536  2.9960  0.8880
 1042TIP3    H224618   6.631   4.601   2.128  0.7772  0.5778  0.3401
 1043TIP3   OH224619   1.508   4.377  12.282  0.3686  0.5120  0.3864
 1043TIP3    H124620   1.540   4.288  12.296 -1.4222 -0.3535 -0.9395
 1043TIP3    H224621   1.587   4.431  12.288  1.3391 -1.0302  2.2142
 1044TIP3   OH224622   3.845   5.116  14.556  0.9351 -0.3732  0.3326
 1044TIP3    H124623   3.836   5.184  14.623  1.1693 -0.4878  0.4794
 1044TIP3    H224624   3.865   5.036  14.605  0.5261 -0.5790  0.1736
 1045TIP3   OH224625   5.593   6.710   3.691  0.1510  0.4482  0.3900
 1045TIP3    H124626   5.632   6.725   3.605  0.1730  1.8246  0.6312
 1045TIP3    H224627   5.499   6.717   3.676  0.0323 -1.4843  0.0773
 1046TIP3   OH224628   5.455   1.727   1.205  0.4805  0.4221 -0.4425
 1046TIP3    H124629   5.395   1.724   1.130 -0.9880  1.7413  0.6528
 1046TIP3    H224630   5.419   1.795   1.262  2.0515  0.0165  1.0737
 1047TIP3   OH224631   1.674   6.216   4.016  0.0098 -0.5727 -0.5871
 1047TIP3    H124632   1.743   6.259   3.966  0.0272  0.1755  0.0720
 1047TIP3    H224633   1.625   6.288   4.056  1.4766 -1.1992  2.4614
 1048TIP3   OH224634   3.090   2.372   4.382 -0.9043  0.3606  0.5705
 1048TIP3    H124635   3.137   2.341   4.305 -0.5571 -0.5856  1.1554
 1048TIP3    H224636   3.138   2.450   4.410 -1.3933  1.0683 -0.5233
 1049TIP3   OH224637   2.226   0.766   3.756 -0.2239 -0.0636 -0.6098
 1049TIP3    H124638   2.303   0.736   3.804 -0.4246  0.4582  0.0486
 1049TIP3    H224639   2.168   0.803   3.824 -1.4010 -1.1875 -0.9826
 1050TIP3   OH224640   1.383   3.611   0.312  0.9386 -0.3811  0.1708
 1050TIP3    H124641   1.423   3.535   0.354  0.7030 -1.2223 -1.0871
 1050TIP3    H224642   1.443   3.633   0.240 -0.1401 -0.8143 -0.8875
 1051TIP3   OH224643   0.343   5.827   5.749 -0.1262  0.0519  0.6018
 1051TIP3    H124644   0.381   5.764   5.810 -2.4333  0.6309  2.6969
 1051TIP3    H224645   0.418   5.869   5.707  1.4606 -1.7499  1.5732
 1052TIP3   OH224646   3.422   6.630   0.588 -0.6592  0.2305  0.3480
 1052TIP3    H124647   3.478   6.674   0.652 -0.1754 -1.0971  0.8531
 1052TIP3    H224648   3.388   6.553   0.634 -2.6573  0.8344 -0.0646
 1053TIP3   OH224649   1.170   3.664   2.353  1.0972  0.1255  0.0701
 1053TIP3    H124650   1.082   3.665   2.391  0.9843 -0.4049 -0.1852
 1053TIP3    H224651   1.173   3.585   2.300  1.9883 -0.2642  0.6811
 1054TIP3   OH224652   1.108   4.296   4.644  0.3833 -0.2180  0.1838
 1054TIP3    H124653   1.093   4.378   4.598 -0.4068 -0.8283 -0.6787
 1054TIP3    H224654   1.094   4.228   4.578 -0.5714 -1.1085  1.2579
 1055TIP3   OH224655   5.780   1.619   6.749 -0.2309  0.3120 -0.1528
 1055TIP3    H124656   5.749   1.709   6.762 -1.6839 -0.2085  0.1150
 1055TIP3    H224657   5.757   1.600   6.658  1.7593  0.8419 -0.7782
 1056TIP3   OH224658   1.428   1.851  14.311 -0.3225  0.2558  0.2076
 1056TIP3    H124659   1.470   1.930  14.277  0.5610 -1.1460 -2.0621
 1056TIP3    H224660   1.356   1.834  14.250 -1.3368  0.0245  1.4382
 1057TIP3   OH224661   2.666   3.441  14.149  0.3953  0.1763 -0.2338
 1057TIP3    H124662   2.749   3.459  14.194 -0.6899  0.1583  1.8182
 1057TIP3    H224663   2.635   3.360  14.188 -0.9378  0.5438 -0.5154
 1058TIP3   OH224664   1.008   3.158   1.191 -0.4695 -0.8617  0.0600
 1058TIP3    H124665   1.038   3.171   1.281  0.3562 -2.4047  0.0209
 1058TIP3    H224666   1.083   3.185   1.137 -1.3814  1.2111 -0.2255
 1059TIP3   OH224667   1.187   4.713  11.800  0.3541 -0.2987  0.7409
 1059TIP3    H124668   1.169   4.682  11.712 -1.0312 -0.8403  1.1902
 1059TIP3    H224669   1.131   4.658  11.856  0.3709  0.7919  1.8409
 1060TIP3   OH224670   2.313   5.741   1.308  0.0341  0.2071 -0.3468
 1060TIP3    H124671   2.345   5.748   1.218  2.5662 -0.8994  0.4417
 1060TIP3    H224672   2.240   5.679   1.302  0.0748  0.2672 -1.6547
 1061TIP3   OH224673   5.192   0.850   3.972 -0.6653 -0.2970 -0.0038
 1061TIP3    H124674   5.233   0.920   4.023 -0.2680 -0.2390 -0.4005
 1061TIP3    H224675   5.105   0.840   4.011 -1.0685  1.0400 -0.5094
 1062TIP3   OH224676   0.723   0.792   3.614 -0.5658  0.3554  0.5765
 1062TIP3    H124677   0.637   0.810   3.576 -0.8760 -1.7368  0.2391
 1062TIP3    H224678   0.704   0.735   3.689  0.2902  2.2034  2.2768
 1063TIP3   OH224679   2.790   6.667   5.264  0.2247 -0.3730  0.2989
 1063TIP3    H124680   2.809   6.642   5.174  0.0257  3.3859 -0.8804
 1063TIP3    H224681   2.701   6.635   5.279  0.2180 -0.9350 -0.8605
 1064TIP3   OH224682   4.446   3.930  14.248  0.5523  0.5052  0.1903
 1064TIP3    H124683   4.511   3.958  14.313 -0.9540  0.3721  1.7963
 1064TIP3    H224684   4.417   3.844  14.279 -0.3693  0.5595 -0.5110
 1065TIP3   OH224685   6.118   6.673  12.784 -0.4800 -0.4811 -0.1412
 1065TIP3    H124686   6.189   6.682  12.720  0.3525  0.6107  0.9259
 1065TIP3    H224687   6.052   6.620  12.739  0.7322 -0.9630 -1.3727
 1066TIP3   OH224688   6.602   1.282  12.210  0.1722 -0.1806  0.2482
 1066TIP3    H124689   6.690   1.273  12.245 -0.1295 -0.3565  0.9624
 1066TIP3    H224690   6.555   1.334  12.275  0.5646  2.5420 -1.5658
 1067TIP3   OH224691   4.050   1.395   5.238  0.6538 -0.1097 -0.0389
 1067TIP3    H124692   4.082   1.436   5.319  0.1929 -0.8649  0.5371
 1067TIP3    H224693   3.960   1.369   5.259  0.7654 -0.9237 -0.5745
 1068TIP3   OH224694   6.337   3.304   2.613 -0.1191  0.0939 -0.5367
 1068TIP3    H124695   6.406   3.295   2.680  2.0580 -0.2263 -2.7442
 1068TIP3    H224696   6.368   3.375   2.557 -0.9580 -0.9196 -2.3001
 1069TIP3   OH224697   4.328   0.799  10.964  0.3107 -0.0913  0.3429
 1069TIP3    H124698   4.262   0.788  10.895  2.9929  0.2632 -2.3879
 1069TIP3    H224699   4.342   0.893  10.969  0.8905 -0.1927  0.6358
 1070TIP3   OH224700   3.138   2.377   4.102 -0.0798 -1.0055  1.0122
 1070TIP3    H124701   3.050   2.395   4.137 -0.9504 -0.8123 -1.2103
 1070TIP3    H224702   3.169   2.463   4.072  0.0481 -1.4193 -0.0341
 1071TIP3   OH224703   2.300   5.061   3.827  0.7317 -0.3573  0.1450
 1071TIP3    H124704   2.251   4.980   3.813 -1.1422  0.4469  1.8580
 1071TIP3    H224705   2.335   5.052   3.915 -1.1239  1.5178  1.0936
 1072TIP3   OH224706   3.474   4.193   0.696  0.8076  0.1320 -0.2877
 1072TIP3    H124707   3.522   4.112   0.712 -0.3447 -0.8007 -1.4233
 1072TIP3    H224708   3.382   4.166   0.692  0.3275  1.6235  0.1303
 1073TIP3   OH224709   6.031   6.439  10.295  0.4966  0.2645  0.4460
 1073TIP3    H124710   5.966   6.379  10.258 -0.5043  1.3490  0.4216
 1073TIP3    H224711   6.083   6.468  10.220  1.0812 -0.6812  0.4802
 1074TIP3   OH224712   4.236   4.454   0.465  0.3935  0.6376 -0.1374
 1074TIP3    H124713   4.206   4.472   0.554 -0.2390 -0.8891 -0.0287
 1074TIP3    H224714   4.165   4.484   0.409  0.2845  0.5091 -0.0678
 1075TIP3   OH224715   5.949   0.978   5.790  1.0508 -0.4622  0.4096
 1075TIP3    H124716   6.022   0.937   5.838  1.4196 -0.5035 -0.1863
 1075TIP3    H224717   5.870   0.943   5.832  1.3698 -0.7492  0.7756
 1076TIP3   OH224718   3.566   5.114  10.110  0.2665 -0.2242  0.0176
 1076TIP3    H124719   3.621   5.047  10.152 -0.6614 -0.9474  0.1158
 1076TIP3    H224720   3.626   5.185  10.088  1.0704 -0.5817  1.0053
 1077TIP3   OH224721   3.943   2.465  17.235 -0.5699  0.5288  0.1584
 1077TIP3    H124722   3.882   2.473  17.162  0.1601 -3.6692 -1.0190
 1077TIP3    H224723   3.894   2.415  17.301 -0.2043  1.7840  1.4053
 1078TIP3   OH224724   0.072   2.575  11.017 -0.0499 -0.2656 -0.1697
 1078TIP3    H124725   0.123   2.645  10.977 -0.3641 -0.4307 -0.8707
 1078TIP3    H224726   0.063   2.509  10.948  0.7775 -1.2827  0.6614
 1079TIP3   OH224727   6.313   6.470   2.874 -0.3832  0.1491  0.3716
 1079TIP3    H124728   6.373   6.527   2.828 -0.6574  0.2472  0.1321
 1079TIP3    H224729   6.363   6.437   2.949 -0.2775  0.8263  0.6034
 1080TIP3   OH224730   2.445   6.757   2.817  0.0527  0.2617 -0.3637
 1080TIP3    H124731   2.360   6.717   2.803 -0.4881  0.9271  0.8817
 1080TIP3    H224732   2.478   6.716   2.897  0.2958  0.9758 -0.0908
 1081TIP3   OH224733   3.957   3.106   5.871  0.4619 -0.0544  0.2997
 1081TIP3    H124734   3.975   3.012   5.873 -1.2698 -0.4351 -0.5615
 1081TIP3    H224735   4.032   3.146   5.914  1.7360 -1.7509 -0.3091
 1082TIP3   OH224736   5.597   6.711   6.155 -0.6286 -0.3692 -1.1653
 1082TIP3    H124737   5.596   6.641   6.090  1.3411 -1.6465  0.1316
 1082TIP3    H224738   5.651   6.677   6.226 -2.9447  0.9023  1.2690
 1083TIP3   OH224739   6.430   0.031   0.072 -0.1982  0.2621  0.3901
 1083TIP3    H124740   6.459   0.109   0.119  2.5162 -0.0471 -0.6690
 1083TIP3    H224741   6.506  -0.027   0.073 -1.6648 -1.7381 -0.2092
 1084TIP3   OH224742   1.436   1.843  15.050  0.5747 -0.0468  0.1395
 1084TIP3    H124743   1.494   1.908  15.089 -1.3162  1.8841 -0.1872
 1084TIP3    H224744   1.487   1.803  14.980  1.3715  1.9007 -0.4086
 1085TIP3   OH224745   4.066   5.872  14.104  0.0139  0.5414  0.1906
 1085TIP3    H124746   3.993   5.909  14.154  1.2725  2.0289  0.9497
 1085TIP3    H224747   4.144   5.915  14.140  1.3251 -1.4253 -0.2426
 1086TIP3   OH224748   6.611   6.003  14.300 -0.2732  0.8770  0.3451
 1086TIP3    H124749   6.672   5.931  14.284 -1.1610 -0.1699  1.5155
 1086TIP3    H224750   6.664   6.070  14.343 -0.2855 -0.7133  2.9264
 1087TIP3   OH224751   5.467   1.592  16.025 -0.5935  0.0260 -0.3233
 1087TIP3    H124752   5.552   1.633  16.044 -1.0067  0.3993  0.7719
 1087TIP3    H224753   5.447   1.541  16.103 -2.4020  1.6911  0.3538
 1088TIP3   OH224754   0.979   2.398   0.748  0.2560 -0.2097  0.3262
 1088TIP3    H124755   0.951   2.310   0.724 -0.4302  0.1972 -0.3545
 1088TIP3    H224756   1.042   2.423   0.680 -0.2411  0.1820  0.0036
 1089TIP3   OH224757   2.106   6.205   5.820 -0.3488 -0.0182 -0.1720
 1089TIP3    H124758   2.121   6.112   5.807 -2.5883 -0.7573  2.0142
 1089TIP3    H224759   2.124   6.219   5.913 -2.3862  1.1835  0.0910
 1090TIP3   OH224760   5.737   0.082  16.461 -0.1211  0.2580 -0.7221
 1090TIP3    H124761   5.755   0.070  16.555  0.3662 -2.6388 -1.1315
 1090TIP3    H224762   5.800   0.024  16.417  0.1184  2.1056 -2.8921
 1091TIP3   OH224763   0.910   3.430   0.237  0.2717 -0.3892  0.1275
 1091TIP3    H124764   0.974   3.370   0.199 -0.2953 -0.1843 -1.2028
 1091TIP3    H224765   0.956   3.473   0.309  1.6494 -0.2177 -0.8413
 1092TIP3   OH224766   1.364   1.459   5.172 -0.2034  0.4557 -0.3453
 1092TIP3    H124767   1.391   1.371   5.146 -2.0149 -0.3355  0.3079
 1092TIP3    H224768   1.441   1.497   5.213  0.2081 -1.3818  0.6456
 1093TIP3   OH224769   5.415   2.358   3.514  0.1563 -0.0498 -0.3085
 1093TIP3    H124770   5.500   2.333   3.475 -0.0170 -0.6640 -0.2944
 1093TIP3    H224771   5.390   2.438   3.467  1.4109  0.9291  0.6487
 1094TIP3   OH224772   4.534   4.128   4.432  0.3775  0.2122  0.1998
 1094TIP3    H124773   4.527   4.168   4.345 -0.6436 -1.4436 -0.5011
 1094TIP3    H224774   4.569   4.041   4.415  0.8505  0.1432  1.5303
 1095TIP3   OH224775   1.790   4.833   0.242  0.1735  0.0079 -0.1960
 1095TIP3    H124776   1.738   4.764   0.200 -0.7879  0.0647  0.8572
 1095TIP3    H224777   1.752   4.841   0.330 -1.3947  3.5770 -1.1022
 1096TIP3   OH224778   0.155   3.320  13.770 -0.0138 -0.3541  0.0764
 1096TIP3    H124779   0.163   3.229  13.740  1.2432 -0.0006 -0.6511
 1096TIP3    H224780   0.159   3.372  13.691 -4.0120  0.2200  0.1214
 1097TIP3   OH224781   3.687   2.758   3.031 -0.6296  0.1669 -0.0615
 1097TIP3    H124782   3.761   2.806   3.068  0.3736  0.2906 -2.1791
 1097TIP3    H224783   3.653   2.707   3.105  0.3261  1.6201  1.4117
 1098TIP3   OH224784   0.828   0.504   3.116  0.0723 -0.0936 -0.3426
 1098TIP3    H124785   0.787   0.574   3.065 -2.5120 -0.9453  0.4573
 1098TIP3    H224786   0.803   0.524   3.207  0.3085 -1.3995  0.0078
 1099TIP3   OH224787   4.436   5.893   2.823  0.4886  0.1795  0.3359
 1099TIP3    H124788   4.464   5.881   2.914  3.4915 -0.6593 -0.6214
 1099TIP3    H224789   4.451   5.987   2.807  2.1382 -0.1085  0.0706
 1100TIP3   OH224790   4.071   3.254   1.359 -0.0128  0.2514 -0.0456
 1100TIP3    H124791   4.021   3.321   1.312 -2.1845 -0.0182  1.7483
 1100TIP3    H224792   4.141   3.302   1.402  0.2342  0.9224 -1.1784
 1101TIP3   OH224793   3.377   3.973   4.919  0.3465  0.3146  0.1037
 1101TIP3    H124794   3.341   3.939   5.001 -0.7816  0.9563 -0.1099
 1101TIP3    H224795   3.301   3.980   4.861  1.0519  0.3608 -0.8250
 1102TIP3   OH224796   2.434   6.531  13.612 -0.0129  0.2866 -0.0251
 1102TIP3    H124797   2.393   6.495  13.534  0.3710 -0.5326  0.1415
 1102TIP3    H224798   2.462   6.619  13.587  0.9982 -0.3378 -1.1138
 1103TIP3   OH224799   4.453   2.169  13.914 -0.2898 -0.5787 -0.0324
 1103TIP3    H124800   4.492   2.239  13.966 -0.7766 -0.2157 -0.1537
 1103TIP3    H224801   4.402   2.214  13.847  0.9906 -1.0282 -1.3543
 1104TIP3   OH224802   0.159   1.803  13.887 -0.1407  0.4406  0.0136
 1104TIP3    H124803   0.220   1.774  13.955 -2.3832 -1.5573  1.2561
 1104TIP3    H224804   0.185   1.756  13.808  0.8509  0.7545  0.1493
 1105TIP3   OH224805   6.015   5.881   2.467  0.4861  0.3915 -0.2658
 1105TIP3    H124806   5.939   5.836   2.504 -1.4747  3.1767 -0.7108
 1105TIP3    H224807   6.090   5.840   2.510 -1.3401 -1.4267  1.3205
 1106TIP3   OH224808   1.406   6.047   1.918 -0.8435  0.4544 -0.4573
 1106TIP3    H124809   1.413   5.965   1.966 -0.6933 -0.1692 -1.5337
 1106TIP3    H224810   1.359   6.106   1.977  0.7829  0.2145  1.1105
 1107TIP3   OH224811   5.499   1.044   6.089 -0.1293 -0.1242 -0.0609
 1107TIP3    H124812   5.479   1.137   6.093  1.2071  0.1177  1.3960
 1107TIP3    H224813   5.446   1.005   6.158 -1.7707 -0.6608 -1.6046
 1108TIP3   OH224814   0.157   4.634   2.437  0.0245 -0.0054  0.0603
 1108TIP3    H124815   0.240   4.682   2.439  0.9904 -1.6538 -0.3078
 1108TIP3    H224816   0.182   4.542   2.441 -1.6970 -0.5944 -1.7939
 1109TIP3   OH224817   4.232   2.547  12.425  0.3910 -0.2999  0.0368
 1109TIP3    H124818   4.271   2.459  12.420 -3.0844 -1.9741  0.8748
 1109TIP3    H224819   4.238   2.570  12.518 -0.1871 -0.3687  0.0911
 1110TIP3   OH224820   2.841   4.925   0.305  0.0292  0.5693 -0.1686
 1110TIP3    H124821   2.924   4.971   0.317  0.3425  0.4687 -1.8360
 1110TIP3    H224822   2.842   4.856   0.372  0.5327  1.5927  0.8940
 1111TIP3   OH224823   0.370   1.661  14.413 -0.4051  0.8575 -0.2715
 1111TIP3    H124824   0.333   1.664  14.325 -0.2058 -0.5013 -0.4201
 1111TIP3    H224825   0.441   1.597  14.407 -1.3427 -0.3768  1.2053
 1112TIP3   OH224826   6.669   2.831   1.577 -0.0371  0.3730  0.0819
 1112TIP3    H124827   6.674   2.812   1.670 -0.8390 -1.4753 -0.2177
 1112TIP3    H224828   6.587   2.791   1.548  0.7372 -0.0572 -1.6171
 1113TIP3   OH224829   2.452   1.177   5.016 -0.2741  0.2472 -0.6696
 1113TIP3    H124830   2.491   1.223   4.941 -0.3289 -0.7974 -1.3368
 1113TIP3    H224831   2.369   1.224   5.032 -1.3085 -0.8667 -2.6298
 1114TIP3   OH224832   2.983   2.898  12.436  0.4249  0.0997  0.1864
 1114TIP3    H124833   2.895   2.861  12.440  1.2115 -2.0588 -1.3753
 1114TIP3    H224834   2.969   2.990  12.413 -1.4033 -0.4120 -0.8930
 1115TIP3   OH224835   3.798   4.456   5.773 -0.1880  0.8643  0.4448
 1115TIP3    H124836   3.811   4.367   5.807 -0.9872  0.3047 -0.6594
 1115TIP3    H224837   3.881   4.500   5.788  1.2622 -0.9950 -1.7150
 1116TIP3   OH224838   3.985   2.640  11.224 -0.2207 -0.3605  0.1079
 1116TIP3    H124839   3.894   2.614  11.210 -0.6672  0.0242  2.0952
 1116TIP3    H224840   4.036   2.578  11.173 -1.5373 -1.5360  0.1973
 1117TIP3   OH224841   4.157   3.959   2.207  0.1820 -0.3443  0.1622
 1117TIP3    H124842   4.103   3.931   2.133 -0.2111  1.7147 -0.3532
 1117TIP3    H224843   4.246   3.965   2.172  0.3795 -1.4717  0.4309
 1118TIP3   OH224844   0.526   4.907  11.801  0.0385  0.6197 -0.0971
 1118TIP3    H124845   0.541   4.948  11.886 -0.9914  0.9925 -0.0884
 1118TIP3    H224846   0.576   4.961  11.740  0.7023  0.4098  0.2528
 1119TIP3   OH224847   6.752   2.413   3.138  0.0854 -0.3751 -0.3954
 1119TIP3    H124848   6.746   2.433   3.232  2.0302  1.2791 -0.5939
 1119TIP3    H224849   6.667   2.375   3.116  0.2333 -2.5146  2.4311
 1120TIP3   OH224850   4.037   3.234   0.628 -0.3944  0.2745 -0.0703
 1120TIP3    H124851   4.017   3.243   0.721  1.0399 -1.6185  0.4568
 1120TIP3    H224852   3.954   3.248   0.584 -1.7805 -1.9648  1.7236
 1121TIP3   OH224853   3.159   0.057  10.793  0.3059 -0.1531 -0.0171
 1121TIP3    H124854   3.084   0.010  10.828 -2.0948  2.4082 -1.5623
 1121TIP3    H224855   3.170   0.023  10.704  0.8226 -0.3604  0.1264
 1122TIP3   OH224856   4.269   2.193  13.029 -0.5301  0.2898 -0.2493
 1122TIP3    H124857   4.333   2.131  13.062 -0.0279  1.0845  0.2941
 1122TIP3    H224858   4.283   2.272  13.081 -1.1154  0.8810 -0.9730
 1123TIP3   OH224859   1.428   4.555  12.463  0.2049  0.5968 -0.0435
 1123TIP3    H124860   1.460   4.617  12.397 -1.5557  0.6198 -0.8935
 1123TIP3    H224861   1.424   4.471  12.417 -2.7715  0.9551 -0.5494
 1124TIP3   OH224862   3.269   0.165   3.457 -0.1133  0.1859  0.1095
 1124TIP3    H124863   3.250   0.226   3.386  0.8330  2.2297  1.5641
 1124TIP3    H224864   3.360   0.182   3.480  0.4674 -2.4476 -0.0531
 1125TIP3   OH224865   2.221   1.156   3.919 -0.2658 -0.5533  0.1623
 1125TIP3    H124866   2.279   1.214   3.969 -0.1786 -0.2551 -0.2796
 1125TIP3    H224867   2.266   1.071   3.919  1.6014  0.3815 -2.6095
 1126TIP3   OH224868   4.867   5.506   5.592 -0.5356 -0.3465  0.0212
 1126TIP3    H124869   4.928   5.549   5.652  0.5250 -1.0338 -0.5544
 1126TIP3    H224870   4.790   5.486   5.647  1.3179 -3.0362  1.7638
 1127TIP3   OH224871   3.197   1.206   1.261 -0.5803  0.7103  0.4216
 1127TIP3    H124872   3.176   1.139   1.326 -0.0604  0.8456  0.7332
 1127TIP3    H224873   3.180   1.164   1.177 -0.5826  0.2993  0.6259
 1128TIP3   OH224874   4.245   1.877  12.658 -0.3877 -0.3283  0.0308
 1128TIP3    H124875   4.184   1.856  12.588 -0.9735 -0.8768  0.7038
 1128TIP3    H224876   4.331   1.852  12.624 -0.5463  0.3394 -0.8717
 1129TIP3   OH224877   2.050   5.868  13.216  0.3122  0.1219 -0.1802
 1129TIP3    H124878   2.084   5.958  13.219  1.0118 -0.1748  1.0493
 1129TIP3    H224879   1.980   5.872  13.151 -0.6269  1.9028  0.8667
 1130TIP3   OH224880   3.641   5.160   5.179  0.3184  0.3516 -0.2670
 1130TIP3    H124881   3.673   5.077   5.217 -0.3010  0.0797 -0.3358
 1130TIP3    H224882   3.719   5.200   5.140  0.3370 -0.9322 -1.5864
 1131TIP3   OH224883   4.872   3.651  12.956 -0.1347 -0.1094 -0.5481
 1131TIP3    H124884   4.904   3.587  12.892 -0.2158 -1.4258  0.6916
 1131TIP3    H224885   4.791   3.684  12.918  1.3735  1.4703 -2.5866
 1132TIP3   OH224886   5.426   6.285  11.311  0.3793 -0.0297 -0.5176
 1132TIP3    H124887   5.469   6.362  11.273  0.5757  0.2518  0.2525
 1132TIP3    H224888   5.497   6.225  11.332  0.2748 -0.1823 -0.6019
 1133TIP3   OH224889   3.831   5.560   3.680 -0.5321  0.0114 -0.6473
 1133TIP3    H124890   3.781   5.498   3.627  1.3678 -1.3677 -0.9028
 1133TIP3    H224891   3.922   5.546   3.654  0.1643  1.2438  1.0020
 1134TIP3   OH224892   3.079   6.056  17.286  0.7066  0.2149 -0.1339
 1134TIP3    H124893   2.996   6.029  17.326  0.7967  2.1355  1.4214
 1134TIP3    H224894   3.140   5.986  17.309 -0.0394 -0.2887  0.3415
 1135TIP3   OH224895   6.525   5.119  13.894  0.1873 -0.1486  0.5219
 1135TIP3    H124896   6.597   5.178  13.918 -0.0726  0.5587 -0.3808
 1135TIP3    H224897   6.516   5.130  13.799 -0.0763 -1.4185  0.3959
 1136TIP3   OH224898   5.253   5.632  14.979 -0.6160  0.0756 -0.5791
 1136TIP3    H124899   5.343   5.662  14.969 -1.1929  1.6527 -1.2298
 1136TIP3    H224900   5.238   5.635  15.074  0.3413 -1.2611 -0.3627
 1137TIP3   OH224901   5.750   3.070   0.769 -0.6106 -0.0579 -0.3965
 1137TIP3    H124902   5.775   3.031   0.853 -1.2340 -1.2058 -0.7287
 1137TIP3    H224903   5.714   3.156   0.792 -0.6987 -0.3289  0.5000
 1138TIP3   OH224904   6.698   1.946  13.466 -0.2598  0.1665  0.4603
 1138TIP3    H124905   6.749   1.986  13.396 -1.6083  0.7908 -0.1915
 1138TIP3    H224906   6.607   1.954  13.437 -0.6441 -2.5522  0.7213
 1139TIP3   OH224907   6.346   4.960   0.986 -0.0069 -0.4611  0.0112
 1139TIP3    H124908   6.276   4.899   1.009  0.6107 -0.6801  1.4149
 1139TIP3    H224909   6.358   5.013   1.065  0.0633  0.8841 -0.9075
 1140TIP3   OH224910   0.006   5.710   5.362  0.1647 -0.1555  0.8776
 1140TIP3    H124911   0.082   5.747   5.408  0.3596  0.5210  0.0365
 1140TIP3    H224912   0.026   5.725   5.269  0.0214 -1.9721  0.5495
 1141TIP3   OH224913   2.824   4.759  11.481 -0.0529 -0.6957  0.4000
 1141TIP3    H124914   2.826   4.730  11.572  1.5186 -0.3764  0.4857
 1141TIP3    H224915   2.879   4.837  11.480  0.6603 -1.1983 -0.9902
 1142TIP3   OH224916   4.024   4.007   5.046 -0.5932  0.6276 -0.1910
 1142TIP3    H124917   4.093   3.945   5.066 -0.0032  1.8005  1.5351
 1142TIP3    H224918   4.046   4.041   4.959 -0.8237 -1.3983 -1.0563
 1143TIP3   OH224919   4.695   1.236   5.307 -0.0826  0.0405 -0.0889
 1143TIP3    H124920   4.781   1.274   5.329 -0.4321  0.7384  0.0860
 1143TIP3    H224921   4.672   1.184   5.384  0.2538 -0.2725 -0.1976
 1144TIP3   OH224922   3.549   5.322  14.008 -0.1061 -0.2764  0.1765
 1144TIP3    H124923   3.492   5.249  13.984 -1.2238  0.0210  1.8202
 1144TIP3    H224924   3.514   5.353  14.091  1.7290  0.7082  0.6086
 1145TIP3   OH224925   2.865   2.308  14.298  0.4373  0.0395  0.2385
 1145TIP3    H124926   2.782   2.288  14.255  0.6899 -0.5451  0.0219
 1145TIP3    H224927   2.840   2.341  14.385  0.0557 -2.6740  1.2040
 1146TIP3   OH224928   2.214   3.130  14.493  0.5680  0.3896  0.5240
 1146TIP3    H124929   2.146   3.198  14.498 -2.7611 -2.5942 -1.5157
 1146TIP3    H224930   2.224   3.100  14.583 -1.5617  0.2583  0.7489
 1147TIP3   OH224931   1.721   2.375  15.849  0.4405  0.4306 -0.6226
 1147TIP3    H124932   1.754   2.462  15.825  0.2211  0.8690  0.6026
 1147TIP3    H224933   1.734   2.370  15.944  1.0975 -1.1649 -0.7779
 1148TIP3   OH224934   1.615   3.157   1.011 -0.6777  0.1846  0.2263
 1148TIP3    H124935   1.547   3.111   1.061 -2.2875  2.0562 -0.2238
 1148TIP3    H224936   1.595   3.138   0.920 -0.1930  0.2099  0.1125
 1149TIP3   OH224937   6.595   3.808   2.135 -0.5741  0.3856 -0.1228
 1149TIP3    H124938   6.567   3.743   2.070  0.1148  1.1033 -1.1464
 1149TIP3    H224939   6.631   3.880   2.083 -2.7122  2.2746  0.9240
 1150TIP3   OH224940   5.891   0.581  14.328  0.5682  0.6634 -0.1216
 1150TIP3    H124941   5.953   0.643  14.366  2.0451  0.0466 -1.4834
 1150TIP3    H224942   5.869   0.619  14.243  0.2111  0.1308 -0.2668
 1151TIP3   OH224943   1.770   5.264  16.806 -0.3581  0.2456 -0.9333
 1151TIP3    H124944   1.778   5.358  16.825 -1.8257  0.4165 -1.0591
 1151TIP3    H224945   1.850   5.225  16.841 -0.3659  1.3554  0.3645
 1152TIP3   OH224946   1.159   1.985   2.324 -0.2434 -0.7534  0.1940
 1152TIP3    H124947   1.132   1.935   2.401 -1.3181 -2.5497 -1.3097
 1152TIP3    H224948   1.155   1.922   2.252 -0.7942  1.3018 -1.6060
 1153TIP3   OH224949   2.619   5.442  17.136  0.1316 -0.4619  0.0456
 1153TIP3    H124950   2.565   5.365  17.153 -0.6244 -0.3180 -1.6256
 1153TIP3    H224951   2.709   5.412  17.152 -0.0045 -2.1716 -2.0982
 1154TIP3   OH224952   0.836   2.664   2.790  0.0824  0.4096 -0.1209
 1154TIP3    H124953   0.815   2.628   2.703  2.1921 -0.9638 -0.0970
 1154TIP3    H224954   0.848   2.757   2.775 -1.4386  0.5007 -0.9409
 1155TIP3   OH224955   0.984   6.763  13.555 -0.5024  0.2606 -0.2520
 1155TIP3    H124956   0.953   6.674  13.540  1.6888 -0.1641 -2.6229
 1155TIP3    H224957   0.939   6.792  13.635 -2.5456 -2.3194 -0.4392
 1156TIP3   OH224958   4.967   3.100   1.198 -0.5925 -0.7697  0.3901
 1156TIP3    H124959   4.892   3.107   1.258  0.9153 -0.6320  2.3271
 1156TIP3    H224960   5.023   3.174   1.221  1.1902 -2.1069  0.5016
 1157TIP3   OH224961   3.238   5.913   3.926  0.0084 -0.0082 -0.0855
 1157TIP3    H124962   3.164   5.939   3.871  0.8407  1.8532 -0.3577
 1157TIP3    H224963   3.309   5.896   3.864  0.0513 -1.0252  0.2271
 1158TIP3   OH224964   2.420   5.596   4.814 -0.2384 -0.4454 -0.8980
 1158TIP3    H124965   2.433   5.581   4.720  0.5359  0.7250 -0.9808
 1158TIP3    H224966   2.502   5.634   4.844 -0.1310 -1.6972  0.4540
 1159TIP3   OH224967   1.757   5.416   5.739  0.1315  0.2665  0.0930
 1159TIP3    H124968   1.839   5.425   5.786 -0.8446  1.3476  1.6298
 1159TIP3    H224969   1.769   5.466   5.658  0.8182  0.8163  0.5363
 1160TIP3   OH224970   4.724   0.940   0.844 -0.3224 -0.1775 -0.7838
 1160TIP3    H124971   4.757   0.879   0.777  1.8006  0.4512 -0.3425
 1160TIP3    H224972   4.802   0.985   0.876 -1.3432 -0.2533  1.9377
 1161TIP3   OH224973   1.034   6.558   3.974  0.6660  0.0390 -0.2364
 1161TIP3    H124974   1.045   6.474   4.019 -1.0833  0.1345  0.4236
 1161TIP3    H224975   1.050   6.538   3.882  1.1457 -0.8243  0.0270
 1162TIP3   OH224976   5.924   4.026   0.062  0.1542 -0.1190  0.0204
 1162TIP3    H124977   5.867   3.950   0.054 -1.0608  0.4435  2.8122
 1162TIP3    H224978   5.870   4.101   0.036  0.1976  0.1935  0.8095
 1163TIP3   OH224979   6.518   4.919  13.393 -0.1746  0.0140 -0.1495
 1163TIP3    H124980   6.515   4.994  13.452  0.1618  1.4128 -1.8416
 1163TIP3    H224981   6.591   4.939  13.333 -0.0252 -1.7058 -0.5658
 1164TIP3   OH224982   1.387   0.685  14.653 -0.1671 -0.2005  0.4753
 1164TIP3    H124983   1.370   0.680  14.559 -0.1109 -1.3719  0.5138
 1164TIP3    H224984   1.453   0.754  14.662  1.5242 -1.6300 -0.5918
 1165TIP3   OH224985   3.849   4.265   6.349 -0.5515 -0.5776  0.6688
 1165TIP3    H124986   3.812   4.265   6.260 -2.2357  0.5581  1.3438
 1165TIP3    H224987   3.899   4.184   6.354  0.9897  0.1680 -1.9024
 1166TIP3   OH224988   6.258   5.369  14.972 -0.0347 -0.2083  0.1846
 1166TIP3    H124989   6.305   5.306  14.917 -0.4627  0.0552 -0.4931
 1166TIP3    H224990   6.263   5.332  15.060  0.8658 -0.5175  0.0096
 1167TIP3   OH224991   2.357   4.505   3.681 -0.2424  0.0553  0.3000
 1167TIP3    H124992   2.393   4.588   3.711  2.0981 -0.7077 -0.2817
 1167TIP3    H224993   2.397   4.439   3.738 -2.1973 -0.6810  0.8645
 1168TIP3   OH224994   0.905   1.957   3.493  0.1395 -0.0153 -0.4548
 1168TIP3    H124995   0.851   1.891   3.537  0.6628 -0.2896 -0.2189
 1168TIP3    H224996   0.861   1.972   3.410  0.3761 -1.1568 -0.8024
 1169TIP3   OH224997   6.120   3.091   0.978  0.0841 -0.6873 -0.3490
 1169TIP3    H124998   6.215   3.099   0.983  0.0435 -0.4192  0.0047
 1169TIP3    H224999   6.092   3.170   0.932 -0.0632 -0.2281  0.5291
 1170TIP3   OH225000   1.521   1.854  12.063 -0.4599 -0.0126  0.1060
 1170TIP3    H125001   1.586   1.908  12.017  0.0954 -0.5559  0.2473
 1170TIP3    H225002   1.449   1.845  12.000 -0.0989  0.0084 -0.3127
 1171TIP3   OH225003   1.626   1.897  16.370  0.0833  0.1940  0.4421
 1171TIP3    H125004   1.718   1.896  16.396  0.5539  0.8608 -1.1459
 1171TIP3    H225005   1.622   1.838  16.295 -0.7991  0.1694  0.5012
 1172TIP3   OH225006   4.970   6.240  12.821 -0.4950 -0.1802 -0.2301
 1172TIP3    H125007   4.957   6.147  12.799  0.1095 -0.2284 -0.3916
 1172TIP3    H225008   5.013   6.238  12.906 -0.5522 -0.0448 -0.1992
 1173TIP3   OH225009   2.470   5.319   6.186  0.4324 -0.3780  0.3994
 1173TIP3    H125010   2.391   5.281   6.224  1.0593 -0.7981  1.2967
 1173TIP3    H225011   2.532   5.246   6.180  0.2331 -0.4044 -1.7764
 1174TIP3   OH225012   3.750   0.867  14.817  0.5652  0.5212  0.1601
 1174TIP3    H125013   3.825   0.808  14.827  0.4573  0.6348  1.7728
 1174TIP3    H225014   3.783   0.953  14.844 -0.4768  0.3115  2.2346
 1175TIP3   OH225015   4.368   4.394  13.653 -0.0261 -0.4472  1.0001
 1175TIP3    H125016   4.319   4.400  13.571 -0.4751  1.6665  1.4106
 1175TIP3    H225017   4.328   4.320  13.700  0.3198 -1.7473 -0.7066
 1176TIP3   OH225018   2.316   4.121  17.087 -0.2307  0.3108 -0.0621
 1176TIP3    H125019   2.256   4.053  17.116  1.5269  0.4700  4.3926
 1176TIP3    H225020   2.270   4.203  17.107  0.1550  0.4333  0.3224
 1177TIP3   OH225021   4.199   0.432  12.160  0.2643 -0.3523  0.0414
 1177TIP3    H125022   4.249   0.405  12.237  1.3312  1.5676  0.0504
 1177TIP3    H225023   4.190   0.352  12.109  0.7143 -1.3733  1.4997
 1178TIP3   OH225024   4.529   3.238   0.401 -0.5873  0.3582 -0.1684
 1178TIP3    H125025   4.579   3.186   0.338  0.1432  1.6760 -0.6831
 1178TIP3    H225026   4.591   3.256   0.472 -1.4264 -1.1809  0.9848
 1179TIP3   OH225027   5.553   2.627  16.133 -0.4747  0.1408 -0.0232
 1179TIP3    H125028   5.491   2.608  16.203 -0.0655 -0.3451  0.2129
 1179TIP3    H225029   5.561   2.722  16.133 -0.8446  0.1735  0.2697
 1180TIP3   OH225030   2.144   0.213   6.932  0.2373 -0.4384  0.8904
 1180TIP3    H125031   2.100   0.293   6.903  1.0916  0.3008  1.6410
 1180TIP3    H225032   2.235   0.224   6.904  0.2987 -1.2879  0.7307
 1181TIP3   OH225033   2.231   0.293   3.176  0.2078  0.0221 -0.3043
 1181TIP3    H125034   2.320   0.257   3.180  0.0818 -0.1146  2.2112
 1181TIP3    H225035   2.181   0.238   3.235 -0.8027  2.1409  0.8731
 1182TIP3   OH225036   5.721   1.132  10.283 -0.0168  0.2156 -0.2979
 1182TIP3    H125037   5.683   1.157  10.199 -0.0173 -0.6676 -0.5690
 1182TIP3    H225038   5.654   1.077  10.324  0.2682  0.0663 -0.0282
 1183TIP3   OH225039   3.491   2.488  12.913  0.1203 -0.2324 -0.1477
 1183TIP3    H125040   3.468   2.526  12.997 -1.8643 -1.9393  0.1277
 1183TIP3    H225041   3.501   2.563  12.854  2.9738  1.0846  1.8619
 1184TIP3   OH225042   6.048   3.749  15.130  0.5912  0.2496 -0.4580
 1184TIP3    H125043   6.031   3.837  15.163 -0.1854 -0.0889  0.0570
 1184TIP3    H225044   5.995   3.692  15.186  0.4489 -0.4642 -1.3152
 1185TIP3   OH225045   4.573   3.099   3.693  0.1620 -0.1747 -0.2022
 1185TIP3    H125046   4.582   3.083   3.598 -0.3691  2.2982 -0.6932
 1185TIP3    H225047   4.479   3.110   3.707  0.4756  2.3867  0.0903
 1186TIP3   OH225048   3.852   1.525   1.806  0.2272 -0.2783  0.0281
 1186TIP3    H125049   3.894   1.598   1.761  1.1404 -0.0134  1.2776
 1186TIP3    H225050   3.923   1.462   1.822 -0.6455 -1.6764 -1.4864
 1187TIP3   OH225051   3.303   0.411  12.485  0.0983  0.0950 -0.2191
 1187TIP3    H125052   3.212   0.379  12.486 -0.8642  2.6166  2.6734
 1187TIP3    H225053   3.317   0.445  12.573  2.8849  2.4316 -1.4816
 1188TIP3   OH225054   0.152   0.369  11.464 -0.3162  0.0700  0.1925
 1188TIP3    H125055   0.071   0.385  11.415  0.1201  0.8208 -0.3071
 1188TIP3    H225056   0.200   0.306  11.410  1.0516  2.3904 -1.4098
 1189TIP3   OH225057   4.584   3.957   2.818  0.5672  0.0441  0.4304
 1189TIP3    H125058   4.495   3.922   2.813  0.8709 -0.5523 -1.1716
 1189TIP3    H225059   4.625   3.907   2.889  0.3576 -1.4435 -0.4585
 1190TIP3   OH225060   5.831   0.203  12.890 -0.6474  0.4366 -0.0172
 1190TIP3    H125061   5.830   0.252  12.807  3.2443 -2.3175 -1.8633
 1190TIP3    H225062   5.764   0.135  12.878  0.5319 -0.5305 -1.3690
 1191TIP3   OH225063   1.001   6.020  16.051  0.2328  0.0535  0.5079
 1191TIP3    H125064   0.984   6.107  16.087  1.3303  0.5481 -0.1406
 1191TIP3    H225065   1.063   6.036  15.980 -2.2095 -0.8301 -1.9318
 1192TIP3   OH225066   4.007   4.648  12.273 -0.6721 -0.0203 -0.3186
 1192TIP3    H125067   3.965   4.566  12.300 -0.1675 -0.2169 -0.1206
 1192TIP3    H225068   4.009   4.701  12.353 -1.2818  0.3120 -0.5215
 1193TIP3   OH225069   5.500   4.121  17.236  0.2003 -0.1862 -0.2560
 1193TIP3    H125070   5.551   4.120  17.317  0.1404 -0.6272 -0.2225
 1193TIP3    H225071   5.564   4.103  17.167  0.0445 -0.9956 -0.1880
 1194TIP3   OH225072   6.595   0.371   6.461 -0.6078 -0.2223 -0.5347
 1194TIP3    H125073   6.550   0.437   6.513 -0.9065 -0.5360 -0.3891
 1194TIP3    H225074   6.683   0.366   6.499 -1.3516 -1.6810  1.0741
 1195TIP3   OH225075   1.980   4.370   4.118  0.1855 -0.2913  0.0758
 1195TIP3    H125076   2.001   4.296   4.061 -0.9461 -0.2054 -0.4525
 1195TIP3    H225077   1.936   4.432   4.061 -0.1703  0.1723  0.8512
 1196TIP3   OH225078   2.862   4.113   3.559 -0.0938  0.1900 -0.7285
 1196TIP3    H125079   2.861   4.032   3.610  1.2662 -0.7095 -2.0741
 1196TIP3    H225080   2.833   4.181   3.620  0.8970 -0.9557  1.0591
 1197TIP3   OH225081   5.253   4.899  10.620  0.2124 -0.8353 -0.5804
 1197TIP3    H125082   5.239   4.903  10.525  0.2607  0.3560 -0.5393
 1197TIP3    H225083   5.340   4.936  10.633  0.7699 -2.2253 -0.1884
 1198TIP3   OH225084   4.706   2.153   5.585 -0.2474 -0.5894 -0.4198
 1198TIP3    H125085   4.715   2.072   5.635  1.8124 -1.4232 -2.0615
 1198TIP3    H225086   4.655   2.129   5.508  1.8256 -0.7713 -1.7775
 1199TIP3   OH225087   4.787   0.000   4.705 -0.4548 -0.1654 -0.2715
 1199TIP3    H125088   4.760  -0.048   4.627 -1.2118 -2.2050  1.1980
 1199TIP3    H225089   4.706   0.039   4.739 -0.2846 -0.0490  0.0069
 1200TIP3   OH225090   6.655   6.649   0.577 -0.0100 -0.1015 -0.1170
 1200TIP3    H125091   6.667   6.723   0.637 -0.6467  0.8591 -1.1416
 1200TIP3    H225092   6.648   6.572   0.634  0.4862  0.6474  0.9719
 1201TIP3   OH225093   1.039   0.210   1.295  0.4180 -0.0886 -0.4255
 1201TIP3    H125094   1.024   0.153   1.371 -1.5998 -1.8892 -2.0896
 1201TIP3    H225095   1.064   0.149   1.225 -1.2647  1.1397 -2.1165
 1202TIP3   OH225096   4.477   6.173   2.705  0.5624  0.1872 -0.0230
 1202TIP3    H125097   4.505   6.167   2.613 -0.3420  0.3929 -0.3131
 1202TIP3    H225098   4.556   6.200   2.751  1.4670 -1.5935 -0.4825
 1203TIP3   OH225099   2.388   5.067   4.090 -0.2907 -0.5635  0.1780
 1203TIP3    H125100   2.457   5.003   4.074 -0.5856 -0.6899 -0.5939
 1203TIP3    H225101   2.370   5.060   4.184  1.2610  0.0079  0.5292
 1204TIP3   OH225102   6.023   2.330  15.443 -0.0077 -0.2138  0.0749
 1204TIP3    H125103   6.071   2.276  15.506  0.9372 -0.7537 -1.0949
 1204TIP3    H225104   5.998   2.408  15.492  1.2035 -0.3730  0.9576
 1205TIP3   OH225105   3.444   5.143   1.085  0.3270 -0.0478  0.0539
 1205TIP3    H125106   3.426   5.051   1.064 -1.6534  0.6466 -1.4983
 1205TIP3    H225107   3.529   5.141   1.128  0.4470 -2.5871 -0.1810
 1206TIP3   OH225108   1.669   3.712   1.414 -1.2188 -0.2237 -0.1237
 1206TIP3    H125109   1.578   3.722   1.442 -1.3212 -0.7174 -0.2674
 1206TIP3    H225110   1.697   3.630   1.455 -1.5665 -1.3003 -1.9450
 1207TIP3   OH225111   0.022   5.933  12.620  0.5812  0.1309 -0.2063
 1207TIP3    H125112   0.054   5.920  12.530  0.6294  0.6789 -0.2665
 1207TIP3    H225113  -0.020   6.019  12.618  0.2669 -0.0111  0.2089
 1208TIP3   OH225114   0.645   6.675   0.845  0.5150  0.0690  0.4298
 1208TIP3    H125115   0.713   6.687   0.778  0.1947  4.2971  0.7271
 1208TIP3    H225116   0.570   6.641   0.796  1.8561 -1.7412 -0.4318
 1209TIP3   OH225117   5.436   0.967  14.976  0.3045 -0.3260 -0.0717
 1209TIP3    H125118   5.452   0.994  15.066 -0.0714 -0.1096 -0.0663
 1209TIP3    H225119   5.521   0.937  14.944  0.1390 -1.7442  0.7912
 1210TIP3   OH225120   5.498   5.782  11.668 -0.2180  0.3880 -0.0389
 1210TIP3    H125121   5.470   5.728  11.743 -1.7547  1.6975  0.3489
 1210TIP3    H225122   5.462   5.736  11.592 -2.0725  1.1515  0.3343
 1211TIP3   OH225123   2.924   0.822  16.129 -0.9671 -0.1540  0.1378
 1211TIP3    H125124   2.997   0.881  16.111 -1.1976  0.6762  1.7523
 1211TIP3    H225125   2.946   0.741  16.083  0.7107  0.2627  0.1611
 1212TIP3   OH225126   4.301   3.555  14.695  0.4294  0.5907  0.1309
 1212TIP3    H125127   4.230   3.517  14.643  1.5726 -1.0395 -0.2810
 1212TIP3    H225128   4.369   3.488  14.694  1.2094  1.3283  2.1614
 1213TIP3   OH225129   6.066   1.249   4.335  0.4479  0.2678  0.6661
 1213TIP3    H125130   6.068   1.313   4.406 -1.9539  0.0996  0.9214
 1213TIP3    H225131   6.082   1.165   4.378 -0.7325  0.1996  0.9986
 1214TIP3   OH225132   4.360   3.578  12.955 -0.1505 -0.4476 -0.0077
 1214TIP3    H125133   4.446   3.599  12.919 -1.1667  0.2483 -2.0795
 1214TIP3    H225134   4.379   3.541  13.042  2.1954  0.1267 -0.2406
 1215TIP3   OH225135   2.175   1.306   0.881 -0.0169 -0.3209  0.0064
 1215TIP3    H125136   2.223   1.248   0.821 -1.4889 -1.6368  0.0366
 1215TIP3    H225137   2.226   1.306   0.961 -0.5709 -2.5831  0.4161
 1216TIP3   OH225138   3.354   0.455  13.046 -0.2775  0.0578 -0.1725
 1216TIP3    H125139   3.348   0.505  13.127 -0.5508  1.8447 -1.2783
 1216TIP3    H225140   3.266   0.419  13.033 -0.1477 -0.5061  0.4856
 1217TIP3   OH225141   0.353   2.102   6.396 -0.4435  0.1670 -0.5765
 1217TIP3    H125142   0.321   2.070   6.480  1.7945 -1.6853 -0.3897
 1217TIP3    H225143   0.448   2.106   6.406 -0.2398  1.2300 -2.5785
 1218TIP3   OH225144   4.893   6.018   5.383  0.1536 -0.0456 -0.9070
 1218TIP3    H125145   4.871   5.925   5.384  1.1271 -0.2865 -0.8858
 1218TIP3    H225146   4.978   6.023   5.428  0.8649  0.6451 -2.2922
 1219TIP3   OH225147   5.561   3.598   2.554  0.2829  0.0446 -0.2082
 1219TIP3    H125148   5.491   3.638   2.502 -0.2986  0.4590  0.8687
 1219TIP3    H225149   5.543   3.504   2.549  0.3244  0.0727 -0.8915
 1220TIP3   OH225150   2.658   1.426  16.752  0.7020  0.2979 -0.0011
 1220TIP3    H125151   2.594   1.445  16.683 -0.6983 -1.8494  0.6464
 1220TIP3    H225152   2.718   1.363  16.711  0.9161  0.4009  0.1592
 1221TIP3   OH225153   5.689   1.339   4.132  0.0134 -0.0465 -0.4933
 1221TIP3    H125154   5.740   1.387   4.197 -3.0504  2.0381  0.5141
 1221TIP3    H225155   5.729   1.252   4.129  1.5040  0.4629  2.6902
 1222TIP3   OH225156   0.951   4.319   6.002 -0.5272 -0.3668  0.6808
 1222TIP3    H125157   1.020   4.348   5.941  0.7454  1.4156  2.9020
 1222TIP3    H225158   0.906   4.249   5.954  0.0199  1.3637 -2.5658
 1223TIP3   OH225159   0.593   0.912   2.764 -0.4219 -0.8550 -0.4105
 1223TIP3    H125160   0.590   0.999   2.725  0.9231 -0.5166  0.2095
 1223TIP3    H225161   0.665   0.868   2.720  0.7065 -0.6841  1.2261
 1224TIP3   OH225162   2.196   5.822   4.010 -0.2189  0.2740  0.2068
 1224TIP3    H125163   2.168   5.914   4.016  3.4515  1.5204 -0.2576
 1224TIP3    H225164   2.229   5.802   4.097 -0.7224 -0.5254  0.2156
 1225TIP3   OH225165   2.169   4.274   5.256  0.1229  0.2705 -0.3273
 1225TIP3    H125166   2.099   4.213   5.281  1.4605 -0.4661  1.7151
 1225TIP3    H225167   2.168   4.273   5.160 -2.8044  0.4437 -0.3521
 1226TIP3   OH225168   2.423   3.609   0.715  0.4384 -0.6046 -0.1025
 1226TIP3    H125169   2.397   3.669   0.785 -1.3752 -0.5331 -0.8172
 1226TIP3    H225170   2.502   3.649   0.678 -1.1869  1.7819 -1.0919
 1227TIP3   OH225171   6.185   0.088  16.212 -0.5394  0.3229  0.2384
 1227TIP3    H125172   6.107   0.143  16.215 -0.2229  0.8056 -0.1735
 1227TIP3    H225173   6.251   0.138  16.260 -0.3087  0.2062  0.0452
 1228TIP3   OH225174   3.671   2.987   5.581 -0.1573  0.3480  0.1009
 1228TIP3    H125175   3.604   2.934   5.539 -0.7370  0.9484  0.2540
 1228TIP3    H225176   3.644   3.078   5.565  2.2501  0.6942 -2.4865
 1229TIP3   OH225177   5.505   3.162   0.157  0.7954 -0.5187 -0.4066
 1229TIP3    H125178   5.551   3.234   0.201 -2.0610  0.2550  1.4438
 1229TIP3    H225179   5.574   3.116   0.108  3.1854  1.6891  0.7547
 1230TIP3   OH225180   2.350   1.419  14.944  0.1082  0.8451 -0.3854
 1230TIP3    H125181   2.336   1.500  14.993 -1.2658  1.0461 -1.0637
 1230TIP3    H225182   2.261   1.384  14.932  0.8311 -1.7387  1.5374
 1231TIP3   OH225183   3.268   0.912   1.152 -0.1616 -0.1952 -0.0918
 1231TIP3    H125184   3.317   0.901   1.071  0.4205  1.6086  0.0167
 1231TIP3    H225185   3.305   0.847   1.211  0.3672 -0.5496 -0.8012
 1232TIP3   OH225186   3.830   4.408  12.342 -0.2424  0.4565  0.0630
 1232TIP3    H125187   3.900   4.369  12.394  0.3067  1.6862  0.2621
 1232TIP3    H225188   3.836   4.364  12.257  0.0491 -0.2298  0.4354
 1233TIP3   OH225189   2.683   2.318   3.020 -0.1889  0.7145  0.1751
 1233TIP3    H125190   2.676   2.387   2.954  0.7302  1.1427  0.5229
 1233TIP3    H225191   2.738   2.251   2.979  0.6318  1.1145  0.6122
 1234TIP3   OH225192   5.359   4.365  13.323 -0.0948 -0.0886 -0.1117
 1234TIP3    H125193   5.380   4.301  13.255 -1.3078 -1.7855  1.0712
 1234TIP3    H225194   5.445   4.391  13.358  0.3755 -3.7156  1.7500
 1235TIP3   OH225195   5.305   5.846   2.261 -0.0480 -0.2795  0.1649
 1235TIP3    H125196   5.372   5.848   2.193  0.1613 -0.1563  0.3724
 1235TIP3    H225197   5.223   5.830   2.215  0.1037 -0.2643 -0.1072
 1236TIP3   OH225198   4.493   5.472   2.624  0.3374 -0.4138 -0.5230
 1236TIP3    H125199   4.488   5.390   2.674 -0.0192  0.1083  0.2937
 1236TIP3    H225200   4.455   5.450   2.539  1.2634 -1.3958 -0.7030
 1237TIP3   OH225201   5.740   6.246   4.787  0.2818 -0.1282 -0.1617
 1237TIP3    H125202   5.814   6.305   4.774  0.7377 -0.6903 -0.1484
 1237TIP3    H225203   5.780   6.162   4.808 -0.3674 -0.3773  0.0928
 1238TIP3   OH225204   2.175   4.157  14.873 -0.4585  0.7538 -0.3076
 1238TIP3    H125205   2.266   4.154  14.902 -0.2299 -2.4211 -1.1826
 1238TIP3    H225206   2.178   4.191  14.784 -0.3960  2.9875  0.5244
 1239TIP3   OH225207   6.669   5.517   2.631  0.1561  0.7456  0.0173
 1239TIP3    H125208   6.711   5.579   2.690 -0.4501  1.0905  0.0909
 1239TIP3    H225209   6.618   5.571   2.571 -0.8453  0.2963  0.4475
 1240TIP3   OH225210   6.670   5.830   5.620  0.1180  0.4064  0.6497
 1240TIP3    H125211   6.763   5.826   5.596  0.6903  0.2945  2.7150
 1240TIP3    H225212   6.650   5.924   5.620 -0.2054  0.3392 -1.3470
 1241TIP3   OH225213   0.858   5.434  12.359  0.2995 -0.7200 -0.2903
 1241TIP3    H125214   0.912   5.361  12.330  1.1228 -0.7185  1.1985
 1241TIP3    H225215   0.911   5.478  12.426 -0.5213  0.7493 -0.5806
 1242TIP3   OH225216   5.807   5.590  15.685  0.6150  0.5278 -0.5097
 1242TIP3    H125217   5.878   5.581  15.749  0.0455  0.0999  0.0740
 1242TIP3    H225218   5.760   5.668  15.712 -0.7057 -0.6596  0.6842
 1243TIP3   OH225219   6.409   5.810   3.315  0.7504  0.4307 -0.1502
 1243TIP3    H125220   6.503   5.794   3.324  0.2110 -1.6298  2.3969
 1243TIP3    H225221   6.375   5.727   3.281 -0.3808  0.5726  0.6390
 1244TIP3   OH225222   6.504   0.987  12.037 -0.5699 -0.1971 -0.0368
 1244TIP3    H125223   6.590   1.020  12.013 -1.0600  0.5061 -0.8376
 1244TIP3    H225224   6.487   1.026  12.123  0.4912 -1.4348  0.7462
 1245TIP3   OH225225   5.041   3.266  13.961  0.3452  0.0338  0.2877
 1245TIP3    H125226   5.056   3.360  13.947 -0.4716 -0.0166 -1.0939
 1245TIP3    H225227   5.021   3.232  13.874 -3.7397 -0.5838  1.3527
 1246TIP3   OH225228   3.971   4.908  14.693  0.0165 -0.0950  0.4705
 1246TIP3    H125229   4.031   4.965  14.741 -0.3789  0.5461  0.2042
 1246TIP3    H225230   4.016   4.823  14.688  0.3332  0.0235  1.4059
 1247TIP3   OH225231   1.704   1.844   1.690  0.4640  0.5611 -0.1879
 1247TIP3    H125232   1.782   1.800   1.723 -0.4848  0.1059  1.5145
 1247TIP3    H225233   1.650   1.773   1.654  0.7586  0.8506 -1.2056
 1248TIP3   OH225234   6.398   6.288  11.776 -0.3819 -0.1312  0.3713
 1248TIP3    H125235   6.311   6.247  11.770  0.1516 -1.2084  0.0565
 1248TIP3    H225236   6.438   6.248  11.853 -0.4772  1.0016  1.0379
 1249TIP3   OH225237   6.310   4.778  15.852 -0.6349  0.0788 -0.2763
 1249TIP3    H125238   6.333   4.708  15.914  1.8018  0.4839 -0.7045
 1249TIP3    H225239   6.264   4.843  15.906 -0.7297 -0.7047  0.6084
 1250TIP3   OH225240   0.921   5.721  14.683 -0.0177 -0.4648  0.4699
 1250TIP3    H125241   0.834   5.681  14.688  0.7005 -1.9528  1.1698
 1250TIP3    H225242   0.942   5.720  14.589 -0.2494 -1.1896  0.4261
 1251TIP3   OH225243   4.392   1.186   3.457 -0.2370  0.7561  0.1941
 1251TIP3    H125244   4.296   1.190   3.448 -0.2621 -1.0699 -0.6614
 1251TIP3    H225245   4.412   1.251   3.524 -2.3852 -0.8034  2.4843
 1252TIP3   OH225246   5.871   5.639   4.159  0.1056  0.1650 -0.0596
 1252TIP3    H125247   5.791   5.653   4.108 -0.7581 -2.3670  0.5401
 1252TIP3    H225248   5.911   5.561   4.121  1.8071  0.8404  0.2792
 1253TIP3   OH225249   3.643   4.165   4.628  0.7855  0.3153 -0.5754
 1253TIP3    H125250   3.593   4.242   4.599  0.0319  0.2685  0.5556
 1253TIP3    H225251   3.689   4.195   4.707 -1.2501 -0.9844  1.1746
 1254TIP3   OH225252   3.669   2.960  11.967  0.1541 -0.0524 -1.1842
 1254TIP3    H125253   3.739   2.976  11.904 -0.0837 -0.6117 -1.5858
 1254TIP3    H225254   3.665   3.041  12.018  1.3795 -0.1651 -0.8812
 1255TIP3   OH225255   2.716   2.480   1.612 -0.2799 -0.3505  0.0118
 1255TIP3    H125256   2.787   2.464   1.675 -0.6660 -1.2045  0.2394
 1255TIP3    H225257   2.641   2.503   1.667 -0.1140  0.8218 -0.2434
 1256TIP3   OH225258   2.485   0.969  16.024  0.3947 -0.3212  0.2166
 1256TIP3    H125259   2.472   0.874  16.022 -1.2112 -0.1279  0.5765
 1256TIP3    H225260   2.557   0.982  16.086  0.3486 -1.2876  0.4843
 1257TIP3   OH225261   0.966   5.283   4.815 -0.1240 -0.2275 -0.1151
 1257TIP3    H125262   1.033   5.222   4.847  0.8853  1.1794  0.4765
 1257TIP3    H225263   1.011   5.339   4.753 -1.0721 -0.1148 -0.7196
 1258TIP3   OH225264   0.842   3.402   2.469 -0.1715  0.5138 -0.1191
 1258TIP3    H125265   0.927   3.357   2.467 -0.2190  0.4295 -0.3641
 1258TIP3    H225266   0.796   3.368   2.392 -1.4546 -1.4151  1.4750
 1259TIP3   OH225267   0.407   5.749   5.480  0.2740 -0.3939  0.0546
 1259TIP3    H125268   0.327   5.765   5.530 -1.1869 -0.1670 -2.3053
 1259TIP3    H225269   0.462   5.826   5.496  0.8810 -1.4102  3.2237
 1260TIP3   OH225270   3.689   3.762   0.792  0.2809  0.1877 -0.2571
 1260TIP3    H125271   3.777   3.728   0.776  0.4266  0.0001  0.8675
 1260TIP3    H225272   3.634   3.721   0.726  0.7856 -0.8199 -0.0546
 1261TIP3   OH225273   1.911   6.207   4.847  0.8389 -0.0083 -0.0857
 1261TIP3    H125274   1.878   6.292   4.819  0.3332  0.2579  1.2580
 1261TIP3    H225275   1.984   6.227   4.906  2.1438 -0.5619 -1.4817
 1262TIP3   OH225276   2.670   4.042   1.023  0.8483 -0.0665 -0.0757
 1262TIP3    H125277   2.701   3.954   1.047 -1.5035  0.1660  4.3286
 1262TIP3    H225278   2.746   4.098   1.038  1.5391 -0.9771 -0.0689
 1263TIP3   OH225279   2.342   2.830   4.128  1.0592 -0.5470  0.0938
 1263TIP3    H125280   2.313   2.868   4.045  0.0731 -0.1127  0.6289
 1263TIP3    H225281   2.431   2.801   4.111  0.4091 -1.6860 -1.5120
 1264TIP3   OH225282   0.743   0.571   2.011 -0.1138  0.3404 -0.9310
 1264TIP3    H125283   0.789   0.490   1.989 -1.0441 -0.9720  1.7658
 1264TIP3    H225284   0.671   0.575   1.948 -0.7144 -1.5491 -0.4155
 1265TIP3   OH225285   2.659   6.502   0.367 -0.8124  0.1655  0.4488
 1265TIP3    H125286   2.711   6.485   0.289  0.7119  2.8264  0.8278
 1265TIP3    H225287   2.600   6.573   0.342 -3.7346 -2.2169  0.2978
 1266TIP3   OH225288   1.788   5.466   0.900 -0.4615  0.1268 -0.4313
 1266TIP3    H125289   1.710   5.512   0.870 -0.7541 -0.4148 -0.5190
 1266TIP3    H225290   1.831   5.527   0.960  0.1369  1.2226 -1.9599
 1267TIP3   OH225291   5.155   3.134  12.227  0.4725  0.0742  0.0299
 1267TIP3    H125292   5.153   3.039  12.237 -0.0571  0.1009  0.1871
 1267TIP3    H225293   5.184   3.167  12.312 -1.4967  0.1634  0.6962
 1268TIP3   OH225294   3.115   4.834  13.821  0.7714 -0.0582  0.6790
 1268TIP3    H125295   3.073   4.870  13.899  0.0439  0.7503 -0.0777
 1268TIP3    H225296   3.209   4.836  13.841  0.4823 -1.7367  2.3139
 1269TIP3   OH225297   6.239   0.442   3.662  0.0965  1.0393  0.1006
 1269TIP3    H125298   6.186   0.372   3.699  1.5516  0.5920  1.3511
 1269TIP3    H225299   6.187   0.521   3.676 -0.3005  0.5871  1.1893
 1270TIP3   OH225300   3.126   6.290   5.955  0.3405  0.0264  0.8557
 1270TIP3    H125301   3.106   6.242   6.035  0.1844 -1.8500 -0.2615
 1270TIP3    H225302   3.219   6.311   5.961  1.0873 -2.8817  0.1470
 1271TIP3   OH225303   2.923   0.348  10.854 -0.1653 -0.4260 -0.3057
 1271TIP3    H125304   2.928   0.403  10.776 -2.2263 -1.7969 -1.4647
 1271TIP3    H225305   2.849   0.383  10.903 -0.0902 -0.7719  0.0562
 1272TIP3   OH225306   1.487   4.263  12.988 -0.3383  0.1689  0.1611
 1272TIP3    H125307   1.536   4.210  13.051 -0.9922 -4.1437 -2.7115
 1272TIP3    H225308   1.536   4.252  12.906 -1.1895  3.1399 -0.7814
 1273TIP3   OH225309   1.173   0.346   0.354 -0.2429 -0.5845 -0.0717
 1273TIP3    H125310   1.144   0.378   0.440  0.7563  0.0870  0.0274
 1273TIP3    H225311   1.266   0.328   0.365 -0.2970 -1.3167 -0.7847
 1274TIP3   OH225312   2.407   1.863  16.826 -0.0900 -0.3790 -0.7020
 1274TIP3    H125313   2.497   1.883  16.852 -0.9085 -0.0231  1.9434
 1274TIP3    H225314   2.403   1.888  16.734  2.9471 -1.8154 -1.3094
 1275TIP3   OH225315   4.206   0.165  14.409  0.9170 -0.0407 -0.3075
 1275TIP3    H125316   4.147   0.092  14.389  0.2855  0.3859 -0.0326
 1275TIP3    H225317   4.248   0.141  14.491 -0.0404  0.3512  0.3067
 1276TIP3   OH225318   3.732   3.426   0.644 -0.2106 -0.2313  0.1572
 1276TIP3    H125319   3.770   3.338   0.636 -0.2822 -0.4114  1.6831
 1276TIP3    H225320   3.638   3.412   0.632  0.0764  0.1564 -3.1797
 1277TIP3   OH225321   2.542   0.371   1.540 -0.2388 -0.3685  0.1588
 1277TIP3    H125322   2.617   0.430   1.547  0.1953 -1.1177  2.0819
 1277TIP3    H225323   2.577   0.291   1.501 -0.3218 -0.2728 -0.1202
 1278TIP3   OH225324   0.175   2.022  16.645  0.0786 -0.2850  0.2110
 1278TIP3    H125325   0.121   1.974  16.707  1.7088 -0.4461  1.5217
 1278TIP3    H225326   0.121   2.027  16.566 -0.0741 -4.4501 -0.0534
 1279TIP3   OH225327   2.511   6.721   0.800 -0.5613 -0.1959 -0.3775
 1279TIP3    H125328   2.451   6.668   0.852 -0.7405  0.4069  0.0352
 1279TIP3    H225329   2.457   6.759   0.731 -0.1007 -1.9167 -1.7006
 1280TIP3   OH225330   1.838   0.941   0.729  0.1388  0.2469 -0.3163
 1280TIP3    H125331   1.770   0.888   0.771 -0.9122  2.0207  0.2698
 1280TIP3    H225332   1.790   0.997   0.669  1.3507 -0.1801 -1.7235
 1281TIP3   OH225333   6.380   0.332  11.320 -0.4042 -0.2427 -0.1436
 1281TIP3    H125334   6.368   0.405  11.380  2.0510 -0.5146  0.7412
 1281TIP3    H225335   6.353   0.366  11.234  0.1309  1.5004  0.3616
 1282TIP3   OH225336   4.307   3.575   4.955  0.5094  0.2725 -0.2955
 1282TIP3    H125337   4.372   3.633   4.914  1.6258 -1.6227 -1.2824
 1282TIP3    H225338   4.355   3.495   4.973 -1.2448 -0.6886  0.1767
 1283TIP3   OH225339   3.017   2.522  11.778  0.1987 -0.1712 -0.3805
 1283TIP3    H125340   3.030   2.616  11.771  0.6685 -0.0708  1.5744
 1283TIP3    H225341   3.101   2.484  11.752  0.1660 -0.0373 -0.6847
 1284TIP3   OH225342   1.074   3.656  13.465  0.4971  0.6826  0.3600
 1284TIP3    H125343   1.107   3.665  13.376  1.6206 -1.4934  0.5237
 1284TIP3    H225344   1.141   3.699  13.519 -0.1704  1.9768  0.1701
 1285TIP3   OH225345   2.643   2.985  13.718  0.3693  0.0067 -0.2914
 1285TIP3    H125346   2.636   3.077  13.742 -0.4291  0.0432 -0.6514
 1285TIP3    H225347   2.692   2.985  13.636 -0.9381  0.2344 -1.0883
 1286TIP3   OH225348   3.922   4.653  11.397 -0.3474 -0.0263  0.3930
 1286TIP3    H125349   3.885   4.565  11.388  1.0069 -0.4654 -1.2201
 1286TIP3    H225350   3.894   4.698  11.317  0.8562  0.2751  0.1365
 1287TIP3   OH225351   6.060   1.138   4.980 -0.2151  0.1248 -0.4333
 1287TIP3    H125352   6.013   1.122   4.898 -2.0300 -1.6956  0.9308
 1287TIP3    H225353   6.000   1.190   5.033  0.1583 -0.4166  0.5308
 1288TIP3   OH225354   3.614   3.169  16.063 -0.9114 -0.1059  0.0623
 1288TIP3    H125355   3.602   3.217  15.981 -0.4285  0.9123  0.5789
 1288TIP3    H225356   3.540   3.196  16.118 -1.1652 -0.6891  0.0149
 1289TIP3   OH225357   3.933   1.151   5.898  0.3787 -0.2874  0.0342
 1289TIP3    H125358   3.938   1.056   5.907  0.4770 -0.4094 -1.2679
 1289TIP3    H225359   4.015   1.182   5.936 -1.2582 -0.4325  3.9319
 1290TIP3   OH225360   2.485   0.334   4.576 -0.0322 -0.3629  0.5268
 1290TIP3    H125361   2.539   0.397   4.625  0.5976 -1.0535  0.7354
 1290TIP3    H225362   2.402   0.379   4.563  0.3688  0.4684  0.7833
 1291TIP3   OH225363   0.254   2.555   0.922 -0.3107  0.1059 -0.1965
 1291TIP3    H125364   0.189   2.556   0.851  1.0366 -1.0889 -1.4856
 1291TIP3    H225365   0.262   2.463   0.945  1.3710  0.1699 -0.4816
 1292TIP3   OH225366   5.630   3.571  13.863 -0.1986 -0.3902 -0.5354
 1292TIP3    H125367   5.536   3.574  13.882 -0.0850 -2.1905  0.3641
 1292TIP3    H225368   5.660   3.661  13.879 -1.6158  0.0251 -0.1124
 1293TIP3   OH225369   3.893   0.974   2.407 -0.4055  0.1471 -0.1235
 1293TIP3    H125370   3.879   1.040   2.475 -1.3505  0.3541 -0.5072
 1293TIP3    H225371   3.932   1.023   2.335  0.5118 -0.0544  0.2396
 1294TIP3   OH225372   0.126   0.812  15.474  0.4167  0.9870 -0.0501
 1294TIP3    H125373   0.185   0.784  15.404  1.0261  1.8727  0.1018
 1294TIP3    H225374   0.061   0.741  15.481  1.1201  0.2804 -0.6148
 1295TIP3   OH225375   2.469   5.344  15.155 -0.0202 -0.1129 -0.6898
 1295TIP3    H125376   2.413   5.282  15.201 -0.4278  0.9748  0.3245
 1295TIP3    H225377   2.542   5.292  15.122 -1.1913 -1.3993 -1.2941
 1296TIP3   OH225378   0.988   5.118  11.901  0.0835  0.1425  0.0897
 1296TIP3    H125379   1.018   5.071  11.823 -0.3252 -0.7738  0.4687
 1296TIP3    H225380   1.038   5.079  11.973  0.1241  0.6615  0.3437
 1297TIP3   OH225381   2.473   1.244   4.082  0.4308  0.4673  0.3277
 1297TIP3    H125382   2.445   1.192   4.157  0.3867 -0.5445 -0.3797
 1297TIP3    H225383   2.439   1.332   4.099 -0.5764 -0.0333  0.9272
 1298TIP3   OH225384   5.504   1.521   4.906  0.5242  0.4586 -0.3361
 1298TIP3    H125385   5.537   1.559   4.987  2.1663  0.0740 -0.7887
 1298TIP3    H225386   5.550   1.437   4.899  0.2792  0.4080 -1.5618
 1299TIP3   OH225387   2.545   0.778   0.108 -0.5883 -0.1177 -0.1877
 1299TIP3    H125388   2.608   0.797   0.039 -0.9475 -1.1093 -0.8099
 1299TIP3    H225389   2.469   0.741   0.061 -0.6969 -1.1379  0.7661
 1300TIP3   OH225390   5.802   3.252  14.715  0.7166 -0.2427  0.3482
 1300TIP3    H125391   5.739   3.257  14.788 -0.2812 -1.3154 -0.4114
 1300TIP3    H225392   5.808   3.159  14.695 -0.5896  0.1817 -2.2637
 1301TIP3   OH225393   1.226   4.469   6.949 -0.2208 -0.3586  0.3881
 1301TIP3    H125394   1.318   4.456   6.972  0.0676 -0.3662 -0.7501
 1301TIP3    H225395   1.218   4.564   6.936  0.2750 -0.6326 -2.1588
 1302TIP3   OH225396   0.041   4.997   4.727 -0.0231  0.5083  0.8203
 1302TIP3    H125397   0.037   5.062   4.797 -1.9510  0.7964  0.4767
 1302TIP3    H225398  -0.044   5.004   4.683  0.3939 -1.0644 -0.2779
 1303TIP3   OH225399   4.352   4.060   1.893 -0.1786 -0.2608  0.2742
 1303TIP3    H125400   4.398   3.980   1.866 -0.5406 -0.3363 -0.1197
 1303TIP3    H225401   4.268   4.030   1.925 -0.7064  0.0441 -0.7997
 1304TIP3   OH225402   2.218   0.068   1.049 -0.4316  0.0602 -0.2771
 1304TIP3    H125403   2.179   0.132   1.109  0.2150  0.9075 -0.7770
 1304TIP3    H225404   2.143   0.031   1.002 -0.8800 -0.1317  0.5670
 1305TIP3   OH225405   5.972   6.548  13.029 -0.4303 -0.1793  0.1279
 1305TIP3    H125406   5.984   6.534  12.935 -0.4047 -0.0527  0.1121
 1305TIP3    H225407   5.893   6.498  13.052 -1.6017  1.3992 -0.3509
 1306TIP3   OH225408   4.054   6.179   2.784  0.3889 -0.2282 -0.4515
 1306TIP3    H125409   4.083   6.098   2.825 -0.7753 -0.7592 -0.6463
 1306TIP3    H225410   4.092   6.177   2.696 -2.0336 -2.0095 -1.5113
 1307TIP3   OH225411   0.429   0.875  15.727 -0.0855  0.0653  0.0319
 1307TIP3    H125412   0.476   0.896  15.646  1.1888  0.5849  0.9065
 1307TIP3    H225413   0.436   0.780  15.735 -1.3734 -0.1587 -1.1602
 1308TIP3   OH225414   1.979   0.032  12.186 -0.0583 -0.1797  0.3728
 1308TIP3    H125415   1.913   0.100  12.171 -2.1557 -1.9040  1.5481
 1308TIP3    H225416   1.976   0.016  12.280  0.8131 -1.5237  0.1847
 1309TIP3   OH225417   2.912   6.135  15.931 -0.0404 -0.4940  0.0005
 1309TIP3    H125418   2.933   6.068  15.865  1.8041  0.1514 -0.1020
 1309TIP3    H225419   2.939   6.096  16.014 -0.0798 -0.3581  0.0778
 1310TIP3   OH225420   1.850   2.870  17.239 -0.1424  0.5652 -0.0922
 1310TIP3    H125421   1.837   2.916  17.156 -0.0544  0.9055  0.0789
 1310TIP3    H225422   1.793   2.794  17.234 -0.5499  0.8760 -0.2399
 1311TIP3   OH225423   1.807   5.978   0.349  0.4719 -0.1016  0.0405
 1311TIP3    H125424   1.846   5.979   0.436 -0.4132 -1.6551  0.4829
 1311TIP3    H225425   1.712   5.977   0.365  0.3018 -1.6805 -0.8907
 1312TIP3   OH225426   4.232   5.595   0.867 -0.0528 -0.2781  0.1012
 1312TIP3    H125427   4.323   5.584   0.841 -0.1878  0.8956 -0.9316
 1312TIP3    H225428   4.232   5.583   0.962  1.3512  0.8188  0.2504
 1313TIP3   OH225429   6.057   0.476  11.872 -0.8001 -0.0235 -0.0065
 1313TIP3    H125430   5.970   0.473  11.833  0.0600  0.6609 -2.0474
 1313TIP3    H225431   6.109   0.415  11.821  0.3531  0.8880  0.0506
 1314TIP3   OH225432   1.121   3.327   2.583  0.3950  0.3924 -0.1592
 1314TIP3    H125433   1.188   3.282   2.634  0.2765  0.3302 -0.0573
 1314TIP3    H225434   1.155   3.415   2.570  1.1914 -0.0874 -1.4138
 1315TIP3   OH225435   0.228   4.039  13.769 -0.4693 -0.2766 -0.2835
 1315TIP3    H125436   0.138   4.049  13.801 -1.2444 -1.1789 -2.0935
 1315TIP3    H225437   0.246   4.120  13.722 -0.5440 -0.3312 -0.4070
 1316TIP3   OH225438   6.092   1.536  16.552 -0.1991 -0.3945 -0.4407
 1316TIP3    H125439   6.150   1.611  16.539 -0.8292  0.2574  0.4803
 1316TIP3    H225440   6.151   1.462  16.567  0.3978  0.2514  0.4249
 1317TIP3   OH225441   0.765   1.835   5.887 -0.0999 -0.1334 -0.1437
 1317TIP3    H125442   0.787   1.862   5.976 -0.8266 -0.4363  0.1349
 1317TIP3    H225443   0.774   1.740   5.887  2.1703  0.0679 -1.0467
 1318TIP3   OH225444   2.684   2.552   4.622  0.1328  0.4685  0.3927
 1318TIP3    H125445   2.775   2.528   4.643 -0.0019  0.5562  1.0831
 1318TIP3    H225446   2.646   2.472   4.585  0.9301  0.8624 -1.3333
 1319TIP3   OH225447   6.079   1.970  15.648 -0.3933  0.0908  0.0304
 1319TIP3    H125448   6.015   2.012  15.592  1.2931  2.1652 -0.4039
 1319TIP3    H225449   6.151   2.033  15.655  1.3907 -1.9498  0.8935
 1320TIP3   OH225450   4.085   5.716   0.668  0.1911  0.2890 -0.1474
 1320TIP3    H125451   4.131   5.674   0.596  0.4374 -0.1364  0.2540
 1320TIP3    H225452   4.124   5.678   0.747 -0.7510  0.0281  0.1999
 1321TIP3   OH225453   5.930   4.186   0.458  0.0204  0.8340 -0.2098
 1321TIP3    H125454   5.840   4.155   0.466 -0.2089  1.4281 -0.5131
 1321TIP3    H225455   5.955   4.212   0.547  0.4792 -0.9403  0.2031
 1322TIP3   OH225456   0.505   3.416  10.750 -0.1330  0.0006  0.0682
 1322TIP3    H125457   0.432   3.421  10.688  0.0634  0.5990 -0.1194
 1322TIP3    H225458   0.558   3.493  10.731  1.5371 -1.3839 -0.9920
 1323TIP3   OH225459   2.882   2.607  12.709  0.2515 -0.1631  0.2253
 1323TIP3    H125460   2.826   2.536  12.738 -0.2845 -0.4534 -1.4571
 1323TIP3    H225461   2.969   2.568  12.701 -0.0941 -0.6989 -0.9491
 1324TIP3   OH225462   0.279   3.216  12.835 -0.7234  0.0093 -0.0651
 1324TIP3    H125463   0.348   3.173  12.785 -0.0444  0.5461  0.4043
 1324TIP3    H225464   0.207   3.153  12.835  0.9162 -1.9410  2.2003
 1325TIP3   OH225465   5.891   2.465   4.724  0.8421 -0.3640  1.4027
 1325TIP3    H125466   5.924   2.376   4.711  0.1440 -0.4194 -0.1009
 1325TIP3    H225467   5.796   2.456   4.720  0.8102  0.8619 -1.6948
 1326TIP3   OH225468   5.630   1.259  14.798 -0.5377  0.2505  0.3971
 1326TIP3    H125469   5.682   1.209  14.862 -0.9511 -0.2842  0.3142
 1326TIP3    H225470   5.554   1.289  14.847  0.0118  1.3292  0.6080
 1327TIP3   OH225471   0.295   1.726  16.596 -0.2363 -0.0022  0.9478
 1327TIP3    H125472   0.202   1.735  16.572 -0.5617  1.3086  2.5857
 1327TIP3    H225473   0.337   1.802  16.557  0.4506 -1.4033 -1.0921
 1328TIP3   OH225474   0.144   3.548   1.453  0.0128  0.6880  0.5281
 1328TIP3    H125475   0.177   3.571   1.539  1.5831 -1.0855  0.4263
 1328TIP3    H225476   0.185   3.611   1.394 -0.9948  1.8449  1.0378
 1329TIP3   OH225477   5.387   0.565  17.005  0.1553  0.5006 -0.3863
 1329TIP3    H125478   5.340   0.499  16.954 -0.4462  1.5189 -1.1694
 1329TIP3    H225479   5.322   0.600  17.066  0.4401  0.4541 -0.0530
 1330TIP3   OH225480   3.388   1.560   2.953  0.3261  0.0897  0.1319
 1330TIP3    H125481   3.369   1.483   2.899 -0.0050  0.2450  0.0264
 1330TIP3    H225482   3.411   1.523   3.039  0.5598 -0.1423 -0.0293
 1331TIP3   OH225483   6.108   0.064  10.805 -0.1669  0.0879 -0.2122
 1331TIP3    H125484   6.036   0.002  10.803 -1.1119  1.1457  0.4872
 1331TIP3    H225485   6.069   0.147  10.778  0.5934  0.8535  1.0107
 1332TIP3   OH225486   1.195   4.097   1.165  0.2048  0.9961  0.4235
 1332TIP3    H125487   1.129   4.029   1.151  0.5684  0.4549  1.2526
 1332TIP3    H225488   1.203   4.141   1.080 -0.6390  0.5482  0.1036
 1333TIP3   OH225489   0.427   4.526  13.870  0.4067  0.2109  0.2227
 1333TIP3    H125490   0.423   4.622  13.871  0.6833  0.2146  0.8262
 1333TIP3    H225491   0.338   4.499  13.846 -0.0074  0.5835  1.3393
 1334TIP3   OH225492   4.093   4.850   4.842 -0.1577 -0.2889 -0.3618
 1334TIP3    H125493   4.143   4.892   4.772  0.2256  0.3099  0.2688
 1334TIP3    H225494   4.157   4.797   4.890 -0.3155 -0.2649 -0.1225
 1335TIP3   OH225495   3.253   0.079  13.248 -0.3770 -0.4098  0.3035
 1335TIP3    H125496   3.158   0.068  13.250 -0.2064 -1.8230  0.7552
 1335TIP3    H225497   3.282   0.053  13.336  0.3777  0.5861  0.3663
 1336TIP3   OH225498   0.511   5.591   2.601 -0.2602 -0.2814 -0.4088
 1336TIP3    H125499   0.497   5.627   2.688 -2.2283 -1.8029 -0.0665
 1336TIP3    H225500   0.591   5.539   2.609  1.5792  2.4099 -0.4531
 1337TIP3   OH225501   0.318   2.726  13.667 -0.0058 -0.5791 -0.1313
 1337TIP3    H125502   0.289   2.674  13.592  1.3023  1.2664 -1.9863
 1337TIP3    H225503   0.313   2.817  13.636  2.0624  0.1145  1.4526
 1338TIP3   OH225504   3.810   4.271   3.673  0.4689 -0.0989  0.1954
 1338TIP3    H125505   3.756   4.192   3.670  1.1203 -0.5323 -0.2974
 1338TIP3    H225506   3.815   4.293   3.766 -2.8596  1.5552  0.0218
 1339TIP3   OH225507   4.272   5.051   6.018  0.0069 -0.3179 -0.1426
 1339TIP3    H125508   4.190   5.101   6.012 -0.4995 -0.8488  2.0503
 1339TIP3    H225509   4.245   4.960   6.028  0.8760 -0.5431  0.2324
 1340TIP3   OH225510   3.140   5.366  13.342 -0.1877 -0.1765  0.2206
 1340TIP3    H125511   3.170   5.363  13.252 -0.5055  0.1314  0.1022
 1340TIP3    H225512   3.196   5.431  13.384 -1.9779  1.9155 -0.4997
 1341TIP3   OH225513   3.650   6.650   1.990 -0.3101 -0.5017 -0.2559
 1341TIP3    H125514   3.577   6.657   2.051  0.1143 -0.7256  0.2831
 1341TIP3    H225515   3.721   6.698   2.031 -0.6221  1.1027 -1.5309
 1342TIP3   OH225516   5.840   1.044   4.842 -0.2356 -0.0648 -0.1527
 1342TIP3    H125517   5.841   0.956   4.881 -0.8545 -0.7093 -1.5513
 1342TIP3    H225518   5.768   1.042   4.779  0.5407  1.0469 -1.1051
 1343TIP3   OH225519   2.643   5.659  14.745  0.2439 -0.4299 -0.4014
 1343TIP3    H125520   2.558   5.677  14.787  0.8718  2.1699 -0.1387
 1343TIP3    H225521   2.625   5.666  14.651 -0.1743 -1.5477 -0.4091
 1344TIP3   OH225522   6.789   0.994   0.586  0.0928 -0.3577 -0.1811
 1344TIP3    H125523   6.820   0.904   0.576  0.9020 -0.1897  0.7979
 1344TIP3    H225524   6.755   1.017   0.499 -0.3241 -1.6761 -0.3806
 1345TIP3   OH225525   1.277   6.732  17.156 -0.0679  0.3874 -0.1044
 1345TIP3    H125526   1.250   6.736  17.064 -0.1790 -1.1977 -0.1551
 1345TIP3    H225527   1.328   6.812  17.169  2.3475 -0.7123 -2.3498
 1346TIP3   OH225528   1.232   3.473   5.465  1.1514 -0.2766  0.0417
 1346TIP3    H125529   1.231   3.563   5.500 -3.8634  0.3372 -1.3056
 1346TIP3    H225530   1.225   3.485   5.370 -1.6744 -2.0641 -0.0157
 1347TIP3   OH225531   5.012   1.370   4.326  0.3667 -0.4836 -0.2126
 1347TIP3    H125532   5.034   1.437   4.391 -0.8877 -0.8201  0.5906
 1347TIP3    H225533   5.053   1.290   4.359  1.3702 -0.2376 -0.8621
 1348TIP3   OH225534   5.637   5.784  13.814 -0.0387 -0.1083 -0.0177
 1348TIP3    H125535   5.625   5.865  13.763  0.9231 -0.5183 -0.9125
 1348TIP3    H225536   5.660   5.718  13.749  1.8365 -0.5102  1.0305
 1349TIP3   OH225537   4.106   4.259  15.325 -0.2932  0.4424 -0.0883
 1349TIP3    H125538   4.190   4.263  15.278 -0.5169  0.5616 -0.4834
 1349TIP3    H225539   4.049   4.208  15.267  0.2856 -1.9707  1.4106
 1350TIP3   OH225540   4.610   0.320  11.570 -0.0025 -0.6477 -0.3436
 1350TIP3    H125541   4.620   0.232  11.607  0.7120 -0.4726 -0.1080
 1350TIP3    H225542   4.596   0.306  11.477  3.0484 -0.9036 -0.8037
 1351TIP3   OH225543   3.436   6.503   1.584  0.1156 -0.5247  0.0651
 1351TIP3    H125544   3.386   6.429   1.617 -0.3020 -0.0501  0.5171
 1351TIP3    H225545   3.501   6.521   1.652  2.1817 -2.3264 -1.3387
 1352TIP3   OH225546   6.350   5.706   5.357 -0.2801 -0.1121 -0.0847
 1352TIP3    H125547   6.256   5.687   5.366 -0.2089  0.4551  2.2778
 1352TIP3    H225548   6.354   5.799   5.336 -0.3035 -0.6113 -2.3896
 1353TIP3   OH225549   1.410   3.011  11.788 -0.0224 -0.0162 -0.3130
 1353TIP3    H125550   1.494   3.027  11.831 -0.7379 -1.0079  1.5077
 1353TIP3    H225551   1.376   3.098  11.767  1.3900  0.3923 -0.9277
 1354TIP3   OH225552   0.823   5.732  12.214  0.2737 -1.1043  0.3860
 1354TIP3    H125553   0.743   5.766  12.174  0.4439 -1.0820  0.0655
 1354TIP3    H225554   0.867   5.685  12.143  0.9428 -0.4351  0.3561
 1355TIP3   OH225555   6.737   0.431   1.111  0.1297  0.1649  0.9999
 1355TIP3    H125556   6.754   0.379   1.190 -0.8663  0.6919  1.5751
 1355TIP3    H225557   6.670   0.494   1.138 -0.3016  0.2786 -0.3001
 1356TIP3   OH225558   3.227   3.109  12.013  0.0095 -0.3707 -0.6012
 1356TIP3    H125559   3.165   3.181  12.005  0.6277  0.3150  0.5221
 1356TIP3    H225560   3.194   3.041  11.955 -1.8165 -0.0386  0.0273
 1357TIP3   OH225561   6.098   5.508  11.345  0.2573  0.2994  0.4252
 1357TIP3    H125562   6.125   5.537  11.258 -1.4607 -0.4440 -0.3692
 1357TIP3    H225563   6.003   5.519  11.346  0.3366  1.0684  2.5097
 1358TIP3   OH225564   1.778   1.874   3.120 -0.0549 -0.5435  0.1380
 1358TIP3    H125565   1.859   1.913   3.153 -0.3708  0.1319  0.1245
 1358TIP3    H225566   1.759   1.803   3.180  1.4434 -1.7680 -0.7987
 1359TIP3   OH225567   1.820   4.606   4.370 -0.5523  0.0055  0.0538
 1359TIP3    H125568   1.890   4.541   4.378 -0.3248  0.2354 -0.0597
 1359TIP3    H225569   1.753   4.563   4.318  0.3926  0.5182 -1.6118
 1360TIP3   OH225570   3.598   5.098   2.330  0.7400  0.4854  0.0366
 1360TIP3    H125571   3.655   5.056   2.265  0.9208  0.1238  0.4272
 1360TIP3    H225572   3.622   5.191   2.325  1.8833  0.2440  0.6960
 1361TIP3   OH225573   2.872   4.298   0.249 -0.5880  0.8248 -0.1361
 1361TIP3    H125574   2.946   4.239   0.231 -0.7254  0.4413  0.5588
 1361TIP3    H225575   2.911   4.385   0.247  0.1782  0.5550  1.5968
 1362TIP3   OH225576   4.431   4.570   3.430 -0.1341  0.3596 -0.2894
 1362TIP3    H125577   4.396   4.481   3.425  0.6211  0.0358  0.0797
 1362TIP3    H225578   4.481   4.581   3.349  0.9468 -0.0695  0.3043
 1363TIP3   OH225579   3.371   5.927   2.560  0.7757  0.2039  0.1269
 1363TIP3    H125580   3.345   5.849   2.610  0.8901 -1.0419 -1.7332
 1363TIP3    H225581   3.390   5.992   2.628 -0.1754 -1.0884  1.6984
 1364TIP3   OH225582   5.993   5.284   1.679  0.0536 -0.3937  0.0113
 1364TIP3    H125583   6.032   5.244   1.757 -0.3348 -0.6565  0.0693
 1364TIP3    H225584   5.955   5.210   1.631 -0.2007 -0.1578 -0.1450
 1365TIP3   OH225585   5.202   0.287   3.732 -0.4745 -0.0902 -0.9750
 1365TIP3    H125586   5.266   0.354   3.711  1.3171 -1.9256 -1.5339
 1365TIP3    H225587   5.145   0.283   3.656  0.7692 -0.7496 -1.8752
 1366TIP3   OH225588   4.344   5.490   5.576 -0.3520  0.0752 -0.0688
 1366TIP3    H125589   4.377   5.494   5.666 -0.9502  1.9727  0.0901
 1366TIP3    H225590   4.309   5.401   5.568  0.7235 -0.4805  1.2022
 1367TIP3   OH225591   6.434   4.202  16.101  0.3123 -0.0145  0.0925
 1367TIP3    H125592   6.427   4.142  16.026  0.5960  1.3947 -1.0853
 1367TIP3    H225593   6.451   4.145  16.176 -3.8356 -1.8742 -0.2107
 1368TIP3   OH225594   1.483   0.157  12.759 -0.0397  0.9429 -0.0983
 1368TIP3    H125595   1.525   0.116  12.683 -0.9799  1.2635 -0.7997
 1368TIP3    H225596   1.412   0.209  12.722 -1.5126 -0.1484  1.1118
 1369TIP3   OH225597   3.797   6.006   3.710  0.0844 -0.0494 -0.1745
 1369TIP3    H125598   3.768   5.920   3.740 -2.4323  1.2297  1.2703
 1369TIP3    H225599   3.753   6.018   3.626 -0.6138  0.3317  0.2365
 1370TIP3   OH225600   2.676   2.137  14.013 -0.1914  0.1175 -0.1426
 1370TIP3    H125601   2.625   2.203  14.059  1.8891  1.3399  0.4905
 1370TIP3    H225602   2.682   2.170  13.923 -0.9708 -0.3154 -0.3597
 1371TIP3   OH225603   3.955   3.570  11.349  0.2514 -0.0758  0.0166
 1371TIP3    H125604   4.044   3.603  11.363  0.2270 -0.6028  1.4746
 1371TIP3    H225605   3.962   3.516  11.270  1.3623 -0.5933  0.4599
 1372TIP3   OH225606   3.795   1.320   1.430  0.1569  0.3801  0.3595
 1372TIP3    H125607   3.741   1.261   1.483  0.5470 -0.7735 -0.5034
 1372TIP3    H225608   3.739   1.344   1.356  0.5381 -0.1997 -0.1282
 1373TIP3   OH225609   1.581   4.058   0.448  0.7480 -0.2427 -0.3427
 1373TIP3    H125610   1.496   4.087   0.481  1.3660  0.6220  0.4975
 1373TIP3    H225611   1.621   4.136   0.410  1.0245 -0.7247 -1.0607
 1374TIP3   OH225612   6.074   4.857   1.956 -0.2387 -0.1679  0.3212
 1374TIP3    H125613   6.021   4.869   1.877  1.3150 -1.3315 -0.9325
 1374TIP3    H225614   6.113   4.771   1.946  2.0375  0.7308  1.1379
 1375TIP3   OH225615   3.874   3.866   3.248 -0.3539  0.2448  0.9785
 1375TIP3    H125616   3.828   3.789   3.213  0.6314  0.7217 -1.3949
 1375TIP3    H225617   3.938   3.889   3.181 -1.0369  3.5285  1.3866
 1376TIP3   OH225618   4.488   3.505  12.586 -0.2453  0.0931  0.0440
 1376TIP3    H125619   4.471   3.431  12.646 -2.2744  1.1012  0.7597
 1376TIP3    H225620   4.406   3.555  12.587  0.8852  1.9788 -0.9742
 1377TIP3   OH225621   0.116   1.353   1.488 -0.1576 -0.3778  0.4091
 1377TIP3    H125622   0.154   1.434   1.521 -0.1517 -0.2235  0.0267
 1377TIP3    H225623   0.125   1.291   1.560  0.5378 -0.2565  0.4355
 1378TIP3   OH225624   1.965   5.478   3.377 -0.5166 -0.5161  0.1654
 1378TIP3    H125625   1.952   5.402   3.434 -1.4549  1.4036  2.5844
 1378TIP3    H225626   2.025   5.446   3.309  0.2776 -3.0054  1.9365
 1379TIP3   OH225627   5.329   3.175  12.436 -0.2592  0.4278 -0.0819
 1379TIP3    H125628   5.376   3.255  12.411 -0.3575  0.4425 -0.2152
 1379TIP3    H225629   5.393   3.105  12.425  0.4095  0.7052  1.7920
 1380TIP3   OH225630   4.650   5.903  11.305 -0.0356  0.1683  0.7473
 1380TIP3    H125631   4.628   5.810  11.297  2.3401 -0.3258 -0.5268
 1380TIP3    H225632   4.708   5.908  11.381  0.7539  0.4009  0.1462
 1381TIP3   OH225633   6.068   2.244   0.210 -0.4240  0.3544  0.3062
 1381TIP3    H125634   6.124   2.263   0.135  1.2408  0.1009  1.4756
 1381TIP3    H225635   5.990   2.297   0.195  0.1183  0.7124 -1.3309
 1382TIP3   OH225636   6.338   0.112   3.711  0.2724 -0.4329  0.0004
 1382TIP3    H125637   6.345   0.018   3.727  2.1961 -0.1171  1.1637
 1382TIP3    H225638   6.425   0.138   3.682  0.4357  1.4192  2.0476
 1383TIP3   OH225639   2.710   6.693   6.500  0.3947  0.3878  0.6300
 1383TIP3    H125640   2.795   6.679   6.458 -0.2913  1.2245 -1.0668
 1383TIP3    H225641   2.668   6.607   6.496  0.0632  0.6085 -1.0385
 1384TIP3   OH225642   0.683   6.702   3.147  0.6628 -0.9706 -0.4701
 1384TIP3    H125643   0.640   6.666   3.225  1.8321  0.6929  0.9749
 1384TIP3    H225644   0.626   6.676   3.074 -0.7719 -2.0339  0.9852
 1385TIP3   OH225645   3.852   0.214   5.296  0.2269 -0.3324 -0.0847
 1385TIP3    H125646   3.868   0.172   5.381  0.5510 -0.1952 -0.0785
 1385TIP3    H225647   3.757   0.214   5.287  0.1938 -0.3956  0.2552
 1386TIP3   OH225648   0.955   0.531  16.348  0.3469  0.1148 -0.6669
 1386TIP3    H125649   0.876   0.528  16.293  1.4062  1.1949 -2.2854
 1386TIP3    H225650   0.947   0.455  16.405 -0.5027 -1.3685 -2.6909
 1387TIP3   OH225651   5.376   5.296  16.950 -0.2036  0.2388  0.0152
 1387TIP3    H125652   5.302   5.318  17.007  0.1238 -0.6202  0.7925
 1387TIP3    H225653   5.337   5.250  16.876 -0.5375  0.5833 -0.0243
 1388TIP3   OH225654   6.294   6.502  12.961 -0.1116  0.1500  0.2558
 1388TIP3    H125655   6.229   6.569  12.939  0.3115  0.5120  0.1171
 1388TIP3    H225656   6.375   6.551  12.977  0.3202 -0.3718 -0.3204
 1389TIP3   OH225657   5.669   6.407   4.056 -0.1668  0.6516 -0.3151
 1389TIP3    H125658   5.591   6.376   4.010  1.1566 -2.2798 -0.7078
 1389TIP3    H225659   5.742   6.380   4.000  1.2671  0.7893  1.4441
 1390TIP3   OH225660   3.053   5.435  17.235 -0.0277 -0.5070  0.1273
 1390TIP3    H125661   3.042   5.389  17.318 -0.6525 -1.7928 -0.6635
 1390TIP3    H225662   2.995   5.511  17.242  1.4160  0.5010  1.6477
 1391TIP3   OH225663   5.410   2.447   1.790 -0.3215  0.0197 -0.5537
 1391TIP3    H125664   5.467   2.492   1.853 -0.8538 -1.0404  0.7105
 1391TIP3    H225665   5.469   2.417   1.721  0.5135 -0.2676  0.2843
 1392TIP3   OH225666   0.115   3.958  13.154  0.1950  0.4003 -0.1989
 1392TIP3    H125667   0.035   4.009  13.139 -1.4199 -1.1483  2.7335
 1392TIP3    H225668   0.096   3.906  13.232  3.8855 -0.4268  0.2447
 1393TIP3   OH225669   5.788   0.687   3.010 -0.0171  0.2428 -0.3118
 1393TIP3    H125670   5.789   0.593   3.029 -0.2243  0.4382  0.6677
 1393TIP3    H225671   5.821   0.693   2.920  4.0173 -0.4411  1.0284
 1394TIP3   OH225672   1.425   4.875  13.788  0.8612 -0.1275  0.4028
 1394TIP3    H125673   1.395   4.951  13.738 -1.4788 -1.1326  0.1889
 1394TIP3    H225674   1.468   4.819  13.724 -0.9924 -0.8168 -0.2957
 1395TIP3   OH225675   4.398   2.499  13.766  0.0848 -0.5894  0.2736
 1395TIP3    H125676   4.370   2.545  13.687  1.2546  0.6571  0.5542
 1395TIP3    H225677   4.485   2.466  13.745  1.4261  1.7750  1.7775
 1396TIP3   OH225678   2.814   1.962  15.897 -0.4172  0.0865  0.0601
 1396TIP3    H125679   2.836   1.971  15.805 -1.2937  0.1508 -0.1530
 1396TIP3    H225680   2.787   1.871  15.907 -1.1218  0.2888  0.0654
 1397TIP3   OH225681   1.328   3.058   3.680 -0.4003 -0.6701 -0.3237
 1397TIP3    H125682   1.310   3.041   3.588 -2.3276 -0.2101 -0.0514
 1397TIP3    H225683   1.387   3.133   3.680 -0.4923 -0.5997 -1.1815
 1398TIP3   OH225684   1.535   0.904   5.731  0.4103 -0.5966 -0.1321
 1398TIP3    H125685   1.493   0.988   5.747  0.0229 -0.7616 -0.2571
 1398TIP3    H225686   1.462   0.844   5.714  0.6958 -0.8946 -0.3209
 1399TIP3   OH225687   0.327   0.390  14.124  0.5876  0.5775  0.3817
 1399TIP3    H125688   0.368   0.304  14.130  0.8553  0.6190 -0.7870
 1399TIP3    H225689   0.306   0.413  14.215  0.3527 -0.7898  0.6832
 1400TIP3   OH225690   4.845   0.475   3.216 -0.9281  0.2378  0.1861
 1400TIP3    H125691   4.928   0.439   3.249 -1.8613 -0.9984  1.2162
 1400TIP3    H225692   4.871   0.533   3.145  0.6528 -2.0665 -1.1735
 1401TIP3   OH225693   1.506   2.467  17.219  0.3199 -0.5721  0.3130
 1401TIP3    H125694   1.576   2.402  17.223  0.0708 -0.8002  1.2996
 1401TIP3    H225695   1.426   2.416  17.230  0.1932  0.0063  2.2842
 1402TIP3   OH225696   4.825   6.497   0.858 -0.2690 -0.1789  0.3083
 1402TIP3    H125697   4.909   6.471   0.895  0.5918  1.2040 -0.6251
 1402TIP3    H225698   4.814   6.589   0.884 -2.7696 -1.0696  2.6766
 1403TIP3   OH225699   6.542   3.761  16.641  0.3664 -0.4288 -0.8239
 1403TIP3    H125700   6.602   3.783  16.570  2.0609  0.1317  0.7742
 1403TIP3    H225701   6.482   3.697  16.602  1.7838 -0.7446 -2.5281
 1404TIP3   OH225702   2.039   0.801   5.539 -0.0157 -0.8143  0.4530
 1404TIP3    H125703   1.961   0.845   5.504  0.7337  0.9503  0.9579
 1404TIP3    H225704   2.064   0.853   5.615  2.8947 -0.0821 -0.9151
 1405TIP3   OH225705   6.641   2.439  13.024 -0.2655 -0.1154  0.0727
 1405TIP3    H125706   6.552   2.414  13.048  0.3295 -0.0823  2.3625
 1405TIP3    H225707   6.687   2.355  13.015 -0.7619 -0.1828 -2.1827
 1406TIP3   OH225708   2.486   3.094   1.142 -0.1731  0.0682  0.1346
 1406TIP3    H125709   2.474   3.107   1.236  0.7797  0.8138  0.1567
 1406TIP3    H225710   2.568   3.045   1.135 -0.7986 -0.9539 -0.2634
 1407TIP3   OH225711   1.518   0.399  14.110 -0.1787  0.5557  0.4663
 1407TIP3    H125712   1.450   0.392  14.176 -1.5213 -1.6131 -1.0713
 1407TIP3    H225713   1.547   0.309  14.095  2.0517  1.2904  0.0880
 1408TIP3   OH225714   2.275   1.314   5.245 -0.2747 -0.5833  0.0007
 1408TIP3    H125715   2.233   1.238   5.204  0.7500 -0.7046 -0.8636
 1408TIP3    H225716   2.205   1.357   5.294 -0.2548 -3.6924  2.9443
 1409TIP3   OH225717   2.222   4.181  16.793  0.3878  0.2007  0.4302
 1409TIP3    H125718   2.168   4.257  16.772  1.1851  0.5987 -0.2278
 1409TIP3    H225719   2.196   4.157  16.882 -0.4616  0.7362  0.3300
 1410TIP3   OH225720   4.153   5.601   5.001 -0.5600 -0.0923 -0.0997
 1410TIP3    H125721   4.166   5.667   5.070 -0.6480  0.7611 -0.8961
 1410TIP3    H225722   4.107   5.647   4.932  1.5428 -0.3186 -1.6991
 1411TIP3   OH225723   1.807   6.144   2.339  0.2059 -0.2761 -0.1658
 1411TIP3    H125724   1.769   6.167   2.255 -0.5084 -0.0027  0.2302
 1411TIP3    H225725   1.880   6.205   2.350  0.6488 -0.6760 -0.8347
 1412TIP3   OH225726   5.335   5.542  15.496 -0.4182 -0.3036 -0.1300
 1412TIP3    H125727   5.395   5.482  15.539 -1.8094 -1.0504  0.8293
 1412TIP3    H225728   5.386   5.581  15.425  2.0716  1.3088  2.4500
 1413TIP3   OH225729   4.824   3.422   1.217  0.1693 -0.3515  0.1000
 1413TIP3    H125730   4.759   3.352   1.214 -0.4923  0.2090  1.0598
 1413TIP3    H225731   4.843   3.442   1.125 -3.0424  1.3444 -0.2610
 1414TIP3   OH225732   2.247   6.218   3.682  0.0289 -0.1599  0.1757
 1414TIP3    H125733   2.306   6.203   3.755  0.4797  0.3586 -0.0747
 1414TIP3    H225734   2.174   6.159   3.697  1.2766 -1.8504 -0.2640
 1415TIP3   OH225735   5.973   1.961   1.384 -0.4279 -0.7070  0.0200
 1415TIP3    H125736   5.984   2.001   1.298  0.7619 -1.5872 -0.2388
 1415TIP3    H225737   5.900   1.900   1.374 -1.3843  0.4126  0.0761
 1416TIP3   OH225738   6.261   4.855   1.608  0.4573  0.8222 -0.3587
 1416TIP3    H125739   6.303   4.823   1.528 -1.4510 -0.7527 -0.7504
 1416TIP3    H225740   6.334   4.884   1.663  1.8560  0.9864 -2.2430
 1417TIP3   OH225741   6.092   0.704  16.153  0.0783 -0.4787 -0.3294
 1417TIP3    H125742   6.100   0.697  16.248 -1.2774 -2.0690 -0.3242
 1417TIP3    H225743   6.076   0.615  16.123  2.4687 -0.3258 -2.2791
 1418TIP3   OH225744   1.829   3.268   5.690  0.3540  0.3303  0.3548
 1418TIP3    H125745   1.843   3.219   5.770  1.5646 -0.5862 -0.3948
 1418TIP3    H225746   1.836   3.360   5.716  1.6732  0.0146  1.1387
 1419TIP3   OH225747   4.116   2.911  14.501 -0.1370 -0.0913  0.3917
 1419TIP3    H125748   4.075   2.929  14.417  1.8883  2.6628 -0.1117
 1419TIP3    H225749   4.061   2.956  14.565 -2.1553 -2.8918  0.7163
 1420TIP3   OH225750   4.777   6.652   3.251  0.0919  0.2021  0.0544
 1420TIP3    H125751   4.860   6.614   3.282  0.5463  1.8960  0.9237
 1420TIP3    H225752   4.793   6.671   3.158  0.7121  0.6187  0.2452
 1421TIP3   OH225753   3.317   5.132  16.682  0.3663 -0.3175 -0.3771
 1421TIP3    H125754   3.341   5.193  16.613  1.2903 -0.4038 -0.1281
 1421TIP3    H225755   3.399   5.091  16.708  0.0261 -0.2867  0.7702
 1422TIP3   OH225756   4.835   5.021  16.866  0.2210 -0.2302  0.1060
 1422TIP3    H125757   4.879   4.970  16.799 -0.1651  0.5704 -0.7613
 1422TIP3    H225758   4.742   5.004  16.851  0.1654 -0.8297  1.0663
 1423TIP3   OH225759   0.622   4.506   1.869 -0.2757  0.4868  0.0991
 1423TIP3    H125760   0.576   4.424   1.886 -0.6830  1.3181  3.2425
 1423TIP3    H225761   0.709   4.493   1.907 -0.3858  1.5574  0.7337
 1424TIP3   OH225762   1.327   3.938   3.467 -0.1284 -0.0176 -0.0656
 1424TIP3    H125763   1.284   3.854   3.479 -0.2641  0.1153  0.3763
 1424TIP3    H225764   1.320   3.981   3.552 -0.1051  0.4619 -0.3077
 1425TIP3   OH225765   5.737   3.380  15.979 -0.3955  0.6546 -0.2217
 1425TIP3    H125766   5.780   3.463  15.959 -0.0078  0.5220  0.0717
 1425TIP3    H225767   5.643   3.400  15.974 -0.3021  1.0707 -0.3080
 1426TIP3   OH225768   6.609   4.120   0.092  0.4237  0.3338  0.4510
 1426TIP3    H125769   6.679   4.185   0.092 -0.4206  1.2620 -1.1286
 1426TIP3    H225770   6.573   4.123   0.004 -1.4922 -0.2672  1.1854
 1427TIP3   OH225771   3.267   6.799  11.970 -0.0910 -0.1784  0.3709
 1427TIP3    H125772   3.239   6.741  12.041 -1.4024 -0.1477 -0.0966
 1427TIP3    H225773   3.305   6.741  11.905 -3.7722 -0.9077 -1.2672
 1428TIP3   OH225774   6.639   4.783  12.954  0.3447  0.2863  0.0761
 1428TIP3    H125775   6.645   4.736  12.871  0.5576 -0.0502  0.2815
 1428TIP3    H225776   6.643   4.715  13.021  1.1831  0.6395  0.3923
 1429TIP3   OH225777   1.723   1.595  16.083 -0.8225 -0.7856 -0.4097
 1429TIP3    H125778   1.793   1.606  16.147 -0.9643 -0.7622 -0.2607
 1429TIP3    H225779   1.679   1.679  16.080 -1.1819 -0.9631 -0.1109
 1430TIP3   OH225780   0.770   2.714   3.463  0.8750  0.1095  0.5806
 1430TIP3    H125781   0.717   2.772   3.518 -0.9286  0.2671 -1.2395
 1430TIP3    H225782   0.773   2.759   3.378  1.5636 -1.2722 -0.1360
 1431TIP3   OH225783   1.841   2.531   4.524 -0.7529  0.1822 -0.2928
 1431TIP3    H125784   1.914   2.491   4.477 -1.1993  1.4242 -2.0762
 1431TIP3    H225785   1.870   2.620   4.544 -1.4047  0.3658 -0.1281
 1432TIP3   OH225786   0.438   5.861   2.951  0.0119  0.1395 -0.2784
 1432TIP3    H125787   0.394   5.918   3.014 -0.7836 -0.1192 -0.6009
 1432TIP3    H225788   0.368   5.829   2.894  0.5826 -0.4562 -0.6484
 1433TIP3   OH225789   6.330   1.296  13.930  0.3107 -0.2849 -0.1903
 1433TIP3    H125790   6.322   1.222  13.870 -0.4707  0.5387 -1.1254
 1433TIP3    H225791   6.399   1.270  13.991 -0.5966 -2.1733  0.0661
 1434TIP3   OH225792   1.468   0.216  16.448 -0.2106 -0.3524  0.1672
 1434TIP3    H125793   1.469   0.189  16.356 -2.6452 -1.4106  0.4066
 1434TIP3    H225794   1.494   0.307  16.447  1.4317 -0.8212 -1.4046
 1435TIP3   OH225795   5.762   5.406  14.483 -0.4137  0.3756 -0.1432
 1435TIP3    H125796   5.777   5.340  14.416 -2.3523 -0.6241  0.3596
 1435TIP3    H225797   5.756   5.489  14.435  0.4766 -0.0006 -0.9334
 1436TIP3   OH225798   2.669   6.027  12.347  0.9138 -0.7782 -0.1065
 1436TIP3    H125799   2.690   6.078  12.269 -1.0244  0.8812  0.3990
 1436TIP3    H225800   2.754   6.002  12.383  1.8259 -1.1981 -2.5006
 1437TIP3   OH225801   6.023   3.341   0.908  0.0873 -0.1855  0.2032
 1437TIP3    H125802   6.080   3.407   0.948 -0.8761  0.1680  1.0375
 1437TIP3    H225803   6.007   3.373   0.819  1.7086 -0.6255 -0.2572
 1438TIP3   OH225804   0.077   1.723   2.119 -0.3376  0.3726 -0.0771
 1438TIP3    H125805   0.120   1.808   2.114 -2.3932  1.5757  1.5212
 1438TIP3    H225806   0.004   1.737   2.180 -1.4566 -2.2119 -0.7485
 1439TIP3   OH225807   4.056   4.039  11.804 -0.6094 -0.5848  0.0578
 1439TIP3    H125808   3.975   4.073  11.842 -0.7643 -1.1627  0.2511
 1439TIP3    H225809   4.060   3.948  11.833 -0.1615 -0.7133 -0.3902
 1440TIP3   OH225810   5.719   3.879   6.948 -0.2436  0.1250  0.2167
 1440TIP3    H125811   5.687   3.809   6.891  1.0571  1.3346 -2.0523
 1440TIP3    H225812   5.701   3.959   6.899 -0.8313  1.3301  2.3579
 1441TIP3   OH225813   4.993   5.977  15.437  0.2480 -0.0656  0.1911
 1441TIP3    H125814   5.084   6.006  15.433 -0.1320  0.9424 -1.9135
 1441TIP3    H225815   4.998   5.888  15.470  1.8994  0.3924  1.2650
 1442TIP3   OH225816   3.134   5.280   2.254  0.1071 -0.0687  0.5254
 1442TIP3    H125817   3.120   5.188   2.278  3.0417 -0.7920 -0.3126
 1442TIP3    H225818   3.137   5.327   2.337  1.0396 -1.1250  1.0915
 1443TIP3   OH225819   4.094   2.425  15.205 -0.0491  0.7963  0.0636
 1443TIP3    H125820   4.068   2.505  15.158 -0.4322 -0.2648 -1.5654
 1443TIP3    H225821   4.049   2.432  15.289 -1.3343  1.5714 -0.6534
 1444TIP3   OH225822   5.953   4.852   1.714 -0.3433 -0.3838 -0.1326
 1444TIP3    H125823   5.901   4.882   1.640 -0.6538 -2.4785 -0.7886
 1444TIP3    H225824   5.997   4.773   1.682  1.6491  0.2211  1.0577
 1445TIP3   OH225825   3.838   2.018  11.983  0.7249 -0.2668  0.0965
 1445TIP3    H125826   3.842   1.923  11.983 -1.5183 -0.3788  0.4552
 1445TIP3    H225827   3.885   2.044  11.903 -0.1931 -1.7459 -0.9392
 1446TIP3   OH225828   6.587   6.041   4.660  0.4861 -0.8331 -0.3107
 1446TIP3    H125829   6.594   6.132   4.630 -1.0390 -0.9748 -1.0956
 1446TIP3    H225830   6.650   6.036   4.732  0.4832  0.8895 -0.1580
 1447TIP3   OH225831   5.354   3.539  12.744 -0.1083 -0.3186  0.4034
 1447TIP3    H125832   5.419   3.523  12.675 -0.9231  3.2255 -1.3376
 1447TIP3    H225833   5.291   3.468  12.734  0.4354 -0.5609 -1.7307
 1448TIP3   OH225834   4.476   3.603  15.531  0.3352  0.4444  0.0302
 1448TIP3    H125835   4.470   3.519  15.486  2.0769  0.2137  0.2050
 1448TIP3    H225836   4.441   3.666  15.468  0.4219 -0.2057 -0.6828
 1449TIP3   OH225837   0.366   2.590   6.250 -0.0399 -0.4657 -0.3677
 1449TIP3    H125838   0.305   2.637   6.193 -0.1929 -1.0135 -0.6560
 1449TIP3    H225839   0.314   2.522   6.290 -0.0186  0.1472  0.7188
 1450TIP3   OH225840   0.071   3.658   4.227  0.2255 -0.5812  0.6091
 1450TIP3    H125841  -0.002   3.659   4.289  0.3243  1.5481  0.7045
 1450TIP3    H225842   0.126   3.732   4.252  1.3465 -0.9276 -0.7427
 1451TIP3   OH225843   1.053   4.952   2.888  0.0572  0.0264 -0.1008
 1451TIP3    H125844   1.063   4.862   2.857 -1.8350  0.1761 -1.2599
 1451TIP3    H225845   1.140   4.991   2.877  0.7614 -1.4978 -0.0842
 1452TIP3   OH225846   1.582   0.304  10.831  0.1474  0.1657 -0.4544
 1452TIP3    H125847   1.652   0.367  10.811 -0.0795  0.8576  0.8888
 1452TIP3    H225848   1.526   0.306  10.753 -1.0990  3.3289  0.4400
 1453TIP3   OH225849   5.149   3.229  12.629  0.1279 -0.2686  0.4484
 1453TIP3    H125850   5.160   3.153  12.686  0.0468  0.4148  1.3826
 1453TIP3    H225851   5.223   3.225  12.569 -0.3462 -1.5647 -0.0629
 1454TIP3   OH225852   6.460   4.746   5.584 -0.1749  0.1081  0.2003
 1454TIP3    H125853   6.402   4.821   5.596  1.0845  0.8173  2.0860
 1454TIP3    H225854   6.547   4.785   5.572  0.0951 -0.9763 -1.4500
 1455TIP3   OH225855   5.574   1.549  12.063 -0.0721 -0.3131 -0.4726
 1455TIP3    H125856   5.609   1.618  12.120 -2.8278  0.9355 -0.1714
 1455TIP3    H225857   5.646   1.526  12.005  1.8486  0.6242  1.4684
 1456TIP3   OH225858   3.490   2.863   4.733  0.8188 -0.0998 -0.6059
 1456TIP3    H125859   3.560   2.860   4.668 -0.3866 -1.7267 -1.8484
 1456TIP3    H225860   3.409   2.871   4.682 -0.2117 -2.2669  0.6331
 1457TIP3   OH225861   3.203   5.280  13.092  0.6543 -0.3997 -0.0396
 1457TIP3    H125862   3.248   5.195  13.082  1.0697 -0.1780 -0.0802
 1457TIP3    H225863   3.175   5.303  13.004 -1.2936 -1.4873  0.2794
 1458TIP3   OH225864   6.419   5.494  13.833  0.5571  0.6717 -0.0711
 1458TIP3    H125865   6.350   5.478  13.898 -0.9095 -0.8684 -1.9025
 1458TIP3    H225866   6.453   5.580  13.854 -1.9923  1.5025  0.8925
 1459TIP3   OH225867   1.239   2.602  17.114  0.0127  0.7491 -0.3500
 1459TIP3    H125868   1.315   2.548  17.094  1.4182  2.8950 -0.9673
 1459TIP3    H225869   1.220   2.648  17.033  0.0271  2.6086  0.6698
 1460TIP3   OH225870   1.865   4.604  16.051  0.2044 -0.2853 -0.1436
 1460TIP3    H125871   1.908   4.519  16.040 -0.8390 -0.7428 -0.7900
 1460TIP3    H225872   1.783   4.584  16.096 -0.0266  0.3826 -0.2605
 1461TIP3   OH225873   4.188   5.617  16.946 -0.0445  0.7528 -0.5292
 1461TIP3    H125874   4.184   5.660  17.032  1.3100  1.8755 -1.0153
 1461TIP3    H225875   4.137   5.537  16.958  3.4434 -1.1511  2.5494
 1462TIP3   OH225876   0.595   5.964   1.525  0.1085 -0.0725 -0.1974
 1462TIP3    H125877   0.691   5.971   1.518  0.2549 -0.3028  1.3441
 1462TIP3    H225878   0.579   5.964   1.619 -1.3910 -0.4607 -0.4536
 1463TIP3   OH225879   4.275   1.210  12.466  0.0225 -0.4923  0.2958
 1463TIP3    H125880   4.337   1.142  12.493  0.4165 -0.6322 -0.9484
 1463TIP3    H225881   4.290   1.282  12.528  1.0765 -0.7288  0.3234
 1464TIP3   OH225882   0.624   5.487  15.584  0.1137 -0.7248 -0.2718
 1464TIP3    H125883   0.653   5.578  15.577  1.0731 -0.8558  1.7072
 1464TIP3    H225884   0.702   5.439  15.612 -1.1919 -1.6069  1.9372
 1465TIP3   OH225885   0.936   2.117   2.197 -0.3545  0.6545 -0.1834
 1465TIP3    H125886   0.993   2.067   2.256  0.2554  1.3026 -0.2118
 1465TIP3    H225887   0.850   2.079   2.209  0.1459 -0.5616 -0.3804
 1466TIP3   OH225888   5.957   4.671  15.979  0.2382  0.4117 -0.0713
 1466TIP3    H125889   5.915   4.757  15.973 -0.8374 -0.1108 -0.1315
 1466TIP3    H225890   5.997   4.669  16.066 -0.2387  0.7430  0.1529
 1467TIP3   OH225891   0.347   4.285  12.105 -0.4647  0.1697 -0.2107
 1467TIP3    H125892   0.317   4.294  12.014  0.2510 -1.3344 -0.6163
 1467TIP3    H225893   0.433   4.325  12.106  0.2917 -1.4237 -0.6381
 1468TIP3   OH225894   1.489   0.998  13.201 -0.0872  0.5612 -0.0268
 1468TIP3    H125895   1.468   1.090  13.218  0.6481  0.7412 -0.0874
 1468TIP3    H225896   1.552   0.975  13.270 -1.4082 -0.3252  0.9004
 1469TIP3   OH225897   1.799   5.528  10.437  0.2881 -0.2337  0.6100
 1469TIP3    H125898   1.803   5.621  10.455  0.1391  0.1230 -1.1158
 1469TIP3    H225899   1.724   5.497  10.487  0.5212  0.5066  1.4297
 1470TIP3   OH225900   3.524   5.168  12.419 -0.2939  0.0366 -0.0501
 1470TIP3    H125901   3.449   5.110  12.433 -0.5445  0.1612 -0.8496
 1470TIP3    H225902   3.485   5.254  12.404  0.0875  0.4685  1.3718
 1471TIP3   OH225903   5.025   6.766  17.131  0.3797 -0.7751  0.1473
 1471TIP3    H125904   5.074   6.741  17.209 -0.8999 -0.6941  0.9867
 1471TIP3    H225905   4.956   6.700  17.123 -1.1601  0.7306  0.6454
 1472TIP3   OH225906   3.117   4.974  15.373  0.0242 -0.6881 -0.0045
 1472TIP3    H125907   3.074   4.892  15.350  0.1956 -0.6920 -0.3110
 1472TIP3    H225908   3.208   4.949  15.390  0.6785 -0.1610 -2.6299
 1473TIP3   OH225909   3.258   4.336  11.447  1.0529  0.2925  0.0521
 1473TIP3    H125910   3.249   4.241  11.455  0.4066  0.4754  1.6079
 1473TIP3    H225911   3.347   4.355  11.478  0.6373  0.3512  1.2362
 1474TIP3   OH225912   1.084   3.486   1.429  0.2884  0.5136 -0.4255
 1474TIP3    H125913   1.047   3.414   1.377 -0.0338 -0.6772  1.3865
 1474TIP3    H225914   1.008   3.538   1.454  0.1146 -0.4212  1.0536
 1475TIP3   OH225915   0.712   2.719   3.858  0.0759  0.3468 -0.7846
 1475TIP3    H125916   0.626   2.725   3.899  1.2142 -1.8690  2.0757
 1475TIP3    H225917   0.715   2.793   3.797 -3.1396  1.4889  0.3602
 1476TIP3   OH225918   5.628   2.057  13.306 -0.1131  0.8003  0.6567
 1476TIP3    H125919   5.712   2.021  13.277  0.0819  1.6720  0.1386
 1476TIP3    H225920   5.620   2.140  13.260 -0.8675  1.1236  1.3556
 1477TIP3   OH225921   1.907   2.777  14.035 -0.1004 -0.1224 -0.0289
 1477TIP3    H125922   1.861   2.722  14.097 -0.3452  0.5216  0.3689
 1477TIP3    H225923   1.925   2.858  14.083 -1.3741  0.8592 -1.1549
 1478TIP3   OH225924   0.522   1.681   2.500 -0.0807 -0.1319  0.1794
 1478TIP3    H125925   0.451   1.740   2.525 -0.9911 -0.9965 -0.2932
 1478TIP3    H225926   0.595   1.738   2.477 -0.7605  0.7888  0.2923
 1479TIP3   OH225927   1.970   6.438  13.317  0.6320 -0.3444  0.2106
 1479TIP3    H125928   1.893   6.495  13.327 -0.0492 -1.2286  0.0888
 1479TIP3    H225929   1.983   6.400  13.404  1.1445  0.0573  0.3133
 1480TIP3   OH225930   5.766   5.021   4.610  0.2235  0.0746  0.0521
 1480TIP3    H125931   5.672   5.038   4.612  0.0994 -0.6406  0.4801
 1480TIP3    H225932   5.806   5.103   4.640 -0.2511  0.4688 -0.3852
 1481TIP3   OH225933   6.115   3.389   2.777 -0.3500  0.7315  0.5631
 1481TIP3    H125934   6.156   3.379   2.690  3.1368  0.2030  2.1782
 1481TIP3    H225935   6.113   3.483   2.792 -2.4401  0.9172 -0.7236
 1482TIP3   OH225936   0.538   5.640   2.345 -0.4003 -0.1845 -0.1101
 1482TIP3    H125937   0.626   5.674   2.362 -0.1968 -0.1690 -1.1781
 1482TIP3    H225938   0.507   5.610   2.431  0.3627  0.4660  0.3991
 1483TIP3   OH225939   3.255   4.292  16.700 -0.1603  0.6268  0.6818
 1483TIP3    H125940   3.299   4.377  16.697 -0.7075  0.8950  0.1145
 1483TIP3    H225941   3.172   4.309  16.745 -0.8807  0.6730 -0.6609
 1484TIP3   OH225942   3.587   0.196   5.348  0.0758  0.1095 -0.4166
 1484TIP3    H125943   3.582   0.100   5.352  1.1170  0.0587 -0.3615
 1484TIP3    H225944   3.498   0.223   5.325 -0.4043 -0.8282  0.3071
 1485TIP3   OH225945   2.983   6.668   0.246  0.1513  0.0564  0.2514
 1485TIP3    H125946   3.018   6.685   0.159 -0.7298 -3.1497 -0.8034
 1485TIP3    H225947   2.929   6.590   0.236 -2.5988  1.4501  3.0365
 1486TIP3   OH225948   0.618   5.928  14.787 -0.3174  0.3450 -0.4237
 1486TIP3    H125949   0.590   5.841  14.758  0.6145  0.3039 -1.2382
 1486TIP3    H225950   0.537   5.974  14.807 -0.8135 -0.7918  0.2694
 1487TIP3   OH225951   1.874   4.588   5.701 -0.2468 -0.7388  0.7113
 1487TIP3    H125952   1.839   4.549   5.781 -0.7829 -1.1595  0.2741
 1487TIP3    H225953   1.937   4.523   5.669 -0.2609 -0.7114  0.6278
 1488TIP3   OH225954   2.403   6.342  16.516  0.4011  0.1628  0.0968
 1488TIP3    H125955   2.433   6.316  16.430  0.4315  3.2292 -0.8933
 1488TIP3    H225956   2.472   6.314  16.576  1.1148 -0.5667 -1.0586
 1489TIP3   OH225957   1.842   2.606   5.957  0.3995  0.0012 -0.1876
 1489TIP3    H125958   1.762   2.554   5.962 -0.7938  1.8062  0.0584
 1489TIP3    H225959   1.913   2.543   5.971 -1.0518 -1.3815  1.1486
 1490TIP3   OH225960   5.528   2.769  13.685  0.5988  0.3796  0.5407
 1490TIP3    H125961   5.593   2.769  13.614  0.3650  1.1919  0.3213
 1490TIP3    H225962   5.519   2.677  13.709 -0.1862 -0.0371 -1.2702
 1491TIP3   OH225963   2.635   1.679  14.775  0.1149 -0.1002  0.1289
 1491TIP3    H125964   2.546   1.694  14.805 -0.6171 -0.5096 -1.7405
 1491TIP3    H225965   2.684   1.755  14.804 -1.3167  1.1298 -0.6221
 1492TIP3   OH225966   5.222   3.083  16.426  0.6163  0.5461 -0.2081
 1492TIP3    H125967   5.239   3.176  16.442 -1.9500  0.4720  3.4084
 1492TIP3    H225968   5.128   3.078  16.408  0.8791 -1.2761 -1.1747
 1493TIP3   OH225969   1.509   6.240  15.485 -0.6171  0.1433 -0.0945
 1493TIP3    H125970   1.424   6.264  15.523  0.0541  2.6560 -0.1382
 1493TIP3    H225971   1.496   6.247  15.390 -0.9514 -1.5957 -0.2005
 1494TIP3   OH225972   4.459   0.256  16.918  0.0844  0.7855 -0.9346
 1494TIP3    H125973   4.523   0.203  16.964  0.2304  0.3116 -1.6825
 1494TIP3    H225974   4.403   0.291  16.987 -0.6873 -1.2126 -0.5141
 1495TIP3   OH225975   6.691   4.074  13.058 -0.3679  0.6234 -0.4470
 1495TIP3    H125976   6.726   4.154  13.017  1.7821  1.0557  2.0786
 1495TIP3    H225977   6.606   4.100  13.093  1.0046  2.3490  1.7806
 1496TIP3   OH225978   1.200   6.336  11.876 -0.0017  0.4138  0.4673
 1496TIP3    H125979   1.242   6.328  11.962 -0.6596 -1.3202  0.6475
 1496TIP3    H225980   1.251   6.281  11.818 -0.4201  0.4339  0.0744
 1497TIP3   OH225981   3.643   3.167  11.478 -0.0162  0.7502  0.0919
 1497TIP3    H125982   3.644   3.207  11.565 -2.4508  0.1193  0.4551
 1497TIP3    H225983   3.613   3.077  11.494  0.3749  0.3639 -1.3015
 1498TIP3   OH225984   0.907   5.287   1.465 -0.1003  0.2937  0.2736
 1498TIP3    H125985   0.946   5.227   1.402 -1.2427  0.9396 -1.0892
 1498TIP3    H225986   0.966   5.362   1.467 -0.1327  0.3318 -0.1489
 1499TIP3   OH225987   2.820   3.253   1.765 -0.0255 -0.6768 -0.1945
 1499TIP3    H125988   2.752   3.242   1.831  0.1934  2.0674  0.5482
 1499TIP3    H225989   2.793   3.329   1.714  0.4830 -1.9672 -2.4824
 1500TIP3   OH225990   4.252   2.959   4.347  0.1513 -0.2527  0.5029
 1500TIP3    H125991   4.328   2.911   4.315  0.3986 -1.1143  2.3176
 1500TIP3    H225992   4.287   3.044   4.372  0.0766  0.1896 -0.8533
 1501TIP3   OH225993   5.378   4.842  16.554 -0.5025  0.1539  0.1015
 1501TIP3    H125994   5.314   4.814  16.489 -0.2172  1.0594 -0.5817
 1501TIP3    H225995   5.331   4.908  16.606 -0.3693  0.2642  0.0820
 1502TIP3   OH225996   3.580   4.786  15.913  0.5867  0.3816 -0.0236
 1502TIP3    H125997   3.634   4.778  15.992 -0.1006 -2.5973  0.2046
 1502TIP3    H225998   3.491   4.798  15.946  0.7281  2.6077 -0.3906
 1503TIP3   OH225999   5.061   6.113   5.973  0.1753 -0.2761 -0.8003
 1503TIP3    H126000   5.129   6.170   5.937 -1.6903  0.8366 -2.6186
 1503TIP3    H226001   5.075   6.117   6.068  2.7233 -0.1969 -1.1339
 1504TIP3   OH226002   4.924   4.857  11.243  0.4555 -0.4618 -0.0329
 1504TIP3    H126003   4.866   4.870  11.169  0.3038  0.4820  0.2493
 1504TIP3    H226004   4.874   4.801  11.303 -0.0253  0.0648  0.0566
 1505TIP3   OH226005   3.144   0.069   5.374  0.2069 -0.7953 -0.1529
 1505TIP3    H126006   3.106   0.012   5.441  2.8429 -0.2712  1.9005
 1505TIP3    H226007   3.183   0.009   5.311 -0.9286 -1.2905 -0.3906
 1506TIP3   OH226008   6.159   4.095  15.706  0.0333  0.1061 -0.2198
 1506TIP3    H126009   6.212   4.018  15.685  0.4331 -0.1571  1.6769
 1506TIP3    H226010   6.081   4.086  15.652  0.4527 -1.2014 -0.6296
 1507TIP3   OH226011   0.234   6.552  13.063 -0.0749  0.1035  0.0432
 1507TIP3    H126012   0.263   6.609  13.135  1.7858 -1.8548  0.8926
 1507TIP3    H226013   0.264   6.465  13.088  0.0038 -0.7292 -2.7996
 1508TIP3   OH226014   3.342   6.680  11.084  0.0851  0.1640 -0.1578
 1508TIP3    H126015   3.335   6.775  11.070 -1.5552  0.0203 -0.4772
 1508TIP3    H226016   3.433   6.659  11.064  0.4125  1.6489 -0.2741
 1509TIP3   OH226017   6.145   4.834  13.848 -0.1430 -0.3360  0.0422
 1509TIP3    H126018   6.065   4.815  13.799 -1.6617 -1.0982  2.6996
 1509TIP3    H226019   6.210   4.853  13.781 -2.5919  0.5273 -2.1967
 1510TIP3   OH226020   3.344   0.351   4.238  0.4357  0.1267  0.2125
 1510TIP3    H126021   3.376   0.438   4.264 -1.7682  1.9140 -2.7435
 1510TIP3    H226022   3.401   0.325   4.166  1.3019 -1.0590  1.3099
 1511TIP3   OH226023   2.744   4.383  15.758  0.0172  0.1055 -0.4633
 1511TIP3    H126024   2.656   4.350  15.776  1.2013 -3.6529 -1.0557
 1511TIP3    H226025   2.787   4.386  15.844 -0.4817  1.3029 -0.2554
 1512TIP3   OH226026   0.834   5.173   0.876  0.1436 -0.2579  0.3052
 1512TIP3    H126027   0.866   5.085   0.856  1.2341  0.2308 -0.1328
 1512TIP3    H226028   0.912   5.222   0.900 -0.4849  0.5496  0.7292
 1513TIP3   OH226029   3.340   5.201   1.750  0.1084 -0.1148  0.1900
 1513TIP3    H126030   3.246   5.203   1.770 -0.1746 -1.2287 -0.9577
 1513TIP3    H226031   3.370   5.290   1.770 -2.1658  1.6838 -3.7131
 1514TIP3   OH226032   3.056   0.269   4.160  0.6573  0.1467  0.6206
 1514TIP3    H126033   3.042   0.242   4.069 -0.0003 -0.0783  0.7828
 1514TIP3    H226034   3.121   0.207   4.193  2.0495  1.2011 -0.1499
 1515TIP3   OH226035   4.030   5.081   3.030 -0.1607  0.2939 -0.3388
 1515TIP3    H126036   4.001   5.153   2.974  1.3495 -0.3013 -1.9462
 1515TIP3    H226037   4.018   5.003   2.976  1.7646 -0.2462 -0.0221
 1516TIP3   OH226038   0.322   1.602   5.639 -0.2227  0.5062  0.0498
 1516TIP3    H126039   0.324   1.526   5.582 -0.3574  0.0154  0.6914
 1516TIP3    H226040   0.414   1.618   5.661 -0.3690 -1.0026  1.9079
 1517TIP3   OH226041   2.105   3.827   1.577  0.1339 -0.1267 -0.3124
 1517TIP3    H126042   2.053   3.900   1.543  0.0048  0.1820  0.5284
 1517TIP3    H226043   2.054   3.795   1.652  1.2204  0.2649  0.6073
 1518TIP3   OH226044   2.791   6.160  12.156  0.0544 -0.4345  1.1165
 1518TIP3    H126045   2.804   6.139  12.064  0.0497  1.7472  0.5974
 1518TIP3    H226046   2.880   6.172  12.191 -0.0325  1.3071  0.7620
 1519TIP3   OH226047   3.207   5.922   5.758 -0.6068  0.1479  0.0665
 1519TIP3    H126048   3.180   5.918   5.850 -2.5833 -2.4051 -0.5643
 1519TIP3    H226049   3.165   6.001   5.724 -1.1803  0.2345  0.9684
 1520TIP3   OH226050   0.236   3.547   3.457  0.1157  0.1943 -0.2150
 1520TIP3    H126051   0.199   3.626   3.417  1.0110  1.8307  2.0471
 1520TIP3    H226052   0.162   3.488   3.469 -0.9890  1.6486  0.2137
 1521TIP3   OH226053   3.569   6.718  12.700  0.3876 -0.2601  0.2465
 1521TIP3    H126054   3.570   6.700  12.606 -1.5184 -0.9516  0.3457
 1521TIP3    H226055   3.484   6.759  12.716  0.4941 -0.5964  1.7510
 1522TIP3   OH226056   3.061   6.027  11.977 -0.2630 -0.5327 -0.4160
 1522TIP3    H126057   3.038   6.034  11.884 -2.0830 -1.5639 -0.0656
 1522TIP3    H226058   3.071   6.118  12.006 -0.2481 -0.1832 -1.4938
 1523TIP3   OH226059   2.231   3.887  13.767  0.0751 -0.6494 -0.2661
 1523TIP3    H126060   2.224   3.826  13.840  0.1181 -2.0121 -1.3811
 1523TIP3    H226061   2.224   3.832  13.688  0.5221  0.7232 -1.2929
 1524TIP3   OH226062   1.666   0.248   0.932  0.2191  0.1780  0.3080
 1524TIP3    H126063   1.591   0.245   0.872  1.2859  0.8553 -1.0890
 1524TIP3    H226064   1.670   0.160   0.969 -0.5698 -0.2039 -0.4925
 1525TIP3   OH226065   1.456   3.057  13.519  0.2235 -0.0399 -0.4928
 1525TIP3    H126066   1.456   3.149  13.545 -1.5261 -0.4097  0.9517
 1525TIP3    H226067   1.363   3.037  13.503 -0.1514 -2.9379  4.4887
 1526TIP3   OH226068   6.294   5.217  17.001  0.2360  0.3505 -0.2724
 1526TIP3    H126069   6.206   5.196  16.970  0.0149  0.3441  0.3576
 1526TIP3    H226070   6.338   5.255  16.925  0.0575 -0.7081 -0.9091
 1527TIP3   OH226071   0.875   4.016   5.283 -0.7203 -0.3026 -0.2019
 1527TIP3    H126072   0.861   3.988   5.373 -1.0997 -0.1500 -0.2085
 1527TIP3    H226073   0.901   3.937   5.236 -2.4688 -0.7953 -0.3679
 1528TIP3   OH226074   5.858   4.840  11.531  0.0755 -0.6844  0.2449
 1528TIP3    H126075   5.793   4.908  11.548  0.7754 -0.4799  2.1904
 1528TIP3    H226076   5.869   4.840  11.436 -0.7572  1.1379  0.1425
 1529TIP3   OH226077   2.460   2.884  10.796 -0.1911 -0.2884 -0.2131
 1529TIP3    H126078   2.369   2.902  10.771 -0.0676  0.8990  0.1514
 1529TIP3    H226079   2.506   2.967  10.782  0.5581 -0.5102  0.8596
 1530TIP3   OH226080   0.336   0.171  13.813  0.6661  0.3075 -0.2997
 1530TIP3    H126081   0.355   0.094  13.760 -0.5781  1.1388 -2.0092
 1530TIP3    H226082   0.253   0.150  13.856  0.1594  0.7897 -1.0188
 1531TIP3   OH226083   1.370   5.363  14.963 -0.2417  0.2119  0.7508
 1531TIP3    H126084   1.437   5.417  15.006  0.6385 -0.2891  0.0348
 1531TIP3    H226085   1.303   5.350  15.029  0.2072  1.0221  1.3709
 1532TIP3   OH226086   3.486   5.478   5.348  0.8165 -0.0501  0.1543
 1532TIP3    H126087   3.397   5.503   5.324  1.0811  1.7569  0.9932
 1532TIP3    H226088   3.522   5.437   5.268 -0.6187 -0.4213 -0.3059
 1533TIP3   OH226089   4.242   3.827   3.685  0.5577 -0.5027 -0.4740
 1533TIP3    H126090   4.311   3.883   3.721 -0.2493  0.4595 -0.4117
 1533TIP3    H226091   4.250   3.837   3.591  0.2857 -0.1312 -0.4571
 1534TIP3   OH226092   3.532   6.555   3.293 -0.3286 -0.2457 -0.2776
 1534TIP3    H126093   3.449   6.558   3.340 -0.0347 -0.1470  0.2358
 1534TIP3    H226094   3.580   6.633   3.322 -0.1588 -0.1644 -0.7624
 1535TIP3   OH226095   5.262   1.204  10.962  0.3449  0.7364  0.1695
 1535TIP3    H126096   5.281   1.145  10.888  0.1356 -2.0154  2.2088
 1535TIP3    H226097   5.193   1.261  10.930  0.0109 -0.6275 -1.6593
 1536TIP3   OH226098   4.208   0.876  16.568  0.1034 -0.3513  0.0784
 1536TIP3    H126099   4.153   0.877  16.647  0.1890 -0.0371  0.1343
 1536TIP3    H226100   4.288   0.921  16.594  0.5154 -1.0836  0.0973
 1537TIP3   OH226101   4.242   6.517  15.751  0.2209  0.6772  0.4587
 1537TIP3    H126102   4.305   6.539  15.819  2.3905  1.3244 -1.6952
 1537TIP3    H226103   4.250   6.587  15.686  0.4223 -1.4767 -1.9413
 1538TIP3   OH226104   4.122   4.084  13.569 -1.0122 -0.2738  0.1249
 1538TIP3    H126105   4.185   4.080  13.642 -0.7569  1.4554  0.0182
 1538TIP3    H226106   4.174   4.059  13.492 -0.0844  2.3738 -0.1643
 1539TIP3   OH226107   3.677   2.353   3.215  0.6892  0.0333  0.4739
 1539TIP3    H126108   3.647   2.380   3.128  0.3448 -0.2787  0.4953
 1539TIP3    H226109   3.717   2.267   3.201  2.3646  0.8241  0.2926
 1540TIP3   OH226110   6.610   0.271  10.986  0.0930  0.4986 -0.0130
 1540TIP3    H126111   6.525   0.307  10.960  0.0536 -1.1813 -2.3435
 1540TIP3    H226112   6.668   0.295  10.914  1.4722  1.0758  1.2784
 1541TIP3   OH226113   2.152   5.917   1.897  0.4898  0.5257  0.1706
 1541TIP3    H126114   2.083   5.953   1.841  0.9438 -0.4297 -1.0250
 1541TIP3    H226115   2.116   5.922   1.986 -0.6609  1.0772 -0.3162
 1542TIP3   OH226116   2.898   2.673   5.259 -0.0093 -0.1166  0.0711
 1542TIP3    H126117   2.845   2.735   5.308 -0.8994 -0.9201  0.1362
 1542TIP3    H226118   2.986   2.682   5.297 -0.0769  1.2230 -0.0520
 1543TIP3   OH226119   4.025   6.195  15.561  0.2957  0.1100 -0.0411
 1543TIP3    H126120   4.002   6.108  15.529 -3.4774  2.4213 -4.1458
 1543TIP3    H226121   4.079   6.232  15.492  2.9892  0.7098  2.2649
 1544TIP3   OH226122   6.430   4.599   1.815 -0.0367 -0.2174 -0.1614
 1544TIP3    H126123   6.488   4.625   1.887  0.7214 -1.0524 -0.4526
 1544TIP3    H226124   6.472   4.521   1.778 -2.1685 -1.7553  0.5831
 1545TIP3   OH226125   4.806   3.814  16.515 -0.0004 -0.4638  0.1284
 1545TIP3    H126126   4.816   3.843  16.606 -1.2288 -2.2630  0.8673
 1545TIP3    H226127   4.838   3.723  16.515 -0.2479 -0.5613 -1.1812
 1546TIP3   OH226128   3.588   0.256   6.082  0.0693 -0.5469 -0.2706
 1546TIP3    H126129   3.594   0.162   6.100 -0.0090 -0.8876 -1.9058
 1546TIP3    H226130   3.550   0.261   5.994  1.2090  0.9732 -0.7121
 1547TIP3   OH226131   2.476   6.670   2.127 -0.1688 -0.6602 -0.2979
 1547TIP3    H126132   2.472   6.755   2.082 -0.7687 -1.2446 -1.3931
 1547TIP3    H226133   2.462   6.690   2.219 -1.9120  0.2682 -0.7525
 1548TIP3   OH226134   0.479   2.929   6.145  0.1404  0.1187 -0.7405
 1548TIP3    H126135   0.498   2.839   6.116 -0.1730 -0.1616 -0.1035
 1548TIP3    H226136   0.461   2.920   6.239 -0.3670  0.7757 -0.7703
 1549TIP3   OH226137   5.114   4.433   5.050 -0.0599  1.1231 -0.0120
 1549TIP3    H126138   5.178   4.365   5.070 -0.9161  0.2958 -0.0128
 1549TIP3    H226139   5.056   4.393   4.985 -1.7242  1.1635  1.4203
 1550TIP3   OH226140   6.752   3.161  16.103 -0.4301 -0.1976  0.0224
 1550TIP3    H126141   6.664   3.148  16.066 -1.3315 -1.3021  2.4619
 1550TIP3    H226142   6.755   3.255  16.124  0.5898  0.7309 -3.9585
 1551TIP3   OH226143   2.037   1.354  14.879 -0.0635 -0.4189  0.5696
 1551TIP3    H126144   1.943   1.367  14.889  0.0630  0.6223  0.4484
 1551TIP3    H226145   2.066   1.315  14.962 -0.1375  1.8665  1.7027
 1552TIP3   OH226146   1.203   3.747  13.219  0.1153  0.6189 -0.2053
 1552TIP3    H126147   1.247   3.827  13.193  0.0694  0.8499  0.4138
 1552TIP3    H226148   1.134   3.734  13.153  0.8806  0.4399 -0.9683
 1553TIP3   OH226149   5.136   2.456   6.475 -0.2735  0.5254  0.0223
 1553TIP3    H126150   5.136   2.551   6.464 -0.8529  0.4088 -1.1580
 1553TIP3    H226151   5.218   2.428   6.434 -0.2490  0.4885  0.0976
 1554TIP3   OH226152   0.832   5.793   2.550 -0.0286  0.2835 -0.0508
 1554TIP3    H126153   0.837   5.864   2.485 -1.3615 -0.2413 -0.7461
 1554TIP3    H226154   0.788   5.833   2.625  0.0278  0.4446 -0.1020
 1555TIP3   OH226155   3.300   6.411  16.338 -0.6526  0.2354 -0.2600
 1555TIP3    H126156   3.270   6.423  16.428  1.3540 -0.7432  0.5613
 1555TIP3    H226157   3.240   6.345  16.301 -0.3807 -0.6904  0.9307
 1556TIP3   OH226158   0.251   4.531  12.242 -0.0701 -0.1397 -0.1717
 1556TIP3    H126159   0.299   4.513  12.161 -0.2571  0.9367 -0.5239
 1556TIP3    H226160   0.259   4.450  12.293  1.0323 -0.4170 -0.7694
 1557TIP3   OH226161   2.703   2.533  15.696 -0.0643  0.0635 -0.1308
 1557TIP3    H126162   2.748   2.610  15.663  1.7253 -0.6812  0.5078
 1557TIP3    H226163   2.625   2.567  15.740 -0.4322  1.3274 -1.7310
 1558TIP3   OH226164   5.905   1.490  15.046  0.3630  0.1809 -0.4122
 1558TIP3    H126165   5.887   1.421  15.111  0.4762  0.2369 -0.3196
 1558TIP3    H226166   5.930   1.443  14.967 -2.9830 -0.0041 -1.4330
 1559TIP3   OH226167   4.807   0.396  12.451  0.0857  0.2482  0.6542
 1559TIP3    H126168   4.715   0.380  12.430  0.2320  0.2007  0.0564
 1559TIP3    H226169   4.856   0.351  12.383  0.6248 -1.8886  2.3927
 1560TIP3   OH226170   6.653   0.770  13.549 -0.2092  0.1894  0.2231
 1560TIP3    H126171   6.641   0.733  13.636 -0.7666  0.4775  0.2675
 1560TIP3    H226172   6.619   0.703  13.490 -1.4518  0.7393  0.3176
 1561TIP3   OH226173   2.381   3.488  14.608 -0.0413 -0.2112 -0.5508
 1561TIP3    H126174   2.311   3.504  14.672 -0.9044 -1.1774 -1.2428
 1561TIP3    H226175   2.336   3.474  14.525  0.8956 -2.1247 -0.7629
 1562TIP3   OH226176   1.041   3.507  14.708 -0.4084  0.3010 -0.0152
 1562TIP3    H126177   0.967   3.509  14.768 -0.0167 -1.9750  0.5890
 1562TIP3    H226178   1.010   3.457  14.632 -0.5374  2.1832 -1.2380
 1563TIP3   OH226179   1.003   4.129   1.869  0.1675  0.3259 -0.8474
 1563TIP3    H126180   0.961   4.200   1.918 -0.2894 -1.0398  0.8054
 1563TIP3    H226181   1.080   4.106   1.922 -0.2837 -1.1187 -0.8092
 1564TIP3   OH226182   2.772   1.924  14.826 -0.1248  0.2325  0.1698
 1564TIP3    H126183   2.799   1.922  14.918  0.1821  0.9781  0.0974
 1564TIP3    H226184   2.851   1.947  14.778 -0.4388  0.4820 -0.2285
 1565TIP3   OH226185   2.670   6.819  11.511  0.4940  0.1006  0.2262
 1565TIP3    H126186   2.628   6.900  11.481 -0.5625 -0.5379 -0.0707
 1565TIP3    H226187   2.630   6.802  11.596  0.6857 -0.1165  0.2723
 1566TIP3   OH226188   2.956   4.776   5.968  0.0153 -0.5222  0.3706
 1566TIP3    H126189   2.969   4.779   6.062 -1.2517 -0.3260  0.5489
 1566TIP3    H226190   3.033   4.819   5.931  1.0370 -1.5526  1.2574
 1567TIP3   OH226191   0.846   1.484   3.160  0.2636 -0.6243 -0.0513
 1567TIP3    H126192   0.772   1.448   3.209  0.0054 -1.1776 -0.8358
 1567TIP3    H226193   0.878   1.557   3.214  0.1133 -1.3484  1.0340
 1568TIP3   OH226194   1.016   2.052  13.413  0.1953 -0.2686 -0.2706
 1568TIP3    H126195   0.927   2.072  13.440  0.5958  1.1624  0.0674
 1568TIP3    H226196   1.007   1.984  13.347 -1.0477 -1.0771  0.7040
 1569TIP3   OH226197   0.798   0.200   4.448 -0.4402 -0.1250  0.5394
 1569TIP3    H126198   0.852   0.268   4.409 -0.2186 -0.9962 -0.7162
 1569TIP3    H226199   0.840   0.118   4.421 -1.8295 -0.7906  0.3459
 1570TIP3   OH226200   2.642   3.204   1.535 -0.0573 -0.2305 -0.6098
 1570TIP3    H126201   2.670   3.296   1.527  1.0951 -0.4428  0.7896
 1570TIP3    H226202   2.576   3.205   1.604 -0.1187 -0.4393 -0.6661
 1571TIP3   OH226203   4.644   6.279  11.480 -0.1329  0.1117  0.2499
 1571TIP3    H126204   4.711   6.223  11.521 -0.1845 -0.4080 -0.3607
 1571TIP3    H226205   4.614   6.336  11.550  0.7633  0.1696  0.6018
 1572TIP3   OH226206   4.915   4.606  11.693  0.1714 -0.2027  0.1931
 1572TIP3    H126207   4.919   4.520  11.650 -1.5743 -0.1537 -0.1008
 1572TIP3    H226208   4.821   4.627  11.696  0.7261  3.0715 -2.4476
 1573TIP3   OH226209   2.916   3.940  16.388 -0.1369  0.0447  0.1059
 1573TIP3    H126210   2.837   3.973  16.433  0.2069  0.8386  0.1378
 1573TIP3    H226211   2.977   3.921  16.459 -0.1878 -0.2778  0.0639
 1574TIP3   OH226212   3.729   5.944  15.067 -0.0155  0.1266  0.0367
 1574TIP3    H126213   3.716   5.858  15.108 -0.8590  0.7410  1.1016
 1574TIP3    H226214   3.643   5.986  15.072 -0.0515  0.3310 -2.1489
 1575TIP3   OH226215   0.592   0.699   5.053 -0.2993 -0.0676 -0.3324
 1575TIP3    H126216   0.675   0.669   5.090 -0.7480 -0.9892 -0.0734
 1575TIP3    H226217   0.562   0.767   5.114 -1.0510 -1.5976  1.0216
 1576TIP3   OH226218   1.416   3.451  13.843  0.1773  0.1702  0.5136
 1576TIP3    H126219   1.503   3.487  13.828  0.0657 -0.3911 -1.5687
 1576TIP3    H226220   1.420   3.363  13.805 -1.8596  0.8350 -1.2786
 1577TIP3   OH226221   2.867   0.672  13.738 -0.4345  0.0633  0.1425
 1577TIP3    H126222   2.956   0.684  13.771 -1.0168  0.4062  1.6095
 1577TIP3    H226223   2.813   0.663  13.816 -1.6201 -0.7042 -0.7523
 1578TIP3   OH226224   4.971   1.995   1.583 -0.3897 -0.3316 -0.0277
 1578TIP3    H126225   4.978   1.968   1.492 -0.0926  0.1644 -0.1527
 1578TIP3    H226226   4.956   2.089   1.580  2.5043  0.2010  0.4852
 1579TIP3   OH226227   5.049   3.695   5.205  0.0593 -0.4006  0.0812
 1579TIP3    H126228   5.025   3.764   5.143 -0.9608  0.5544  1.4882
 1579TIP3    H226229   5.114   3.736   5.262  1.5867 -1.5191 -0.8501
 1580TIP3   OH226230   1.774   4.788   3.164  0.4016  0.3250  0.2963
 1580TIP3    H126231   1.751   4.881   3.158  1.4794  0.4416 -3.3273
 1580TIP3    H226232   1.859   4.788   3.209  0.5532  1.1650  0.0322
 1581TIP3   OH226233   5.906   3.183  11.486  0.0800 -0.1307 -0.4614
 1581TIP3    H126234   5.941   3.272  11.486  0.6674 -0.3607 -0.4281
 1581TIP3    H226235   5.923   3.150  11.574  1.3923 -0.8675 -0.9762
 1582TIP3   OH226236   3.405   3.293   1.134  1.3453  0.0043 -0.5549
 1582TIP3    H126237   3.422   3.202   1.110 -0.0908 -0.9657  1.8555
 1582TIP3    H226238   3.491   3.329   1.155  1.7368 -1.3603  0.2541
 1583TIP3   OH226239   1.979   1.447   2.147  0.1200  0.3247 -0.3404
 1583TIP3    H126240   2.039   1.372   2.151 -0.5924 -0.1718  1.5019
 1583TIP3    H226241   2.037   1.524   2.145  0.8365 -0.2089 -0.1933
 1584TIP3   OH226242   5.320   0.843  13.681 -0.3553 -0.0027 -0.1156
 1584TIP3    H126243   5.256   0.821  13.614  0.1688  0.9610 -0.9476
 1584TIP3    H226244   5.385   0.897  13.636  1.4091 -1.5028  0.5436
 1585TIP3   OH226245   6.520   0.776   6.222  0.0316 -0.1127 -0.5379
 1585TIP3    H126246   6.587   0.787   6.154 -1.3331  0.1213 -1.8576
 1585TIP3    H226247   6.485   0.689   6.208 -0.4643  0.0452 -0.3074
 1586TIP3   OH226248   4.294   2.512   5.014  0.0380 -0.2575 -0.4585
 1586TIP3    H126249   4.256   2.546   5.095 -0.3960 -0.1407 -0.7106
 1586TIP3    H226250   4.234   2.541   4.945 -0.5885 -1.9242 -0.6355
 1587TIP3   OH226251   2.810   5.347   5.711  0.2601  0.6309 -0.5479
 1587TIP3    H126252   2.810   5.432   5.755  0.0898 -0.2147  1.1217
 1587TIP3    H226253   2.893   5.345   5.663  0.4083  1.5908 -0.3424
 1588TIP3   OH226254   2.797   0.120  15.933  1.2194 -0.1347  0.2283
 1588TIP3    H126255   2.752   0.036  15.938 -0.1880  0.5920  0.2349
 1588TIP3    H226256   2.807   0.147  16.025 -4.6143  2.8867  0.2107
 1589TIP3   OH226257   2.696   0.981   3.848 -0.7971  0.1934  0.2373
 1589TIP3    H126258   2.704   0.962   3.754 -0.9471 -1.1460  0.4875
 1589TIP3    H226259   2.746   1.062   3.860 -2.1253  1.2983 -1.2829
 1590TIP3   OH226260   1.660   3.641   2.666  0.5282 -0.3015 -0.0729
 1590TIP3    H126261   1.663   3.594   2.583  1.6081 -0.3354 -0.0220
 1590TIP3    H226262   1.689   3.578   2.731 -1.1730 -0.5489  0.4804
 1591TIP3   OH226263   5.066   3.064   4.537  0.2594  0.1715  0.2938
 1591TIP3    H126264   5.000   3.006   4.500 -0.8056  0.2086  2.0647
 1591TIP3    H226265   5.122   3.006   4.589  1.4322  0.1944 -0.9177
 1592TIP3   OH226266   2.695   0.338   2.458  0.2811 -0.2571  0.2781
 1592TIP3    H126267   2.729   0.274   2.396 -3.1342 -2.4981  0.5743
 1592TIP3    H226268   2.761   0.341   2.528  1.7544 -1.4602 -1.0209
 1593TIP3   OH226269   1.396   1.087  11.112 -0.3699 -0.5267  0.2230
 1593TIP3    H126270   1.438   1.045  11.038 -1.9230  1.6552 -1.9752
 1593TIP3    H226271   1.444   1.169  11.124 -0.7947 -0.3744  0.9582
 1594TIP3   OH226272   4.874   0.478  12.734 -0.1995 -0.9169 -0.1613
 1594TIP3    H126273   4.962   0.517  12.733 -0.4213 -0.4278 -1.1438
 1594TIP3    H226274   4.859   0.451  12.643 -1.8370  0.7777 -0.4241
 1595TIP3   OH226275   6.806   4.216   4.265 -0.2322  0.1630  0.4424
 1595TIP3    H126276   6.826   4.182   4.353  0.2625  0.1292  0.3166
 1595TIP3    H226277   6.879   4.186   4.211  0.2899  1.5321  0.3521
 1596TIP3   OH226278   3.419   2.783  17.093  0.2452 -0.3631 -0.7567
 1596TIP3    H126279   3.406   2.720  17.022  0.3250 -2.2844  0.8879
 1596TIP3    H226280   3.512   2.775  17.115 -0.0132 -0.5968  0.2790
 1597TIP3   OH226281   4.477   6.608  15.469 -0.7041 -0.2863 -0.6739
 1597TIP3    H126282   4.542   6.650  15.413  0.8090 -0.6828  0.7429
 1597TIP3    H226283   4.521   6.530  15.504 -1.5572 -0.0060  1.1151
 1598TIP3   OH226284   6.098   4.549   5.083 -0.3055  0.2511 -0.0556
 1598TIP3    H126285   6.116   4.579   4.994  0.5851 -0.3537 -0.0894
 1598TIP3    H226286   6.176   4.499   5.107 -1.5365 -1.5650  0.1896
 1599TIP3   OH226287   1.836   3.697   4.062 -0.5644 -0.2489  0.0369
 1599TIP3    H126288   1.783   3.703   4.141 -0.3079 -0.6791  0.2456
 1599TIP3    H226289   1.831   3.605   4.037 -0.9692 -0.0411 -0.6780
 1600TIP3   OH226290   6.685   6.459   6.061 -0.3940 -0.1641  0.4755
 1600TIP3    H126291   6.749   6.520   6.098 -0.2390 -0.4475  0.6756
 1600TIP3    H226292   6.615   6.455   6.126 -0.9598  0.7051 -0.0753
 1601TIP3   OH226293   3.671   4.791   1.914  0.0689 -0.1434  0.5160
 1601TIP3    H126294   3.620   4.868   1.889  0.1114 -0.3025 -0.0694
 1601TIP3    H226295   3.748   4.827   1.958  0.2474  0.1704 -0.0370
 1602TIP3   OH226296   5.232   0.007  11.722 -0.4119  0.6516 -0.2291
 1602TIP3    H126297   5.275   0.032  11.640  1.1725 -1.0466  0.0277
 1602TIP3    H226298   5.288   0.043  11.791  0.2426 -0.9235  0.1046
 1603TIP3   OH226299   0.998   2.002   5.361 -0.0100 -0.1194 -0.4470
 1603TIP3    H126300   0.952   2.062   5.419  1.4147 -0.7876  1.4370
 1603TIP3    H226301   1.073   2.053   5.329  0.1945 -0.3168 -0.2839
 1604TIP3   OH226302   5.598   3.011   1.103  0.2845  0.0276  0.1761
 1604TIP3    H126303   5.555   3.008   1.017 -0.4323  0.7902  0.4913
 1604TIP3    H226304   5.689   2.990   1.086  0.1300  0.1186 -0.7712
 1605TIP3   OH226305   5.604   4.281   4.875 -0.4078  0.6316 -0.1535
 1605TIP3    H126306   5.531   4.339   4.897 -1.5174 -0.2205 -1.4877
 1605TIP3    H226307   5.644   4.322   4.798  1.6890  2.0841  1.6729
 1606TIP3   OH226308   2.569   5.251   3.083 -0.4733  0.0634 -0.4075
 1606TIP3    H126309   2.569   5.155   3.087  1.2176  0.0984  1.3161
 1606TIP3    H226310   2.654   5.276   3.120 -1.4363  2.2548  0.3847
 1607TIP3   OH226311   0.367   5.588   6.270 -0.4031 -0.3766 -0.0519
 1607TIP3    H126312   0.301   5.596   6.201 -1.1244  0.4993  0.7214
 1607TIP3    H226313   0.421   5.514   6.243 -2.5419 -2.0135 -0.0331
 1608TIP3   OH226314   1.914   5.072  13.242  0.2554 -0.4569  0.3528
 1608TIP3    H126315   1.913   4.982  13.209  4.1459  0.1629 -1.8249
 1608TIP3    H226316   2.007   5.089  13.260 -0.5575  2.7767  1.8052
 1609TIP3   OH226317   5.470   0.708   6.097 -0.3470 -0.1388 -0.0156
 1609TIP3    H126318   5.520   0.715   6.178 -0.2181 -2.2155  0.1150
 1609TIP3    H226319   5.530   0.666   6.035 -0.4632  1.3589 -1.1972
 1610TIP3   OH226320   6.748   2.828  15.786 -0.2115  0.3788 -0.3908
 1610TIP3    H126321   6.765   2.878  15.866  1.8023 -0.1941 -0.4439
 1610TIP3    H226322   6.652   2.820  15.783 -0.3312  0.6628  1.8078
 1611TIP3   OH226323   3.136   2.208   0.801  0.3331  0.4855  0.8501
 1611TIP3    H126324   3.102   2.145   0.864  0.0684 -0.2087  0.0285
 1611TIP3    H226325   3.218   2.169   0.770  0.6475  0.9941  1.0340
 1612TIP3   OH226326   3.794   6.085   5.627  0.3291 -0.5939 -0.1403
 1612TIP3    H126327   3.858   6.072   5.697  0.3449 -0.2351 -0.0878
 1612TIP3    H226328   3.785   5.999   5.587  0.4843 -0.7527  0.1624
 1613TIP3   OH226329   1.723   2.945   3.184 -0.4989 -0.0932  0.0345
 1613TIP3    H126330   1.639   2.981   3.158 -3.1381 -1.8074  5.4797
 1613TIP3    H226331   1.750   2.999   3.259  0.9761 -2.3920  1.2104
 1614TIP3   OH226332   2.216   4.637   3.457  0.0228  1.1829 -0.0993
 1614TIP3    H126333   2.268   4.613   3.533  0.4550  2.8750  0.1665
 1614TIP3    H226334   2.278   4.635   3.384 -0.4302 -0.6116 -0.4485
 1615TIP3   OH226335   0.764   2.323   2.326 -0.1241  0.1623 -0.0936
 1615TIP3    H126336   0.855   2.293   2.334  0.2705  0.5554 -2.6918
 1615TIP3    H226337   0.722   2.256   2.271 -0.9214  0.9677 -0.4728
 1616TIP3   OH226338   4.031   5.729  12.888  0.6201 -0.3774  0.1930
 1616TIP3    H126339   3.976   5.658  12.923  0.3415 -0.6743 -0.8417
 1616TIP3    H226340   4.016   5.803  12.948  0.9078 -1.1777  1.2771
 1617TIP3   OH226341   0.771   3.905   4.807  0.2712 -0.1336 -0.1561
 1617TIP3    H126342   0.712   3.858   4.866 -0.2939  0.4793 -0.2312
 1617TIP3    H226343   0.816   3.968   4.863 -0.7504  0.9088 -0.4788
 1618TIP3   OH226344   5.714   0.414  16.739  0.5285 -0.4650  0.2264
 1618TIP3    H126345   5.806   0.388  16.743  0.7025  0.2124  0.6439
 1618TIP3    H226346   5.702   0.473  16.814  0.5012  1.7792 -1.4802
 1619TIP3   OH226347   0.159   5.357   4.961 -0.2005 -0.1437 -0.4726
 1619TIP3    H126348   0.184   5.424   4.898 -2.1132  0.1359 -0.9709
 1619TIP3    H226349   0.114   5.291   4.909 -0.3029 -0.7292  0.3561
 1620TIP3   OH226350   5.267   5.390   4.676  0.5680  0.5124  0.1926
 1620TIP3    H126351   5.247   5.297   4.661  0.0140  0.3364  1.9190
 1620TIP3    H226352   5.356   5.400   4.642 -0.4532  0.0828 -2.7828
 1621TIP3   OH226353   4.979   6.715  11.800  0.5480  0.0935 -0.8910
 1621TIP3    H126354   5.050   6.771  11.769  0.6045  0.4599 -0.1075
 1621TIP3    H226355   4.972   6.647  11.733  0.5126  0.9987 -1.8206
 1622TIP3   OH226356   1.907   4.181  14.937 -0.2148  0.1601  0.0055
 1622TIP3    H126357   1.888   4.275  14.943  0.5768  0.3031  0.3186
 1622TIP3    H226358   1.990   4.177  14.888 -1.2056 -0.4714 -1.6495
 1623TIP3   OH226359   1.621   2.432  16.717 -0.0173  0.2157  0.4107
 1623TIP3    H126360   1.567   2.480  16.781 -0.2989  0.0064  0.3330
 1623TIP3    H226361   1.571   2.352  16.700  0.9955 -0.6320  1.3957
 1624TIP3   OH226362   1.579   4.713  15.865  0.1497  0.0917  0.7266
 1624TIP3    H126363   1.640   4.694  15.935  0.8417  0.2990  0.1858
 1624TIP3    H226364   1.633   4.718  15.786 -0.8632 -2.0669 -0.1534
 1625TIP3   OH226365   1.229   1.842   5.024  0.1135 -0.3276 -0.1993
 1625TIP3    H126366   1.218   1.924   4.976 -0.3911 -0.0945  0.3119
 1625TIP3    H226367   1.277   1.865   5.103 -0.2150 -0.4866  0.0500
 1626TIP3   OH226368   1.446   6.701   6.539 -0.6404 -0.2651 -0.3807
 1626TIP3    H126369   1.515   6.637   6.521  0.6550  0.6588  1.1834
 1626TIP3    H226370   1.492   6.775   6.579 -2.3457  0.9693 -0.6587
 1627TIP3   OH226371   2.286   3.435   5.860 -0.8014 -1.0409  0.0395
 1627TIP3    H126372   2.277   3.360   5.801 -1.4081 -2.4148  1.8243
 1627TIP3    H226373   2.285   3.511   5.803 -1.3971 -2.3398 -1.7143
 1628TIP3   OH226374   4.274   0.978   2.794  0.0598  0.4081  0.5137
 1628TIP3    H126375   4.209   0.936   2.850 -1.6176  4.2690  1.6243
 1628TIP3    H226376   4.357   0.938   2.821 -1.1780 -0.6451  3.0108
 1629TIP3   OH226377   6.606   2.752  15.397 -0.2451 -1.1309 -0.6482
 1629TIP3    H126378   6.618   2.841  15.430  0.5466 -1.1790 -0.7932
 1629TIP3    H226379   6.514   2.732  15.415  0.0374 -0.9781  1.0925
 1630TIP3   OH226380   2.388   0.280  15.150 -0.2508 -0.4452 -0.1950
 1630TIP3    H126381   2.448   0.212  15.119 -0.4841 -0.5475 -0.4259
 1630TIP3    H226382   2.302   0.238  15.147 -0.3528 -0.2427 -0.0317
 1631TIP3   OH226383   4.140   3.365  13.014  0.2624 -0.7240  0.4637
 1631TIP3    H126384   4.136   3.402  13.102  1.3093  1.1216 -0.2490
 1631TIP3    H226385   4.216   3.407  12.973 -0.7963 -0.8009 -1.6595
 1632TIP3   OH226386   4.253   2.272   3.499 -0.5821  0.6432 -0.2876
 1632TIP3    H126387   4.210   2.285   3.415 -1.7831 -0.6548  0.1150
 1632TIP3    H226388   4.183   2.283   3.564  0.2700  1.3538  0.5448
 1633TIP3   OH226389   6.185   0.889   5.010 -0.0384 -0.4473  0.3444
 1633TIP3    H126390   6.143   0.964   4.969 -0.1273 -0.0843  1.0946
 1633TIP3    H226391   6.224   0.924   5.091  0.3889 -1.0890  0.4229
 1634TIP3   OH226392   3.449   6.642  14.877  0.2426  0.1452  0.0155
 1634TIP3    H126393   3.543   6.631  14.894  0.2332 -0.4183 -0.3115
 1634TIP3    H226394   3.445   6.720  14.821  0.5571 -0.1131 -0.3713
 1635TIP3   OH226395   1.019   3.038  13.792  0.0643 -0.6700 -0.0902
 1635TIP3    H126396   1.023   3.028  13.887 -0.0572  0.0875  0.0031
 1635TIP3    H226397   0.948   3.101  13.777  1.7285  1.1827 -0.4982
 1636TIP3   OH226398   0.220   6.187  14.635  0.0867 -0.1106 -0.4956
 1636TIP3    H126399   0.178   6.157  14.554 -0.2626 -0.1940 -0.2869
 1636TIP3    H226400   0.189   6.277  14.646  1.8929  0.6891 -1.6356
 1637TIP3   OH226401   5.063   1.766   6.165  0.3376  0.5605  0.1237
 1637TIP3    H126402   5.060   1.779   6.260  1.2820 -0.1539  0.2539
 1637TIP3    H226403   5.151   1.793   6.140  0.4553 -0.2994 -0.3975
 1638TIP3   OH226404   2.391   1.389  13.294  0.0601 -0.5454 -0.5877
 1638TIP3    H126405   2.438   1.446  13.355 -0.6055 -1.4411  0.7895
 1638TIP3    H226406   2.349   1.449  13.233 -0.4059  0.4500  0.6741
 1639TIP3   OH226407   1.550   3.989   6.395 -0.4826 -0.2174  0.5425
 1639TIP3    H126408   1.502   3.976   6.477 -0.8180  0.8666  0.5207
 1639TIP3    H226409   1.634   3.945   6.410 -0.6893 -0.3578  1.3300
 1640TIP3   OH226410   1.742   0.886  16.838 -0.1782  0.5978  1.0937
 1640TIP3    H126411   1.724   0.838  16.757 -0.8079  2.3030  0.1836
 1640TIP3    H226412   1.812   0.838  16.880 -0.1413 -0.5626 -0.2609
 1641TIP3   OH226413   0.297   4.004  12.703 -0.2995 -0.2899 -0.1018
 1641TIP3    H126414   0.353   3.928  12.689 -0.0616 -0.5748  2.1075
 1641TIP3    H226415   0.253   4.018  12.619  0.2405 -2.3840 -0.7591
 1642TIP3   OH226416   5.571   3.648   3.193 -0.6471  0.1652  0.8070
 1642TIP3    H126417   5.529   3.565   3.169 -0.4664  0.0624  0.8426
 1642TIP3    H226418   5.604   3.633   3.282  1.9657 -0.7302 -0.2688
 1643TIP3   OH226419   3.627   1.778   4.908  0.8433 -0.1455  0.7112
 1643TIP3    H126420   3.622   1.828   4.990  1.7440  0.4505  0.3983
 1643TIP3    H226421   3.717   1.746   4.905  1.2342  1.0373 -0.7543
 1644TIP3   OH226422   3.830   0.500   5.699  0.4291 -0.7530 -0.0973
 1644TIP3    H126423   3.881   0.559   5.753  0.8342 -0.3468 -0.9079
 1644TIP3    H226424   3.874   0.502   5.613 -1.2635  0.0252 -0.9695
 1645TIP3   OH226425   2.344   4.538  13.688  0.2538  0.1638  0.2915
 1645TIP3    H126426   2.398   4.583  13.754 -1.1770  2.0315  0.2488
 1645TIP3    H226427   2.380   4.566  13.604  0.1300  0.2461  0.2662
 1646TIP3   OH226428   3.945   3.978  11.277 -0.1881 -0.0498 -0.1406
 1646TIP3    H126429   3.851   3.996  11.264 -0.4191 -1.4951 -0.5014
 1646TIP3    H226430   3.973   3.937  11.196  1.1041  1.6592 -0.5704
 1647TIP3   OH226431   3.251   2.914   6.294  0.4750  0.2045 -0.3783
 1647TIP3    H126432   3.214   2.923   6.382  0.8370  0.3166 -0.2396
 1647TIP3    H226433   3.330   2.861   6.306  0.1425 -0.3808 -0.7340
 1648TIP3   OH226434   4.742   0.975  16.326  0.6049  0.5978  0.2537
 1648TIP3    H126435   4.670   0.938  16.379  1.3110  0.2325  0.9681
 1648TIP3    H226436   4.716   0.958  16.236  1.2667 -2.3547  0.5730
 1649TIP3   OH226437   6.777   6.049   0.527  0.5953 -0.4711 -0.2178
 1649TIP3    H126438   6.828   5.982   0.572 -1.2901 -0.7225  1.6547
 1649TIP3    H226439   6.729   6.001   0.459  1.2212 -0.5822 -0.5838
 1650TIP3   OH226440   1.993   5.867   1.178 -0.1493  0.1635  0.3241
 1650TIP3    H126441   1.913   5.835   1.221  0.4309 -1.6117  0.1227
 1650TIP3    H226442   2.023   5.938   1.234 -1.9642  0.9551  0.3154
 1651TIP3   OH226443   1.928   1.013   6.359 -0.2274 -0.5658 -0.3340
 1651TIP3    H126444   1.963   0.964   6.433 -0.4704 -0.7877 -0.3664
 1651TIP3    H226445   1.857   0.958   6.325 -0.1834 -0.4172 -0.6678
 1652TIP3   OH226446   5.965   4.719  13.411  0.8361  0.7726 -0.8201
 1652TIP3    H126447   6.034   4.743  13.349 -0.5122  0.7389 -2.3922
 1652TIP3    H226448   5.945   4.628  13.390 -2.3011  1.8611 -3.0417
 1653TIP3   OH226449   5.407   4.109   5.168  0.0693  0.4180  0.0076
 1653TIP3    H126450   5.441   4.143   5.251  0.1120  1.4561 -0.4219
 1653TIP3    H226451   5.485   4.082   5.120 -0.0582 -1.5819  0.8907
 1654TIP3   OH226452   0.979   5.598  16.736 -0.6059  0.0943  0.2931
 1654TIP3    H126453   0.915   5.572  16.670  0.7954  0.7124 -1.3563
 1654TIP3    H226454   1.004   5.516  16.778 -1.3549 -0.3363 -0.0865
 1655TIP3   OH226455   0.982   0.109  12.816 -0.1017  0.1136  0.3251
 1655TIP3    H126456   1.006   0.200  12.833 -3.1759  1.0267  0.0645
 1655TIP3    H226457   0.891   0.113  12.786 -0.2217 -3.0263  0.0721
 1656TIP3   OH226458   3.784   6.685  13.978 -0.3143  0.5967  0.2912
 1656TIP3    H126459   3.700   6.645  13.954 -0.5276 -0.0962  2.0924
 1656TIP3    H226460   3.848   6.615  13.964  0.1707  1.4390 -2.1056
 1657TIP3   OH226461   0.984   1.827  13.258 -0.3959  0.8188  0.2785
 1657TIP3    H126462   0.928   1.779  13.197  0.9425 -0.2035 -0.1651
 1657TIP3    H226463   1.063   1.845  13.208 -0.1256  1.8191  1.0581
 1658TIP3   OH226464   3.013   3.282  15.270  0.4466 -0.6194 -0.1709
 1658TIP3    H126465   3.052   3.195  15.279 -0.9449 -1.2931 -0.3968
 1658TIP3    H226466   2.926   3.265  15.234  0.6775  0.9726 -1.5502
 1659TIP3   OH226467   6.694   5.498  16.939  0.9342 -0.0029 -0.6383
 1659TIP3    H126468   6.664   5.574  16.989 -0.4930 -0.4119 -0.8676
 1659TIP3    H226469   6.742   5.444  17.002 -0.3916 -0.2529  0.1546
 1660TIP3   OH226470   1.878   0.923   1.045  0.4579  0.5298 -0.3727
 1660TIP3    H126471   1.822   0.885   0.977 -0.3791  0.5009  0.3253
 1660TIP3    H226472   1.965   0.924   1.006  0.1324 -0.2620 -1.1402
 1661TIP3   OH226473   1.404   6.426  15.255 -0.1426 -0.0567  0.0083
 1661TIP3    H126474   1.400   6.479  15.334  2.5966 -2.0671  1.5783
 1661TIP3    H226475   1.314   6.396  15.241 -1.1036  2.2610  0.9311
 1662TIP3   OH226476   6.738   1.870   4.266 -0.5397 -0.6860 -0.5944
 1662TIP3    H126477   6.660   1.841   4.313 -1.1994  0.4870 -0.9230
 1662TIP3    H226478   6.776   1.937   4.322 -0.0677 -0.8877 -0.6764
 1663TIP3   OH226479   5.045   4.434   3.796 -0.1410 -0.3528 -0.1532
 1663TIP3    H126480   5.137   4.449   3.818 -0.7254  1.2140  1.3296
 1663TIP3    H226481   5.043   4.440   3.700  1.0060  1.4581 -0.0955
 1664TIP3   OH226482   0.980   4.303  10.542  0.0979  0.3983 -0.4325
 1664TIP3    H126483   1.005   4.319  10.633  1.4138  0.2758 -0.7588
 1664TIP3    H226484   0.886   4.320  10.540 -0.4602 -1.9801  1.4976
 1665TIP3   OH226485   2.072   2.455   2.450  0.0293  0.1583  0.1648
 1665TIP3    H126486   2.028   2.540   2.457  0.1523  0.4071 -1.9409
 1665TIP3    H226487   2.015   2.404   2.393  1.7344  0.0119 -1.4551
 1666TIP3   OH226488   5.463   0.932   5.730 -0.2881 -0.2232 -0.5228
 1666TIP3    H126489   5.398   0.885   5.783 -1.0900  0.4637 -0.8804
 1666TIP3    H226490   5.416   1.009   5.698  1.0348  0.8544  0.1076
 1667TIP3   OH226491   2.355   1.007   3.147 -0.9442  0.1137 -0.2456
 1667TIP3    H126492   2.273   0.990   3.101 -1.2151 -1.8571  0.8933
 1667TIP3    H226493   2.336   1.082   3.203 -2.1450 -0.6530  0.3983
 1668TIP3   OH226494   0.905   2.995   0.128 -0.0713  0.6126  0.0290
 1668TIP3    H126495   0.867   3.022   0.044  0.6253 -0.3298 -0.6005
 1668TIP3    H226496   0.968   3.064   0.149  0.4498  0.3646 -0.7077
 1669TIP3   OH226497   5.810   0.229   2.063  0.2043  0.0468  0.1834
 1669TIP3    H126498   5.824   0.207   2.155  0.1532  1.9834  0.6727
 1669TIP3    H226499   5.719   0.260   2.060  0.3664  0.4663 -0.4229
 1670TIP3   OH226500   0.546   5.218   6.597 -0.6676  0.1226 -0.6361
 1670TIP3    H126501   0.497   5.137   6.583  0.2393 -0.6094  0.3549
 1670TIP3    H226502   0.621   5.212   6.538  0.3812 -0.6108  0.7403
 1671TIP3   OH226503   4.485   0.935   4.245  0.1676 -0.4208 -0.3346
 1671TIP3    H126504   4.417   0.874   4.272  0.3120 -0.5487 -0.2607
 1671TIP3    H226505   4.567   0.889   4.262  0.2794 -0.1693 -0.1870
 1672TIP3   OH226506   6.789   6.038   0.125  0.2581  0.0290 -0.2224
 1672TIP3    H126507   6.731   6.105   0.087 -1.0267 -0.0196  1.6326
 1672TIP3    H226508   6.743   5.956   0.111  0.8174 -0.2365 -0.5154
 1673TIP3   OH226509   5.894   1.083   3.215 -0.6023  0.4029  0.4207
 1673TIP3    H126510   5.835   1.157   3.235 -0.8505  0.3031  0.0721
 1673TIP3    H226511   5.837   1.019   3.172 -0.4961 -0.2123  1.1911
 1674TIP3   OH226512   4.373   3.122  15.099  0.0493 -0.1084 -0.0785
 1674TIP3    H126513   4.340   3.059  15.035  1.0559 -0.9733  0.2480
 1674TIP3    H226514   4.339   3.091  15.183 -0.6721  0.6195 -0.0946
 1675TIP3   OH226515   4.526   6.258  14.802 -0.3197  0.0953  0.1944
 1675TIP3    H126516   4.619   6.246  14.786 -0.0581  2.5231 -0.2735
 1675TIP3    H226517   4.506   6.197  14.873  1.4344 -1.0395 -0.2569
 1676TIP3   OH226518   0.558   6.628  12.804  0.0103  0.0910 -0.5377
 1676TIP3    H126519   0.485   6.684  12.776 -0.2482  0.3637  0.6600
 1676TIP3    H226520   0.636   6.683  12.791  0.1522 -0.6002 -2.9097
 1677TIP3   OH226521   4.612   3.860   4.418  0.2068  0.4378 -0.6049
 1677TIP3    H126522   4.672   3.786   4.423  0.3406  0.6797  1.5321
 1677TIP3    H226523   4.538   3.827   4.366  0.8572 -0.7692 -0.7874
 1678TIP3   OH226524   0.086   6.437  15.416 -0.3660 -0.3234  0.3490
 1678TIP3    H126525   0.180   6.445  15.402 -0.2881  0.4646  1.2139
 1678TIP3    H226526   0.071   6.343  15.424  0.3647 -0.4531  0.2626
 1679TIP3   OH226527   2.300   3.012  15.933 -0.1854  0.2394 -0.2313
 1679TIP3    H126528   2.282   3.021  16.027 -0.5218 -1.7953 -0.0794
 1679TIP3    H226529   2.386   3.052  15.921  0.2107 -0.1924  1.0810
 1680TIP3   OH226530   2.714   6.084  12.751 -0.0329 -0.4721 -0.1229
 1680TIP3    H126531   2.680   6.172  12.734  1.2119  0.0044 -0.2066
 1680TIP3    H226532   2.637   6.028  12.750 -0.6678  0.4044 -1.5367
 1681TIP3   OH226533   2.590   4.211  12.519 -0.0120 -0.3436 -0.3243
 1681TIP3    H126534   2.617   4.227  12.609  1.2803 -0.9589 -0.5877
 1681TIP3    H226535   2.498   4.185  12.525 -0.3883  1.1573  0.6672
 1682TIP3   OH226536   4.843   4.752  16.427  0.1133 -0.1955 -0.6966
 1682TIP3    H126537   4.778   4.823  16.423 -0.4399 -0.6839 -0.5715
 1682TIP3    H226538   4.887   4.755  16.343  0.6853  0.8511 -0.3614
 1683TIP3   OH226539   1.278   4.783  11.267 -0.2166  0.0321 -0.0110
 1683TIP3    H126540   1.347   4.786  11.201  0.4786  1.2889  0.7475
 1683TIP3    H226541   1.298   4.705  11.319  0.0845 -0.1301 -0.3643
 1684TIP3   OH226542   0.259   3.327  10.576 -0.2614 -0.0691 -0.0868
 1684TIP3    H126543   0.249   3.235  10.553  2.7221 -0.3284 -0.4210
 1684TIP3    H226544   0.206   3.374  10.511 -1.0923 -1.4709 -0.4418
 1685TIP3   OH226545   5.578   5.420  15.182  0.3327 -0.2386 -0.0092
 1685TIP3    H126546   5.647   5.467  15.136 -0.4260  0.1400 -0.7694
 1685TIP3    H226547   5.514   5.488  15.205  0.8730 -0.3417  1.9678
 1686TIP3   OH226548   3.775   0.785   2.551 -0.3829  0.1325 -0.4436
 1686TIP3    H126549   3.821   0.842   2.490  0.5919 -1.2988 -1.0691
 1686TIP3    H226550   3.841   0.760   2.615 -1.0247  0.4016  0.3347
 1687TIP3   OH226551   6.785   0.755  11.337 -0.1763  0.2457  0.0938
 1687TIP3    H126552   6.739   0.731  11.417  2.6539 -1.1758  1.3561
 1687TIP3    H226553   6.741   0.705  11.268 -2.0055  0.7373  0.8737
 1688TIP3   OH226554   0.434   0.568  16.003  0.1542  0.3361 -0.0644
 1688TIP3    H126555   0.451   0.662  15.996  0.2256  0.2873 -0.5414
 1688TIP3    H226556   0.347   0.556  15.965 -0.2836  0.3523  0.9122
 1689TIP3   OH226557   4.103   6.245   0.038 -0.5432  0.2512 -0.4076
 1689TIP3    H126558   4.031   6.263   0.098  0.1406  2.6149 -0.2637
 1689TIP3    H226559   4.078   6.289  -0.044  0.5083  0.7174 -0.4933
 1690TIP3   OH226560   5.926   6.010  16.872  0.1248  0.9014  0.0577
 1690TIP3    H126561   5.923   5.926  16.826 -3.7170  1.6171 -1.1698
 1690TIP3    H226562   5.931   5.988  16.965 -1.4967 -0.6846 -0.2269
 1691TIP3   OH226563   4.990   5.711  16.474 -0.5463  0.0791 -0.3936
 1691TIP3    H126564   4.984   5.677  16.385  0.9759 -0.0223 -0.4669
 1691TIP3    H226565   5.033   5.796  16.465 -0.0456 -0.0980  0.2816
 1692TIP3   OH226566   6.458   3.385   1.763 -0.0015 -0.2490 -0.1221
 1692TIP3    H126567   6.442   3.304   1.714  1.2367 -0.1350 -0.7327
 1692TIP3    H226568   6.528   3.428   1.715 -0.7976  1.2966  0.0794
 1693TIP3   OH226569   1.162   4.859   1.072 -0.0186  0.7885  0.2225
 1693TIP3    H126570   1.167   4.783   1.014  0.2445  0.9035  0.0957
 1693TIP3    H226571   1.070   4.866   1.095 -0.1051  0.6763 -0.0937
 1694TIP3   OH226572   5.014   5.315  13.180 -0.1278 -0.5526 -0.2361
 1694TIP3    H126573   4.968   5.236  13.150  0.3583 -0.3303 -1.5967
 1694TIP3    H226574   5.104   5.303  13.151  0.0763  0.2380  0.0687
 1695TIP3   OH226575   2.976   5.715  16.894  0.3219 -0.3332  0.0177
 1695TIP3    H126576   2.931   5.633  16.876  0.7179 -0.2427 -1.4052
 1695TIP3    H226577   2.936   5.747  16.975 -1.6154 -0.6580 -0.7982
 1696TIP3   OH226578   6.799   4.325  15.600 -0.3637  0.0063 -0.4484
 1696TIP3    H126579   6.754   4.270  15.665 -1.0539 -0.3611 -1.2348
 1696TIP3    H226580   6.815   4.266  15.526  0.7853  0.3230 -0.4551
 1697TIP3   OH226581   5.688   1.335  16.801  0.2691  0.6509 -0.2275
 1697TIP3    H126582   5.624   1.306  16.737  1.2084  0.9530 -1.3301
 1697TIP3    H226583   5.650   1.415  16.838 -1.3565 -0.8084  1.3056
 1698TIP3   OH226584   5.697   1.166  13.512 -0.4984 -0.3684  0.1226
 1698TIP3    H126585   5.653   1.161  13.597 -0.9931 -1.9171 -0.2040
 1698TIP3    H226586   5.715   1.075  13.489  0.4210  0.0937 -1.0287
 1699TIP3   OH226587   4.562   6.179   5.732 -0.2019 -0.4562 -0.5287
 1699TIP3    H126588   4.497   6.200   5.664 -0.1677 -0.5788 -0.6000
 1699TIP3    H226589   4.575   6.085   5.724 -0.2818 -0.4886 -0.2740
 1700TIP3   OH226590   5.164   4.977  11.050 -0.3110 -0.0453 -0.0942
 1700TIP3    H126591   5.114   4.916  10.995 -1.5121  1.3842 -0.6411
 1700TIP3    H226592   5.233   5.010  10.992 -0.4261  0.0516 -0.1753
 1701TIP3   OH226593   3.662   2.012  15.148  0.5231  0.0594  0.5562
 1701TIP3    H126594   3.695   2.094  15.184  0.4072  0.4387 -0.1952
 1701TIP3    H226595   3.667   2.023  15.053  0.7578 -0.9049  0.4502
 1702TIP3   OH226596   0.497   0.678   4.700 -0.1424  0.1063  0.3392
 1702TIP3    H126597   0.504   0.599   4.648 -0.7175  0.2883 -0.0188
 1702TIP3    H226598   0.586   0.694   4.731 -0.0179 -0.6544  0.3855
 1703TIP3   OH226599   6.273   4.748  11.053  0.8261  0.3794 -0.1010
 1703TIP3    H126600   6.208   4.688  11.015 -0.9451  1.4226  1.2101
 1703TIP3    H226601   6.283   4.817  10.988  0.0151  0.6293  0.0339
 1704TIP3   OH226602   4.393   3.363   6.549  0.5067 -0.0884 -0.5964
 1704TIP3    H126603   4.459   3.428   6.524  0.2870  0.5889  0.5617
 1704TIP3    H226604   4.442   3.281   6.558  0.8411 -0.0189 -1.7405
 1705TIP3   OH226605   2.248   2.236   3.988 -0.6393  0.1897  0.1445
 1705TIP3    H126606   2.276   2.189   4.067 -2.1022 -0.0216  0.5514
 1705TIP3    H226607   2.162   2.200   3.968 -0.5469  0.6819 -1.2099
 1706TIP3   OH226608   2.659   6.663  14.078 -0.5145 -0.4222  0.4767
 1706TIP3    H126609   2.594   6.730  14.055 -2.0096 -1.8038  0.5705
 1706TIP3    H226610   2.614   6.580  14.063  1.1522 -1.4103  0.8206
 1707TIP3   OH226611   0.308   6.403  10.952 -0.1712  0.1347  0.1606
 1707TIP3    H126612   0.223   6.433  10.985 -1.6528 -2.2413 -1.3406
 1707TIP3    H226613   0.316   6.443  10.866  0.0118 -0.0147  0.1091
 1708TIP3   OH226614   6.018   4.611  14.002  0.1658 -0.3144 -0.3542
 1708TIP3    H126615   6.028   4.706  13.997  1.3858 -0.4629 -0.9494
 1708TIP3    H226616   5.945   4.597  14.062  0.9710  0.9500  0.9430
 1709TIP3   OH226617   1.448   0.650  16.763 -0.3900  0.2119 -0.0379
 1709TIP3    H126618   1.465   0.719  16.699 -0.7624  1.2958  0.9932
 1709TIP3    H226619   1.354   0.634  16.755 -0.1983 -0.6036 -0.6876
 1710TIP3   OH226620   0.824   0.620   6.139 -0.0575 -0.7204 -0.1544
 1710TIP3    H126621   0.734   0.589   6.132 -0.1222 -0.8253  1.0025
 1710TIP3    H226622   0.857   0.620   6.049 -1.0418 -1.1822 -0.5197
 1711TIP3   OH226623   3.837   0.727  13.264  0.5189  0.9100  0.6263
 1711TIP3    H126624   3.815   0.634  13.271  2.9670  0.2048 -0.3437
 1711TIP3    H226625   3.807   0.751  13.176 -4.4279  2.3569  2.5341
 1712TIP3   OH226626   4.354   1.298   0.548  0.3985  0.0244  0.3676
 1712TIP3    H126627   4.403   1.225   0.511  0.9335  0.4455  0.2342
 1712TIP3    H226628   4.332   1.353   0.472 -1.1877 -0.6945  0.2953
 1713TIP3   OH226629   3.884   1.762   3.892  0.1069  0.6650 -0.2669
 1713TIP3    H126630   3.964   1.776   3.943  1.1772 -1.8223 -1.1875
 1713TIP3    H226631   3.853   1.851   3.871  1.6590  1.6724  1.5526
 1714TIP3   OH226632   6.774   5.656   3.575 -0.3122 -0.0779  0.4795
 1714TIP3    H126633   6.763   5.749   3.594  0.6642  0.6264 -2.2243
 1714TIP3    H226634   6.820   5.621   3.651 -2.4314  1.2133  2.4104
 1715TIP3   OH226635   0.644   1.903  16.330 -0.3625 -0.9870 -0.0769
 1715TIP3    H126636   0.553   1.880  16.310 -0.1824 -0.2822 -1.8506
 1715TIP3    H226637   0.687   1.819  16.346 -0.6507 -1.6198 -2.3406
 1716TIP3   OH226638   1.147   6.131  17.201  0.1036 -0.1794  0.3279
 1716TIP3    H126639   1.079   6.124  17.134  0.1838  0.6511  0.1562
 1716TIP3    H226640   1.167   6.224  17.206 -0.5277 -0.1177  2.1540
 1717TIP3   OH226641   4.429   1.367  17.236 -0.2349  0.1592 -0.8861
 1717TIP3    H126642   4.459   1.436  17.296 -0.5745  1.0872 -1.7800
 1717TIP3    H226643   4.475   1.386  17.154 -0.8270 -0.2985 -1.3181
 1718TIP3   OH226644   5.564   4.414   5.666 -0.2831 -0.0189  0.1990
 1718TIP3    H126645   5.553   4.498   5.710 -0.2434  0.1925 -0.1884
 1718TIP3    H226646   5.612   4.435   5.586  3.0720 -0.9232  1.8622
 1719TIP3   OH226647   4.688   0.308   4.011  0.3983 -0.2985 -0.2192
 1719TIP3    H126648   4.699   0.222   3.971 -0.0987  0.0386 -1.1079
 1719TIP3    H226649   4.620   0.350   3.959 -0.5705  0.0024  1.2724
 1720TIP3   OH226650   3.367   2.209  16.621  0.3030  0.1271 -0.6491
 1720TIP3    H126651   3.295   2.178  16.676  1.2766  0.6507  0.9560
 1720TIP3    H226652   3.324   2.252  16.547 -1.0694  1.3279  0.7897
 1721TIP3   OH226653   1.808   6.476  12.234  0.1321  0.3073  0.2767
 1721TIP3    H126654   1.768   6.426  12.162 -0.1926  0.6765  0.1942
 1721TIP3    H226655   1.867   6.414  12.277 -0.0447 -0.0594 -0.0056
 1722TIP3   OH226656   5.196   3.602  17.142  0.6962  0.4071 -0.2736
 1722TIP3    H126657   5.264   3.540  17.166  0.9998  0.7579 -0.2361
 1722TIP3    H226658   5.130   3.594  17.212  1.3742  1.1189  0.4500
 1723TIP3   OH226659   3.067   0.020  17.081 -0.1416  0.2292 -0.0995
 1723TIP3    H126660   3.058   0.111  17.053  1.6208  0.0236 -1.4132
 1723TIP3    H226661   3.073  -0.030  16.999 -1.1292 -1.0803  0.6030
 1724TIP3   OH226662   1.251   1.190  15.858  0.0673  0.2700 -0.0071
 1724TIP3    H126663   1.320   1.128  15.881 -1.2332 -1.0471  0.4810
 1724TIP3    H226664   1.175   1.161  15.910 -1.5414  0.2188 -2.3229
 1725TIP3   OH226665   3.412   1.370   2.492 -0.2804  0.1354  0.0135
 1725TIP3    H126666   3.383   1.350   2.403 -1.0139 -1.3868  0.5786
 1725TIP3    H226667   3.480   1.305   2.510  0.9031  1.3547  0.0537
 1726TIP3   OH226668   3.729   6.604   6.005 -0.0592 -0.4576  0.1164
 1726TIP3    H126669   3.795   6.552   5.959 -0.2681 -0.6127 -0.0074
 1726TIP3    H226670   3.700   6.669   5.941 -0.4641 -0.7735 -0.0264
 1727TIP3   OH226671   6.691   5.480  11.424  0.2084  0.0195  0.4793
 1727TIP3    H126672   6.749   5.411  11.392  1.0090  0.8502  0.1161
 1727TIP3    H226673   6.638   5.504  11.348 -1.3046 -1.3966  1.0464
 1728TIP3   OH226674   4.263   2.536  16.126 -0.0233 -0.0221  0.0990
 1728TIP3    H126675   4.191   2.488  16.085 -0.9426 -0.5085  2.1779
 1728TIP3    H226676   4.246   2.628  16.106 -1.6247 -0.0685  1.1119
 1729TIP3   OH226677   3.878   3.641  15.187 -0.0013  0.3213  0.1552
 1729TIP3    H126678   3.931   3.720  15.198 -0.7200  0.7227  0.7769
 1729TIP3    H226679   3.922   3.575  15.239  2.2526 -0.5142 -2.6606
 1730TIP3   OH226680   3.885   6.063  12.722  0.1033 -0.3441 -0.5987
 1730TIP3    H126681   3.913   6.085  12.811 -0.4447 -0.2933 -0.4330
 1730TIP3    H226682   3.872   6.148  12.680  0.1576 -0.3673 -0.6633
 1731TIP3   OH226683   5.750   1.467  12.334  0.3761 -0.4548 -0.1014
 1731TIP3    H126684   5.708   1.430  12.412  0.1482 -0.2272 -0.1147
 1731TIP3    H226685   5.840   1.435  12.337  0.8887  1.0692  1.2496
 1732TIP3   OH226686   5.592   3.899   5.906 -0.2377 -0.0119 -0.5532
 1732TIP3    H126687   5.549   3.983   5.922 -0.0769  0.0656 -0.5290
 1732TIP3    H226688   5.679   3.909   5.945 -0.4408 -0.4067  0.0096
 1733TIP3   OH226689   3.634   6.807  11.106 -0.2027  0.5818 -0.5114
 1733TIP3    H126690   3.669   6.726  11.144 -2.3610 -0.2330 -0.1967
 1733TIP3    H226691   3.616   6.862  11.182  1.7304  1.5763 -0.7527
 1734TIP3   OH226692   3.659   0.052   3.900  0.1332  0.0368 -0.1806
 1734TIP3    H126693   3.613   0.133   3.880 -0.0038  0.0841  0.3292
 1734TIP3    H226694   3.749   0.079   3.916  0.2968 -0.0292 -0.9540
 1735TIP3   OH226695   3.203   2.923   4.075 -0.8106 -0.1225  0.7347
 1735TIP3    H126696   3.228   3.007   4.036 -0.8747 -0.5541 -0.2196
 1735TIP3    H226697   3.208   2.940   4.170 -1.1327  1.0588  0.5581
 1736TIP3   OH226698   5.111   5.544  15.879  0.0645 -0.6155 -0.0468
 1736TIP3    H126699   5.164   5.512  15.952 -0.6752 -0.2073  0.6711
 1736TIP3    H226700   5.031   5.577  15.920 -0.5998 -0.9108 -1.0944
 1737TIP3   OH226701   0.406   5.749   4.763  0.3934 -0.6876  0.2573
 1737TIP3    H126702   0.353   5.670   4.758  0.2883 -0.9075  3.7078
 1737TIP3    H226703   0.495   5.718   4.782  0.6757 -0.0494  0.0195
 1738TIP3   OH226704   5.714   0.964   3.032  0.0307  0.0281 -0.1001
 1738TIP3    H126705   5.701   1.036   2.971 -0.5686 -1.0545 -1.2778
 1738TIP3    H226706   5.775   0.905   2.987  0.1452 -0.4258  0.6464
 1739TIP3   OH226707   6.489   3.687  14.132 -0.0364 -0.2232 -0.0160
 1739TIP3    H126708   6.540   3.693  14.050 -0.3904  1.1651 -0.1464
 1739TIP3    H226709   6.411   3.739  14.115 -1.4074 -2.1146  0.2940
 1740TIP3   OH226710   4.870   3.971   4.501  0.5030  0.1961  0.2882
 1740TIP3    H126711   4.782   3.968   4.464  0.7650  0.7726 -0.4000
 1740TIP3    H226712   4.857   3.987   4.594 -0.1107  0.6530  0.1260
 1741TIP3   OH226713   1.030   5.190   1.218  0.3777 -0.2176 -0.0221
 1741TIP3    H126714   1.037   5.237   1.135 -1.7165 -0.1345 -0.1675
 1741TIP3    H226715   1.074   5.107   1.201 -0.3934 -0.3707 -1.3481
 1742TIP3   OH226716   0.203   5.025   6.128  0.2250  0.3435  0.2417
 1742TIP3    H126717   0.255   4.968   6.071  0.0505  0.2669  0.1587
 1742TIP3    H226718   0.210   4.984   6.215 -0.4345 -0.1655  0.0564
 1743TIP3   OH226719   2.889   1.404  13.814  0.2643 -0.5306 -0.3755
 1743TIP3    H126720   2.944   1.447  13.748  1.1005 -0.6198  0.2465
 1743TIP3    H226721   2.843   1.477  13.857  0.0951 -0.4326 -0.7178
 1744TIP3   OH226722   0.655   1.560  12.887 -0.4252 -0.3519 -0.2394
 1744TIP3    H126723   0.709   1.484  12.909 -1.0601 -0.9655 -0.7952
 1744TIP3    H226724   0.635   1.549  12.794 -0.9885  0.2051 -0.1839
 1745TIP3   OH226725   0.401   0.218  17.104  0.1165 -0.0624  0.5851
 1745TIP3    H126726   0.380   0.189  17.015  1.2500 -1.4071  0.7294
 1745TIP3    H226727   0.483   0.173  17.125 -1.2208 -1.4480  3.1195
 1746TIP3   OH226728   2.708   0.642  14.473  0.2053  0.3371 -0.0163
 1746TIP3    H126729   2.704   0.546  14.468  1.8598  0.3784 -3.3523
 1746TIP3    H226730   2.786   0.660  14.525 -0.3690 -0.1180  1.0140
 1747TIP3   OH226731   5.120   1.289   4.884  0.5563  0.0088 -0.0115
 1747TIP3    H126732   5.094   1.205   4.848 -2.2969  1.4555 -1.5530
 1747TIP3    H226733   5.091   1.353   4.818  0.9724  2.2960  1.9533
 1748TIP3   OH226734   3.222   3.254  14.719 -0.0941 -0.0563  0.2687
 1748TIP3    H126735   3.295   3.266  14.781 -2.0936 -2.6592  3.2875
 1748TIP3    H226736   3.157   3.319  14.746 -1.0112 -1.2676  1.0130
 1749TIP3   OH226737   2.196   3.484  14.398  0.1336  0.0869  0.5976
 1749TIP3    H126738   2.113   3.527  14.381  0.2691 -0.2543 -0.9848
 1749TIP3    H226739   2.196   3.407  14.341  1.5039  0.0508  0.6134
 1750TIP3   OH226740   0.519   3.023   3.265  0.2947  0.4399  0.0046
 1750TIP3    H126741   0.435   2.980   3.248 -0.2148  0.2824  2.6980
 1750TIP3    H226742   0.496   3.106   3.305  1.4197  0.4706  0.5997
 1751TIP3   OH226743   5.451   1.669  13.885  0.4934  0.1357 -0.0045
 1751TIP3    H126744   5.457   1.763  13.867 -0.8021 -0.0695 -1.6561
 1751TIP3    H226745   5.495   1.627  13.811  1.0841 -0.5626  0.7343
 1752TIP3   OH226746   1.350   5.704   2.868  0.0988  0.3370  0.1972
 1752TIP3    H126747   1.399   5.629   2.836 -0.6321  0.7573 -1.9597
 1752TIP3    H226748   1.336   5.686   2.961  0.7898 -1.7011 -0.0821
 1753TIP3   OH226749   4.235   3.234  10.913 -0.4735  0.2723  0.0428
 1753TIP3    H126750   4.200   3.148  10.891 -0.7955  0.3330  0.3090
 1753TIP3    H226751   4.172   3.296  10.876 -0.2844  0.3901 -0.0813
 1754TIP3   OH226752   4.383   6.337  15.559  0.3921 -0.7022  0.0829
 1754TIP3    H126753   4.317   6.322  15.491 -1.3653  1.1747  1.3044
 1754TIP3    H226754   4.346   6.407  15.613  3.4022  0.3595  0.8396
 1755TIP3   OH226755   2.873   2.090  11.742 -0.6545  0.4180  0.0790
 1755TIP3    H126756   2.821   2.018  11.708 -1.0657  1.7079 -2.1701
 1755TIP3    H226757   2.811   2.162  11.752  0.2502  1.2935 -0.4511
 1756TIP3   OH226758   5.145   2.585   0.190 -0.4089  0.3002  0.7057
 1756TIP3    H126759   5.120   2.662   0.139  0.8120  0.4689  0.3295
 1756TIP3    H226760   5.167   2.519   0.125 -1.0605 -0.2332  1.0266
 1757TIP3   OH226761   0.487   3.349  12.588 -0.1348 -0.6084  0.0702
 1757TIP3    H126762   0.480   3.254  12.584  0.1046 -0.6349  0.2747
 1757TIP3    H226763   0.402   3.379  12.620 -0.3393 -0.7276 -0.3560
 1758TIP3   OH226764   3.971   1.657  11.737  0.0396 -0.5264  0.1191
 1758TIP3    H126765   3.917   1.721  11.690  0.4616  0.0634  0.4196
 1758TIP3    H226766   3.983   1.585  11.675  0.5019  0.2005 -0.6495
 1759TIP3   OH226767   6.337   2.102   6.673 -0.1930  0.2600 -0.2728
 1759TIP3    H126768   6.388   2.182   6.665 -0.2920  0.1975 -1.8448
 1759TIP3    H226769   6.396   2.033   6.644 -1.2745  0.2497 -2.6194
 1760TIP3   OH226770   0.826   2.769  13.276  0.1755 -0.2984  0.1443
 1760TIP3    H126771   0.893   2.701  13.279  0.3313 -0.1234  0.7825
 1760TIP3    H226772   0.856   2.830  13.210 -0.6477 -1.5540 -1.4353
 1761TIP3   OH226773   4.447   4.181  13.348  0.4585  0.0532 -0.2215
 1761TIP3    H126774   4.421   4.120  13.417  1.1828 -1.6990 -1.4796
 1761TIP3    H226775   4.379   4.173  13.281 -0.1503  1.6271  0.1764
 1762TIP3   OH226776   4.656   0.287   1.038  0.0511 -0.2887  0.6512
 1762TIP3    H126777   4.677   0.259   0.949  0.0978 -1.4167  1.0029
 1762TIP3    H226778   4.560   0.283   1.041  0.1144 -1.9527  1.1653
 1763TIP3   OH226779   5.205   1.448   0.477 -0.1981 -0.6627 -0.2633
 1763TIP3    H126780   5.136   1.476   0.537  0.2339  1.1638 -0.6016
 1763TIP3    H226781   5.217   1.522   0.417 -0.3846 -2.2860 -2.4068
 1764TIP3   OH226782   3.830   2.707  14.858  0.0682 -0.3738 -0.6361
 1764TIP3    H126783   3.761   2.774  14.858  0.6374  0.2124  0.0518
 1764TIP3    H226784   3.861   2.704  14.767  1.4006  1.7049 -0.2689
 1765TIP3   OH226785   3.312   1.558   5.669  0.0194  0.5205 -0.3258
 1765TIP3    H126786   3.406   1.573   5.662  0.0509  2.1943  2.6398
 1765TIP3    H226787   3.273   1.611   5.599  1.2583  0.2031 -1.2568
 1766TIP3   OH226788   2.267   4.340   4.021  0.1850 -0.3819 -0.4276
 1766TIP3    H126789   2.286   4.257   3.978 -2.0403 -0.6787 -0.8903
 1766TIP3    H226790   2.240   4.317   4.109 -2.0487 -0.3105 -1.0602
 1767TIP3   OH226791   5.823   5.528  12.581  0.1864 -0.1973  0.4541
 1767TIP3    H126792   5.866   5.445  12.558 -1.5830 -0.8363 -0.6981
 1767TIP3    H226793   5.871   5.560  12.657 -0.2408 -3.1830  2.0320
 1768TIP3   OH226794   5.285   2.732   4.963 -0.3883 -0.0552 -0.1182
 1768TIP3    H126795   5.222   2.741   4.892 -0.4442 -0.2097 -0.0880
 1768TIP3    H226796   5.279   2.815   5.011  0.2480  0.3776 -0.7756
 1769TIP3   OH226797   6.230   3.473  15.550 -0.1150  0.4824  0.3005
 1769TIP3    H126798   6.305   3.457  15.492  0.4550  2.1219  0.5346
 1769TIP3    H226799   6.204   3.563  15.530 -0.4843  0.7517  1.9258
 1770TIP3   OH226800   4.670   0.265   0.154 -0.1187 -0.5673  0.3057
 1770TIP3    H126801   4.630   0.214   0.083  0.0789 -2.0047  1.2105
 1770TIP3    H226802   4.711   0.200   0.211  2.7757  0.7927 -0.1174
 1771TIP3   OH226803   0.389   3.008  15.634  0.1332  0.8420 -0.4043
 1771TIP3    H126804   0.399   2.961  15.551  0.5436 -0.0259  0.1312
 1771TIP3    H226805   0.475   3.002  15.675 -0.5895 -0.3803  0.9529
 1772TIP3   OH226806   2.929   5.050   3.691 -0.5391 -0.9267 -0.2439
 1772TIP3    H126807   2.965   5.049   3.602  0.3450  1.4834  0.0481
 1772TIP3    H226808   2.939   5.141   3.719  2.9513 -2.4111  3.8244
 1773TIP3   OH226809   1.220   4.985   0.785  0.0526  0.0435 -0.1591
 1773TIP3    H126810   1.247   5.000   0.876  0.1065 -0.7035 -0.0460
 1773TIP3    H226811   1.209   5.072   0.749 -4.3217  0.4506  1.8242
 1774TIP3   OH226812   5.540   1.161   4.969 -0.2253  0.0976 -0.2263
 1774TIP3    H126813   5.608   1.205   5.019  0.3828 -0.3842 -0.6197
 1774TIP3    H226814   5.460   1.174   5.020  0.0953  0.9477  0.0705
 1775TIP3   OH226815   5.120   1.482  15.042  0.0170 -0.1377  0.1040
 1775TIP3    H126816   5.085   1.393  15.043  0.9338 -0.5620 -2.3867
 1775TIP3    H226817   5.124   1.507  15.135 -1.5873 -2.1313  0.7610
 1776TIP3   OH226818   2.304   3.801  16.720 -0.2652  0.6294  0.1546
 1776TIP3    H126819   2.222   3.810  16.769 -1.2893  1.7645 -1.6840
 1776TIP3    H226820   2.370   3.782  16.786 -2.0940 -0.7733  1.6240
 1777TIP3   OH226821   2.390   5.842  13.170 -0.0215  0.1186 -0.7262
 1777TIP3    H126822   2.403   5.903  13.243 -0.1721 -0.0146 -0.5855
 1777TIP3    H226823   2.468   5.786  13.171 -0.5468 -0.6300  0.0668
 1778TIP3   OH226824   4.578   1.449  11.662  0.1075  0.1334  0.1277
 1778TIP3    H126825   4.635   1.384  11.702  0.5840  0.2250 -0.3845
 1778TIP3    H226826   4.533   1.491  11.735 -0.7182 -1.2424  0.4176
 1779TIP3   OH226827   5.006   6.007   1.685 -0.4417  0.2576 -0.3006
 1779TIP3    H126828   4.959   5.964   1.756  0.3878  0.3810  0.3347
 1779TIP3    H226829   4.953   5.990   1.607 -2.4540  1.8443  0.6493
 1780TIP3   OH226830   0.335   4.248  16.267 -0.4276  0.1208  0.3760
 1780TIP3    H126831   0.310   4.322  16.323 -1.7079 -1.1314  1.5064
 1780TIP3    H226832   0.303   4.171  16.314 -2.9017 -0.8963 -2.7697
 1781TIP3   OH226833   3.300   3.581  10.808  0.1940  0.7830 -0.1969
 1781TIP3    H126834   3.338   3.497  10.786  1.0062  0.7526  1.2364
 1781TIP3    H226835   3.228   3.561  10.868 -0.9190  0.9713 -1.4494
 1782TIP3   OH226836   5.243   5.562   1.273  0.4350 -0.2568 -0.0527
 1782TIP3    H126837   5.174   5.613   1.316  0.4608 -1.0925  0.9949
 1782TIP3    H226838   5.309   5.626   1.248 -0.0325  0.3578  0.2847
 1783TIP3   OH226839   0.293   4.573  13.234  0.9197 -0.1274 -0.1874
 1783TIP3    H126840   0.243   4.556  13.154  1.1587  0.6932 -0.5117
 1783TIP3    H226841   0.249   4.647  13.275  2.8102  1.6440 -1.2894
 1784TIP3   OH226842   6.797   2.098   4.413  0.3819 -0.0091  0.5450
 1784TIP3    H126843   6.850   2.081   4.491  1.4332 -0.1267 -0.1797
 1784TIP3    H226844   6.707   2.101   4.445  0.8939  0.9814  1.9191
 1785TIP3   OH226845   5.085   1.425  15.728  0.4543  0.2714 -0.5581
 1785TIP3    H126846   5.086   1.514  15.695 -1.0690  0.6725  0.4590
 1785TIP3    H226847   4.998   1.392  15.708 -0.3291  0.3451  2.4992
 1786TIP3   OH226848   6.125   6.158   3.942 -0.2567 -0.2335  0.0622
 1786TIP3    H126849   6.113   6.151   4.037 -0.1274 -0.1099  0.0879
 1786TIP3    H226850   6.143   6.069   3.913 -0.7746 -0.3442  0.0889
 1787TIP3   OH226851   6.465   5.778  17.244  0.5108 -0.1139  0.6210
 1787TIP3    H126852   6.516   5.781  17.325  0.2935 -1.5666  0.8400
 1787TIP3    H226853   6.441   5.686  17.235  0.8244 -0.0324 -1.2832
 1788TIP3   OH226854   5.523   2.894   3.935 -0.1770  0.7161  0.0633
 1788TIP3    H126855   5.514   2.876   3.841 -0.3257 -0.0253  0.2118
 1788TIP3    H226856   5.608   2.936   3.944  0.5064 -0.5673 -0.2233
 1789TIP3   OH226857   1.168   4.832   1.797  0.3761  0.1859  0.4014
 1789TIP3    H126858   1.147   4.852   1.888  1.6866 -1.0544  0.9990
 1789TIP3    H226859   1.257   4.866   1.785 -0.0650  0.9944 -0.6374
 1790TIP3   OH226860   1.754   2.988   1.266  0.6455  0.4015 -0.1300
 1790TIP3    H126861   1.795   2.968   1.350  2.5500  0.8723 -0.9374
 1790TIP3    H226862   1.774   3.080   1.250 -1.6884  0.9743 -0.0193
 1791TIP3   OH226863   3.972   5.795  16.630 -0.6838  0.5616 -0.0692
 1791TIP3    H126864   3.982   5.858  16.558 -0.7630 -0.0705 -0.6417
 1791TIP3    H226865   4.056   5.798  16.676 -0.2731  0.2612 -0.7808
 1792TIP3   OH226866   4.631   5.235  10.509  0.2159 -0.9388  0.5407
 1792TIP3    H126867   4.704   5.226  10.447 -1.6854  0.7012 -2.0470
 1792TIP3    H226868   4.663   5.297  10.575  0.1878  2.1785 -2.2593
 1793TIP3   OH226869   6.640   2.897  14.251 -0.2105  0.2768 -0.4253
 1793TIP3    H126870   6.595   2.962  14.305 -0.9052  1.5860 -2.4962
 1793TIP3    H226871   6.572   2.832  14.231  0.0722 -0.2605  0.3518
 1794TIP3   OH226872   4.918   2.605  15.367 -0.2250 -0.1006 -0.3450
 1794TIP3    H126873   4.889   2.684  15.412  1.6677 -0.5148  1.6468
 1794TIP3    H226874   4.963   2.637  15.289 -2.6164  0.6465 -1.4867
 1795TIP3   OH226875   3.550   4.543   1.846 -0.3805 -0.3233 -0.1153
 1795TIP3    H126876   3.573   4.623   1.895  2.4402 -1.2972  0.2388
 1795TIP3    H226877   3.478   4.570   1.789 -1.1151  1.8455  1.7567
 1796TIP3   OH226878   5.743   5.316   5.885  0.0833  0.0925 -0.0464
 1796TIP3    H126879   5.783   5.398   5.912  0.8528  0.0263 -0.9561
 1796TIP3    H226880   5.780   5.250   5.944 -1.7399  0.6129  1.7266
 1797TIP3   OH226881   3.513   2.542   5.964 -0.3084 -0.1432 -0.5730
 1797TIP3    H126882   3.564   2.494   5.899 -1.4464 -0.7740 -0.9979
 1797TIP3    H226883   3.517   2.487   6.043 -1.4352 -0.8546 -0.9975
 1798TIP3   OH226884   5.780   5.550  17.158 -0.2676 -0.3680  0.6893
 1798TIP3    H126885   5.715   5.605  17.202  0.4176  0.4238  0.7185
 1798TIP3    H226886   5.834   5.516  17.228  0.2952  0.2086  0.5457
 1799TIP3   OH226887   4.394   1.797   1.372 -0.2412  0.3293 -0.1444
 1799TIP3    H126888   4.300   1.792   1.390 -0.4758 -0.6082 -1.4931
 1799TIP3    H226889   4.429   1.713   1.401 -0.0346  0.1961 -0.7658
 1800TIP3   OH226890   4.456   6.226   4.732  0.2679 -0.0966 -0.1550
 1800TIP3    H126891   4.544   6.236   4.695 -0.0282  1.6274 -0.4398
 1800TIP3    H226892   4.405   6.186   4.661  0.8057 -1.0564 -0.0053
 1801TIP3   OH226893   6.399   1.649  15.562  0.1224  0.4092 -0.2531
 1801TIP3    H126894   6.393   1.562  15.522 -0.4803  0.4943 -0.3559
 1801TIP3    H226895   6.428   1.706  15.491  0.9029  0.2248 -0.0860
 1802TIP3   OH226896   5.356   1.127   5.330  0.7775  0.1684  0.1600
 1802TIP3    H126897   5.340   1.165   5.244  0.1169  1.8904  1.0295
 1802TIP3    H226898   5.269   1.113   5.367  1.0593 -0.6854  0.5083
 1803TIP3   OH226899   2.819   1.285   3.316  0.1582  0.8581 -0.4532
 1803TIP3    H126900   2.786   1.325   3.397 -0.0915 -1.2347  0.5234
 1803TIP3    H226901   2.809   1.191   3.331 -0.9855  0.4838 -3.4106
 1804TIP3   OH226902   3.899   5.297  14.195 -0.1580  0.3637  0.2947
 1804TIP3    H126903   3.950   5.251  14.261 -0.6517  0.0681  0.4731
 1804TIP3    H226904   3.809   5.294  14.227 -0.6875 -1.3633 -1.2477
 1805TIP3   OH226905   6.645   3.953   3.619 -0.1398 -0.4837 -0.3235
 1805TIP3    H126906   6.595   4.032   3.598 -0.0143 -0.2040  0.4236
 1805TIP3    H226907   6.679   3.969   3.707 -1.9654 -2.3155  0.7177
 1806TIP3   OH226908   6.720   1.326  10.948 -0.4503 -0.1940  0.5272
 1806TIP3    H126909   6.634   1.317  10.908 -0.2818  0.0133  0.1075
 1806TIP3    H226910   6.758   1.238  10.944  0.0748  0.0743 -0.9675
 1807TIP3   OH226911   1.872   4.332   6.008  0.3454  0.5722 -0.5588
 1807TIP3    H126912   1.802   4.390   5.976 -0.3421  0.8958  1.4850
 1807TIP3    H226913   1.870   4.258   5.947 -0.6229  1.3833 -1.5544
 1808TIP3   OH226914   0.069   4.171   3.652 -0.1546 -0.0785 -0.3965
 1808TIP3    H126915  -0.013   4.204   3.688 -1.2106 -2.4694 -0.5592
 1808TIP3    H226916   0.064   4.188   3.558  0.4910  1.7131 -0.1298
 1809TIP3   OH226917   1.951   2.949   1.877  0.0423  0.5299  0.4935
 1809TIP3    H126918   2.035   2.903   1.873  0.7491  1.9857 -2.0666
 1809TIP3    H226919   1.887   2.879   1.890  1.5696 -0.6294  2.0692
 1810TIP3   OH226920   6.231   3.594   2.983  0.0683 -0.8688  0.2086
 1810TIP3    H126921   6.181   3.608   2.903  0.3060  0.6211  0.3172
 1810TIP3    H226922   6.322   3.598   2.955  0.1512 -1.0598  0.4487
 1811TIP3   OH226923   3.858   4.983   5.778  0.1579  0.3131 -0.4128
 1811TIP3    H126924   3.891   4.948   5.860  0.0397  0.6751 -0.2096
 1811TIP3    H226925   3.787   4.924   5.753 -0.1404  0.4939  0.0052
 1812TIP3   OH226926   4.481   5.906  13.985 -0.0615 -0.0906 -0.0863
 1812TIP3    H126927   4.490   5.910  14.080 -0.0191  0.2774 -0.1060
 1812TIP3    H226928   4.427   5.828  13.970 -1.8195  1.0107  0.3549
 1813TIP3   OH226929   5.333   3.768   5.327  0.2583 -0.2365  0.2691
 1813TIP3    H126930   5.340   3.863   5.315 -0.1279 -0.5341 -2.6617
 1813TIP3    H226931   5.303   3.758   5.418 -2.7487  2.5989 -0.2924
 1814TIP3   OH226932   0.841   0.659   5.185  0.6489  0.0873 -0.3685
 1814TIP3    H126933   0.912   0.701   5.234  0.4660  0.6794 -0.6067
 1814TIP3    H226934   0.864   0.670   5.093  0.5360 -0.2275 -0.4369
 1815TIP3   OH226935   1.010   4.689   6.471  0.6705 -0.5131  0.7446
 1815TIP3    H126936   1.071   4.762   6.462 -0.5557  0.7065  1.9351
 1815TIP3    H226937   0.928   4.730   6.501 -0.9343 -2.0096 -1.4130
 1816TIP3   OH226938   4.232   2.027   5.380 -0.3060 -0.5845  0.6177
 1816TIP3    H126939   4.240   1.966   5.307 -2.1990 -0.1198  0.0054
 1816TIP3    H226940   4.272   2.108   5.348 -0.0176 -0.7461  0.5602
 1817TIP3   OH226941   2.356   4.438  17.188  0.1079 -0.0462  0.2162
 1817TIP3    H126942   2.365   4.476  17.101  0.2044  2.7164  1.3649
 1817TIP3    H226943   2.266   4.403  17.190  0.3524 -0.7974 -1.2020
 1818TIP3   OH226944   3.698   1.763   0.316  0.4264  0.7014 -0.1155
 1818TIP3    H126945   3.605   1.758   0.294  0.7974  0.7279 -1.7479
 1818TIP3    H226946   3.743   1.728   0.239  1.7907  1.0656  0.4941
 1819TIP3   OH226947   5.915   2.699   4.510 -0.1612 -0.6247 -0.3510
 1819TIP3    H126948   5.932   2.640   4.584 -0.4840 -0.1191  0.1233
 1819TIP3    H226949   5.900   2.640   4.436 -0.7357 -1.1585  0.1792
 1820TIP3   OH226950   3.820   1.875   2.325 -0.1422  0.6279 -0.2427
 1820TIP3    H126951   3.768   1.827   2.260  0.8733  1.1292 -1.4420
 1820TIP3    H226952   3.811   1.967   2.299 -0.0480  0.8715  0.5738
 1821TIP3   OH226953   3.621   5.116   2.680  0.3167  0.3522  0.0605
 1821TIP3    H126954   3.600   5.195   2.731  1.4083 -0.6785  2.1868
 1821TIP3    H226955   3.563   5.049   2.715  0.1745 -0.0700 -0.9709
 1822TIP3   OH226956   1.716   0.984  12.028  0.2264  0.6624  0.2250
 1822TIP3    H126957   1.691   0.985  11.936  0.3171  0.0050  0.1916
 1822TIP3    H226958   1.660   0.917  12.067  2.4180 -1.3594  0.0062
 1823TIP3   OH226959   5.156   4.288  12.217 -0.5476 -0.1095  0.2387
 1823TIP3    H126960   5.162   4.380  12.244 -1.1641 -0.7404  2.6192
 1823TIP3    H226961   5.115   4.291  12.130 -0.2826  1.8674  0.1524
 1824TIP3   OH226962   0.100   5.197  12.131 -0.2141 -0.0485  0.0427
 1824TIP3    H126963   0.141   5.161  12.053  0.6565 -0.1713  0.5549
 1824TIP3    H226964   0.156   5.270  12.157 -1.1474  0.7345 -0.1234
 1825TIP3   OH226965   2.935   2.558  16.072 -0.1365 -0.9180  0.4960
 1825TIP3    H126966   2.890   2.481  16.036  1.9389 -1.7022 -0.4891
 1825TIP3    H226967   3.018   2.561  16.025  0.8695  0.4647  2.3198
 1826TIP3   OH226968   1.751   1.902  14.003 -0.3712 -0.0270  0.2191
 1826TIP3    H126969   1.838   1.876  14.035  0.6827  0.9283 -1.8016
 1826TIP3    H226970   1.708   1.820  13.980  1.5181 -0.3193 -2.5135
 1827TIP3   OH226971   3.029   2.856  13.680  0.0003 -0.6051 -0.3451
 1827TIP3    H126972   3.106   2.901  13.715  0.2805 -0.9516 -0.5196
 1827TIP3    H226973   3.026   2.772  13.726 -0.9582 -0.1055  0.5330
 1828TIP3   OH226974   2.023   4.780   1.001  0.6900  0.0813  0.1162
 1828TIP3    H126975   2.032   4.730   0.920  1.0250 -0.8293  0.7053
 1828TIP3    H226976   2.113   4.804   1.024  0.5302  0.9487 -0.1585
 1829TIP3   OH226977   0.138   4.489   0.908 -0.4276 -0.0834 -0.5695
 1829TIP3    H126978   0.087   4.409   0.897  0.2723 -1.1848  3.3563
 1829TIP3    H226979   0.208   4.482   0.843 -2.7685 -0.5986 -3.1028
 1830TIP3   OH226980   6.194   1.578   1.470  0.3856 -0.1901 -0.5038
 1830TIP3    H126981   6.283   1.553   1.444  0.3619  0.1617 -0.9274
 1830TIP3    H226982   6.193   1.673   1.464  0.1891 -0.1433  0.1899
 1831TIP3   OH226983   2.370   3.554   2.640 -0.5625  0.0286  0.0974
 1831TIP3    H126984   2.443   3.557   2.701  0.0137  2.2042 -0.6322
 1831TIP3    H226985   2.325   3.638   2.652 -2.6063 -1.0158  0.1094
 1832TIP3   OH226986   1.514   0.214  16.181  0.6326  0.1164 -0.1664
 1832TIP3    H126987   1.537   0.126  16.151  0.8758 -0.0536  0.5040
 1832TIP3    H226988   1.437   0.237  16.129  1.7321  0.3027 -1.7449
 1833TIP3   OH226989   2.636   5.129   3.433  0.3532  0.2676 -0.1948
 1833TIP3    H126990   2.566   5.064   3.428  0.6763  0.0439 -2.6408
 1833TIP3    H226991   2.708   5.084   3.477 -0.0589 -0.4338 -0.2381
 1834TIP3   OH226992   4.787   5.758   0.634  0.1505  0.2542  0.7039
 1834TIP3    H126993   4.715   5.820   0.643  0.5493  1.1962 -2.1522
 1834TIP3    H226994   4.743   5.675   0.611 -0.0655  0.7019 -0.5220
 1835TIP3   OH226995   4.064   5.329  12.099 -0.4245  0.1271 -0.0977
 1835TIP3    H126996   4.091   5.254  12.153  0.1738  1.0314  0.8644
 1835TIP3    H226997   3.970   5.338  12.115 -0.1051  0.8539  1.3648
 1836TIP3   OH226998   4.099   5.185  12.920  0.2035 -1.1115 -0.7056
 1836TIP3    H126999   4.110   5.272  12.959 -0.6855 -1.4185  0.2353
 1836TIP3    H227000   4.171   5.178  12.857 -0.4137  0.7688 -1.6315
 1837TIP3   OH227001   4.082   2.921  13.285  0.1963  0.6540  0.3635
 1837TIP3    H127002   3.988   2.905  13.275  0.5112 -1.2565  0.3248
 1837TIP3    H227003   4.110   2.950  13.199  0.0528 -0.9578 -0.2349
 1838TIP3   OH227004   2.749   6.742   0.698 -0.0104  0.1458  0.9447
 1838TIP3    H127005   2.656   6.761   0.708 -0.5273 -1.2944 -1.0025
 1838TIP3    H227006   2.760   6.655   0.736  0.3233 -0.1680  0.1261
 1839TIP3   OH227007   4.573   1.555  11.411  0.0822  0.0360  0.0728
 1839TIP3    H127008   4.510   1.501  11.363 -0.7345  0.4631  0.6537
 1839TIP3    H227009   4.590   1.506  11.492  0.5325 -0.0982 -0.1010
 1840TIP3   OH227010   6.813   2.401   5.995 -0.1700 -0.2996 -0.4364
 1840TIP3    H127011   6.882   2.369   5.938 -2.0565 -0.8491 -2.4790
 1840TIP3    H227012   6.814   2.342   6.071  2.2668  0.3624  0.0744
 1841TIP3   OH227013   5.418   3.880  13.958  0.0490 -0.2120  0.2027
 1841TIP3    H127014   5.341   3.824  13.953  0.6455 -1.0953  0.7168
 1841TIP3    H227015   5.388   3.965  13.926 -1.4073 -0.2638  1.3438
 1842TIP3   OH227016   2.778   3.930   1.329  0.7535 -0.4749  0.1965
 1842TIP3    H127017   2.867   3.933   1.363  1.7077  0.7279 -2.2997
 1842TIP3    H227018   2.779   3.859   1.265 -0.3182 -0.9945  0.7422
 1843TIP3   OH227019   5.133   6.587   2.719  0.4542  0.0765 -0.4074
 1843TIP3    H127020   5.040   6.605   2.708  0.3415  0.7430  1.5013
 1843TIP3    H227021   5.138   6.492   2.729  0.1493 -0.1180 -1.9986
 1844TIP3   OH227022   0.225   0.688   5.720 -0.2410 -0.1838 -0.0529
 1844TIP3    H127023   0.292   0.645   5.667 -1.1295 -1.8654  0.1684
 1844TIP3    H227024   0.258   0.777   5.732  1.3167 -0.6063 -1.0539
 1845TIP3   OH227025   4.214   6.584   1.868 -0.1954  0.3571  0.1127
 1845TIP3    H127026   4.177   6.601   1.955 -0.8305 -0.2048 -0.0450
 1845TIP3    H227027   4.232   6.490   1.867  1.9948  0.7498  0.4709
 1846TIP3   OH227028   5.537   1.312  15.288 -0.5797  0.1538 -0.5644
 1846TIP3    H127029   5.536   1.405  15.267 -0.4888  0.2552 -0.1220
 1846TIP3    H227030   5.466   1.275  15.236 -1.3179  0.6512  0.0845
 1847TIP3   OH227031   2.701   6.583   5.555  0.0977  0.1420  0.4940
 1847TIP3    H127032   2.659   6.668   5.560 -0.3746 -0.1883  2.8708
 1847TIP3    H227033   2.650   6.533   5.491 -0.7594  1.0147  0.5024
 1848TIP3   OH227034   1.694   3.789  11.040  0.0670 -0.4684 -0.0401
 1848TIP3    H127035   1.748   3.722  11.081 -0.3226 -0.6927  0.1095
 1848TIP3    H227036   1.738   3.809  10.957  1.1792  0.4333  0.7602
 1849TIP3   OH227037   3.543   3.653   4.470  0.2772 -0.1721 -0.5832
 1849TIP3    H127038   3.510   3.591   4.406 -0.2712  0.5551 -1.0095
 1849TIP3    H227039   3.526   3.739   4.432  0.2204  0.2643  0.3962
 1850TIP3   OH227040   0.105   5.815  16.122  0.1665 -0.4901  0.3982
 1850TIP3    H127041   0.014   5.819  16.092  0.0194  0.7534  0.9832
 1850TIP3    H227042   0.157   5.835  16.044 -0.0545 -1.2463  0.0536
 1851TIP3   OH227043   2.352   2.288   2.201 -0.1820 -0.2412  0.2181
 1851TIP3    H127044   2.347   2.364   2.258 -0.2082  0.8517 -1.2062
 1851TIP3    H227045   2.278   2.298   2.141  0.1362 -1.0913 -0.3311
 1852TIP3   OH227046   2.016   2.543   3.918  0.0617 -0.8700 -0.3928
 1852TIP3    H127047   2.027   2.586   3.834  0.4248 -0.6611 -0.2406
 1852TIP3    H227048   1.996   2.614   3.979  1.8823 -0.7542  0.0902
 1853TIP3   OH227049   6.397   3.204   5.618 -0.1007  0.4011 -0.3981
 1853TIP3    H127050   6.341   3.215   5.695 -0.1074 -1.2211 -0.1562
 1853TIP3    H227051   6.438   3.290   5.606  0.1756  0.5641  1.6087
 1854TIP3   OH227052   3.218   1.600   1.073  0.3630 -0.0981  0.2564
 1854TIP3    H127053   3.156   1.554   1.016  0.1945  1.1953 -0.6315
 1854TIP3    H227054   3.163   1.637   1.142  0.4193 -0.7144  0.6324
 1855TIP3   OH227055   2.488   6.739   4.243  0.4483  0.3568  0.3637
 1855TIP3    H127056   2.530   6.705   4.323 -1.2523  0.1302  1.1736
 1855TIP3    H227057   2.411   6.785   4.274  0.0972  0.7920 -1.1194
 1856TIP3   OH227058   4.901   6.012   2.758  0.3490 -0.1321 -0.2078
 1856TIP3    H127059   4.913   5.976   2.845  0.9244  1.2143  0.2809
 1856TIP3    H227060   4.888   5.936   2.702 -0.7603 -0.9650  1.1645
 1857TIP3   OH227061   0.275   2.017   0.311  1.0703  0.6516  0.1786
 1857TIP3    H127062   0.243   1.938   0.266  0.8718  0.7083  0.2221
 1857TIP3    H227063   0.243   2.089   0.258  1.9901  0.6784 -0.3469
 1858TIP3   OH227064   4.384   4.742  16.999  0.0586  0.0116 -0.1855
 1858TIP3    H127065   4.357   4.650  17.004  1.7121 -0.4289  1.0005
 1858TIP3    H227066   4.302   4.790  16.989 -1.0566 -1.4176  1.6922
 1859TIP3   OH227067   0.141   6.360   5.746 -0.3911  0.0839 -0.2185
 1859TIP3    H127068   0.119   6.289   5.687 -2.2558 -1.8776  2.7030
 1859TIP3    H227069   0.071   6.361   5.811  1.5212  2.1861  1.9461
 1860TIP3   OH227070   3.432   6.745  11.687 -0.2564  0.6753 -0.3265
 1860TIP3    H127071   3.489   6.736  11.764 -0.3463  0.9771 -0.2210
 1860TIP3    H227072   3.474   6.814  11.635 -0.4947  0.8661 -0.2714
 1861TIP3   OH227073   1.206   6.050  14.816  0.2279 -0.2362 -0.2024
 1861TIP3    H127074   1.204   5.995  14.738 -0.4903 -1.2091  0.4900
 1861TIP3    H227075   1.134   6.017  14.870  1.6766 -0.5552  1.5480
 1862TIP3   OH227076   2.072   6.297   2.078  0.8943  0.4070  0.1264
 1862TIP3    H127077   2.152   6.289   2.027 -0.3763  0.9274 -2.0540
 1862TIP3    H227078   2.045   6.207   2.096  0.8059  0.1791 -1.0882
 1863TIP3   OH227079   2.993   2.235  15.797 -0.2935 -0.0166  0.6636
 1863TIP3    H127080   3.066   2.173  15.807 -0.5231 -0.1412  1.6240
 1863TIP3    H227081   3.036   2.318  15.779  0.0366 -0.3414 -0.0946
 1864TIP3   OH227082   1.050   5.374  16.873 -0.6895 -0.1215  0.2649
 1864TIP3    H127083   1.130   5.326  16.852 -0.9083  0.1944 -1.3445
 1864TIP3    H227084   1.025   5.342  16.960 -0.1093 -1.9416 -0.2125
 1865TIP3   OH227085   0.754   0.281  12.025  0.3145  0.6295  0.1717
 1865TIP3    H127086   0.768   0.271  12.119  0.5534 -0.8413 -0.0065
 1865TIP3    H227087   0.674   0.231  12.008 -0.1605  1.5386 -0.2814
 1866TIP3   OH227088   1.528   0.339  11.108  0.2586 -0.6547 -0.1075
 1866TIP3    H127089   1.432   0.340  11.111  0.2986 -1.6135  1.8590
 1866TIP3    H227090   1.548   0.330  11.015 -1.5515 -0.4398 -0.5487
 1867TIP3   OH227091   3.364   6.448   0.859 -0.7363 -0.4938  0.1749
 1867TIP3    H127092   3.367   6.539   0.888 -1.2996 -0.1797 -0.7149
 1867TIP3    H227093   3.274   6.437   0.827 -0.0268 -0.7047 -1.7796
 1868TIP3   OH227094   5.538   5.158  16.374  0.5357  0.0167 -0.6262
 1868TIP3    H127095   5.592   5.237  16.363 -0.9897  1.4695  1.8595
 1868TIP3    H227096   5.463   5.172  16.317  1.2727 -0.6176 -1.7733
 1869TIP3   OH227097   5.306   3.003   0.267 -0.0186  0.2530  0.4852
 1869TIP3    H127098   5.353   2.923   0.243  0.5994  0.9634 -0.7170
 1869TIP3    H227099   5.368   3.074   0.249 -1.3068  1.1597 -0.5045
 1870TIP3   OH227100   1.068   4.235   5.076  0.0431  0.1849 -0.0057
 1870TIP3    H127101   0.996   4.239   5.138 -0.5860 -0.7461 -0.6500
 1870TIP3    H227102   1.146   4.221   5.130 -0.1942  1.5737  0.7184
 1871TIP3   OH227103   3.051   3.665  15.136 -0.4326  0.4373  0.0344
 1871TIP3    H127104   3.081   3.753  15.157  2.0868 -0.4206  0.1824
 1871TIP3    H227105   2.975   3.652  15.194  0.5192  1.6840  1.6155
 1872TIP3   OH227106   1.502   1.408   6.248 -0.1476 -0.5349  0.0565
 1872TIP3    H127107   1.579   1.366   6.211 -0.0195 -2.4014  2.3392
 1872TIP3    H227108   1.532   1.445   6.331 -1.2154  0.6351 -0.0508
 1873TIP3   OH227109   0.394   1.299   3.932  0.3093 -0.0060 -0.3413
 1873TIP3    H127110   0.318   1.343   3.894 -0.3401 -1.0966 -0.3328
 1873TIP3    H227111   0.430   1.245   3.862  0.0793 -0.7695  0.1173
 1874TIP3   OH227112   0.414   2.022  15.441 -0.7690 -0.4646 -0.3532
 1874TIP3    H127113   0.422   1.927  15.436  0.0431 -0.5047  1.4519
 1874TIP3    H227114   0.388   2.040  15.531  0.8027  1.1179 -0.1847
 1875TIP3   OH227115   0.597   2.119  16.008 -0.4730  0.7881  0.6170
 1875TIP3    H127116   0.541   2.196  16.018 -0.0024  1.1850  0.2137
 1875TIP3    H227117   0.636   2.128  15.921 -1.5397 -0.6567 -0.0488
 1876TIP3   OH227118   0.468   0.123  11.509 -0.3355  0.6219 -0.0182
 1876TIP3    H127119   0.489   0.030  11.497 -2.3308 -0.1226  1.7181
 1876TIP3    H227120   0.443   0.154  11.422  2.3892  0.1199 -1.0243
 1877TIP3   OH227121   5.798   2.391   3.512  0.3474  0.2585  0.2022
 1877TIP3    H127122   5.868   2.444   3.551 -0.1185  0.2333  1.0776
 1877TIP3    H227123   5.761   2.343   3.586 -0.6162  0.2965 -0.2575
 1878TIP3   OH227124   4.266   2.884   5.251 -0.1368  0.1045  0.1127
 1878TIP3    H127125   4.359   2.883   5.230 -0.0056  1.2527  0.6129
 1878TIP3    H227126   4.256   2.822   5.323  0.4316  0.7864  0.7908
 1879TIP3   OH227127   4.004   5.064   1.039 -0.2757  0.5678 -0.0752
 1879TIP3    H127128   4.041   5.146   1.006  0.4448  1.0162  1.7420
 1879TIP3    H227129   4.068   4.997   1.014  0.4837  0.9652  0.7421
 1880TIP3   OH227130   6.683   5.109  15.809  0.2732 -0.2951 -0.0546
 1880TIP3    H127131   6.627   5.148  15.742  1.0947 -0.3618 -0.7831
 1880TIP3    H227132   6.662   5.016  15.806 -0.3456 -0.1753  0.4140
 1881TIP3   OH227133   2.103   2.723   5.175  0.2311 -0.1428 -0.0980
 1881TIP3    H127134   2.038   2.765   5.119 -0.1805 -1.1561 -0.3854
 1881TIP3    H227135   2.052   2.692   5.251  0.7271  0.9318  0.6927
 1882TIP3   OH227136   0.236   6.513  16.062 -0.1956 -0.4885  0.3012
 1882TIP3    H127137   0.202   6.497  15.974  0.7912  0.6750 -0.3097
 1882TIP3    H227138   0.320   6.556  16.048 -0.7413  1.1408  1.8180
 1883TIP3   OH227139   5.852   2.327   3.027  0.2477 -0.2000  0.5470
 1883TIP3    H127140   5.826   2.236   3.043  0.0883 -0.2950 -0.2440
 1883TIP3    H227141   5.771   2.377   3.040  0.2671 -0.2055  0.6869
 1884TIP3   OH227142   2.002   0.232   5.304 -0.1628 -0.1294  0.3461
 1884TIP3    H127143   1.950   0.307   5.333  0.6580 -0.1336  1.8910
 1884TIP3    H227144   2.006   0.174   5.381 -0.2266 -1.4392 -0.6194
 1885TIP3   OH227145   0.986   1.516   1.916 -0.8541 -0.4544  0.1232
 1885TIP3    H127146   0.896   1.542   1.935  0.4929  3.0736  2.3122
 1885TIP3    H227147   1.028   1.510   2.002  0.9905 -2.0480 -0.8554
 1886TIP3   OH227148   3.120   1.647   4.243  0.7673 -0.0984  0.0512
 1886TIP3    H127149   3.056   1.718   4.254 -0.9359 -1.3740 -1.3876
 1886TIP3    H227150   3.076   1.583   4.187  2.8741 -1.5728  0.0180
 1887TIP3   OH227151   5.919   1.313   3.028 -0.3513  0.3311  0.1450
 1887TIP3    H127152   5.922   1.240   2.967  0.0457  1.1695 -0.8460
 1887TIP3    H227153   6.011   1.329   3.051 -0.4513  0.4133  0.5017
 1888TIP3   OH227154   4.906   5.448  16.991 -0.5287  0.2918  0.1152
 1888TIP3    H127155   4.990   5.492  17.005  0.4947 -1.9195  1.1474
 1888TIP3    H227156   4.929   5.358  16.970 -2.6576 -0.5363  1.1696
 1889TIP3   OH227157   6.590   4.840  15.760 -0.8229  0.7519  0.0429
 1889TIP3    H127158   6.582   4.815  15.852 -0.7076 -0.9726 -0.3966
 1889TIP3    H227159   6.501   4.828  15.725 -0.5769  0.0982 -0.3736
 1890TIP3   OH227160   3.339   6.539  12.942 -0.0402 -0.4900 -0.2016
 1890TIP3    H127161   3.273   6.566  12.878 -0.0167  0.7913  0.3060
 1890TIP3    H227162   3.420   6.531  12.891  0.0769  0.9761 -0.2439
 1891TIP3   OH227163   4.701   6.317   1.185 -0.2127 -0.3519  0.0719
 1891TIP3    H127164   4.704   6.298   1.091 -1.7968  2.1154 -0.5124
 1891TIP3    H227165   4.610   6.300   1.210 -0.1362  0.3717  0.8682
 1892TIP3   OH227166   5.353   0.003   1.534  0.0599 -0.0471  0.2500
 1892TIP3    H127167   5.384   0.004   1.625 -0.8090 -1.0348  0.5577
 1892TIP3    H227168   5.425  -0.035   1.485  0.7890  1.0741  0.4188
 1893TIP3   OH227169   1.238   1.154  11.743 -0.2485 -0.4264 -0.0357
 1893TIP3    H127170   1.247   1.110  11.658 -1.1963  1.4898 -1.1561
 1893TIP3    H227171   1.303   1.223  11.741 -1.3452  0.6260  0.1473
 1894TIP3   OH227172   4.417   3.717   5.992  0.1212 -0.1899  0.0787
 1894TIP3    H127173   4.443   3.786   6.053  0.2989 -1.1550  1.1139
 1894TIP3    H227174   4.473   3.730   5.916 -1.7240  2.4759 -0.8868
 1895TIP3   OH227175   0.624   2.768  16.446  0.0351 -0.0543 -0.1952
 1895TIP3    H127176   0.697   2.830  16.442  0.1526 -0.2857 -2.1432
 1895TIP3    H227177   0.651   2.703  16.511  2.1138 -0.8370 -1.8069
 1896TIP3   OH227178   0.678   5.006  16.727  0.0098  0.1924 -1.1610
 1896TIP3    H127179   0.672   5.081  16.668 -0.5517  1.0968  0.0093
 1896TIP3    H227180   0.591   4.999  16.766  0.7048  0.4242  0.5003
 1897TIP3   OH227181   1.828   1.641   6.298 -0.2753  0.3718 -0.5288
 1897TIP3    H127182   1.751   1.612   6.347  0.3752  0.1261  0.3565
 1897TIP3    H227183   1.872   1.703   6.356 -1.0205  2.2906 -1.9502
 1898TIP3   OH227184   4.822   3.653   4.799  0.5065  0.2073 -1.1677
 1898TIP3    H127185   4.793   3.641   4.708  1.0582 -0.4016 -1.2662
 1898TIP3    H227186   4.855   3.567   4.825  1.3944  0.6732 -0.7539
 1899TIP3   OH227187   6.089   2.277  11.278  0.2802  0.0621 -0.5821
 1899TIP3    H127188   6.046   2.283  11.363  0.8546 -0.0568 -0.2854
 1899TIP3    H227189   6.072   2.362  11.237  0.4525  0.3166 -0.1323
 1900TIP3   OH227190   2.951   3.653   2.347 -0.2020 -0.0982 -0.0181
 1900TIP3    H127191   2.860   3.623   2.353  0.5792 -2.6306 -0.5144
 1900TIP3    H227192   3.003   3.576   2.366  1.8967  0.9115 -1.5383
 1901TIP3   OH227193   0.228   3.821   4.386 -0.2228  0.1766  0.4909
 1901TIP3    H127194   0.263   3.773   4.462  0.4997 -0.6606 -0.3535
 1901TIP3    H227195   0.305   3.862   4.346 -0.4408 -0.3018 -0.4218
 1902TIP3   OH227196   6.287   3.385  17.071  0.7437  0.5007 -0.3774
 1902TIP3    H127197   6.192   3.394  17.069  0.4681 -2.0274 -3.3753
 1902TIP3    H227198   6.320   3.471  17.043 -0.7216  0.8604 -1.0500
 1903TIP3   OH227199   3.005   5.306  13.584 -0.2824 -0.3753 -0.3546
 1903TIP3    H127200   3.052   5.318  13.501  0.4081 -0.1021  0.0641
 1903TIP3    H227201   2.980   5.394  13.610 -0.3534 -0.4429 -0.1941
 1904TIP3   OH227202   0.589   2.064   6.167  0.3580  0.4038  0.1143
 1904TIP3    H127203   0.608   2.088   6.257 -1.0299 -0.1774  0.5814
 1904TIP3    H227204   0.522   2.126   6.139 -1.0030 -0.9329  0.3209
 1905TIP3   OH227205   4.774   5.180  11.971  0.5219  0.0658 -0.6978
 1905TIP3    H127206   4.681   5.179  11.948  0.2859  2.1296  0.0985
 1905TIP3    H227207   4.790   5.269  12.003  2.1772 -0.9912  1.5737
 1906TIP3   OH227208   3.984   3.961  17.199  0.3958 -0.3231  0.0048
 1906TIP3    H127209   3.964   3.904  17.274 -0.5519  0.2485  0.1808
 1906TIP3    H227210   3.982   4.049  17.235  0.1993 -0.0659 -0.6445
 1907TIP3   OH227211   2.603   0.517  16.939  0.0416 -0.2364  0.3523
 1907TIP3    H127212   2.691   0.534  16.906 -0.3822  1.3399 -0.0263
 1907TIP3    H227213   2.546   0.565  16.879 -1.0410 -0.7940  0.9161
 1908TIP3   OH227214   5.839   6.467   2.788 -0.1168  0.4710 -0.2953
 1908TIP3    H127215   5.821   6.476   2.695 -1.9809 -0.8310 -0.0837
 1908TIP3    H227216   5.889   6.545   2.811  1.1466  0.3502 -2.5681
 1909TIP3   OH227217   4.020   4.994   5.393 -0.0410 -0.2458 -0.5618
 1909TIP3    H127218   4.093   5.028   5.341  2.1874 -2.4016  0.9816
 1909TIP3    H227219   4.050   5.001   5.484 -1.5648 -1.5496  0.0781
 1910TIP3   OH227220   4.046   3.917   0.534 -0.1428 -0.2341 -0.0917
 1910TIP3    H127221   4.063   4.007   0.507  0.7037 -0.3833 -0.0790
 1910TIP3    H227222   4.050   3.919   0.629 -2.5997  0.1897  0.0165
 1911TIP3   OH227223   5.904   5.478   3.014 -0.0539 -0.0036 -0.3736
 1911TIP3    H127224   5.818   5.479   3.056  0.2034  0.6691  0.1417
 1911TIP3    H227225   5.886   5.457   2.922 -0.9134  1.5757 -0.5835
 1912TIP3   OH227226   6.608   3.146  15.077 -0.2909  0.2943  0.3913
 1912TIP3    H127227   6.606   3.140  14.982  1.1591  0.3633  0.3439
 1912TIP3    H227228   6.617   3.239  15.096 -0.5148  0.2761  0.5857
 1913TIP3   OH227229   6.475   3.592  16.872  0.9024  0.1089  0.1474
 1913TIP3    H127230   6.502   3.630  16.788 -0.3533  2.3383  0.6801
 1913TIP3    H227231   6.541   3.527  16.892  1.4498 -0.1695 -2.3844
 1914TIP3   OH227232   0.489   1.555  12.247  0.7728  0.1248 -0.6247
 1914TIP3    H127233   0.569   1.578  12.293  0.0290 -0.7145  1.1285
 1914TIP3    H227234   0.423   1.616  12.282  0.1112 -0.7940 -0.2499
 1915TIP3   OH227235   4.175   5.875  11.826 -0.2335  0.1007  0.3000
 1915TIP3    H127236   4.228   5.797  11.806 -0.1052 -0.5479  3.0914
 1915TIP3    H227237   4.159   5.871  11.920 -2.2947  2.1863  0.0882
 1916TIP3   OH227238   6.089   6.261  17.016  0.4482  0.0157 -0.4547
 1916TIP3    H127239   6.009   6.310  17.038  1.5416  1.0767  1.3017
 1916TIP3    H227240   6.126   6.308  16.942  0.6321  0.8918  0.1839
 1917TIP3   OH227241   4.005   0.594  14.103  0.2517  0.3226  0.3825
 1917TIP3    H127242   3.966   0.631  14.182  1.6797  1.0117  0.7619
 1917TIP3    H227243   3.930   0.578  14.045 -0.5195  2.6081  0.7153
 1918TIP3   OH227244   1.097   5.793   5.593 -0.1321  0.5970  0.0967
 1918TIP3    H127245   1.041   5.823   5.665  0.2454  0.1175  0.5921
 1918TIP3    H227246   1.156   5.730   5.634 -0.8081 -0.6941 -0.9012
 1919TIP3   OH227247   3.841   1.134   0.665 -0.0162 -0.1295  0.0084
 1919TIP3    H127248   3.922   1.159   0.621  1.0623 -0.8440  1.5293
 1919TIP3    H227249   3.781   1.208   0.650  0.6562  0.0796 -1.7485
 1920TIP3   OH227250   3.918   6.385  13.648 -0.2828  0.5873 -0.3381
 1920TIP3    H127251   3.940   6.380  13.742 -1.5447 -0.6543 -0.0906
 1920TIP3    H227252   3.854   6.456  13.642 -2.5057 -1.3017  0.2343
 1921TIP3   OH227253   1.228   0.443   3.115 -0.1774 -0.3756 -0.1707
 1921TIP3    H127254   1.221   0.536   3.094  1.3777  0.1383  1.4732
 1921TIP3    H227255   1.322   0.426   3.118 -0.4308 -1.6185  1.0943
 1922TIP3   OH227256   5.083   1.571  13.904  0.0762  0.6280 -0.2066
 1922TIP3    H127257   5.152   1.547  13.966  0.3283  0.1394 -0.6685
 1922TIP3    H227258   5.044   1.650  13.940 -0.3580 -0.1327  1.0449
 1923TIP3   OH227259   3.631   2.082   3.448 -0.1353  0.0974 -0.0376
 1923TIP3    H127260   3.543   2.118   3.455 -0.4139 -0.9200  2.0537
 1923TIP3    H227261   3.660   2.107   3.360 -2.1040  1.3134 -0.3758
 1924TIP3   OH227262   1.313   5.617   1.288 -0.2622  0.9258  0.1383
 1924TIP3    H127263   1.271   5.541   1.328  1.2199 -0.0229 -0.0832
 1924TIP3    H227264   1.286   5.691   1.342 -0.3018 -0.0014  1.4042
 1925TIP3   OH227265   3.809   2.506  12.567  0.4265  0.1979 -0.1658
 1925TIP3    H127266   3.757   2.500  12.647 -0.4512 -0.8927 -0.8064
 1925TIP3    H227267   3.878   2.440  12.579  0.3151  0.0587 -0.2828
 1926TIP3   OH227268   6.349   6.724  16.354  0.0087 -0.6450  0.1973
 1926TIP3    H127269   6.303   6.755  16.275  3.0254  1.7892 -0.7038
 1926TIP3    H227270   6.406   6.654  16.322  1.3423  0.4414  0.1414
 1927TIP3   OH227271   3.563   5.755  14.275 -0.3324 -0.1535 -0.6088
 1927TIP3    H127272   3.511   5.771  14.354  0.4364 -0.3219 -0.0630
 1927TIP3    H227273   3.559   5.661  14.262 -4.2348  0.2729 -3.3984
 1928TIP3   OH227274   0.036   6.008   1.874  0.7509  0.2541 -0.6954
 1928TIP3    H127275   0.091   5.931   1.860  0.6265  0.3103 -1.4786
 1928TIP3    H227276   0.010   6.002   1.966  0.2216 -0.9856 -0.9195
 1929TIP3   OH227277   6.614   1.045   6.285 -0.0034 -0.6439  0.4528
 1929TIP3    H127278   6.541   0.998   6.245  0.9812 -0.9557 -0.9952
 1929TIP3    H227279   6.631   1.117   6.225  0.7214 -0.4201  0.9244
 1930TIP3   OH227280   3.698   2.664   5.593  0.8695  0.7805  0.2372
 1930TIP3    H127281   3.662   2.680   5.506  0.1513  1.4154  0.6338
 1930TIP3    H227282   3.627   2.688   5.653  1.4335  0.5789  1.0008
 1931TIP3   OH227283   5.366   4.465  16.843 -0.0917 -0.0594 -0.6090
 1931TIP3    H127284   5.401   4.478  16.755  3.3027 -1.9658  0.3472
 1931TIP3    H227285   5.318   4.382  16.838 -2.2293  1.1967 -1.2792
 1932TIP3   OH227286   5.988   1.274   5.537 -0.0800  0.0440 -0.7908
 1932TIP3    H127287   6.055   1.210   5.514  0.9439  0.6132  0.5435
 1932TIP3    H227288   6.028   1.359   5.520 -0.7568  0.3729 -0.7717
 1933TIP3   OH227289   4.785   1.737   4.921  0.4132  0.0946  0.9155
 1933TIP3    H127290   4.814   1.776   4.838 -0.3667  1.3744  1.2388
 1933TIP3    H227291   4.867   1.707   4.962  1.1266  2.2311  1.0855
 1934TIP3   OH227292   1.332   5.000  11.563  0.1232  0.2517 -0.2046
 1934TIP3    H127293   1.300   5.022  11.476 -0.3984 -1.5146 -0.4925
 1934TIP3    H227294   1.422   4.970  11.550  0.1652  0.3263 -0.0918
 1935TIP3   OH227295   2.057   0.739   4.284  0.1371  0.3780  0.3448
 1935TIP3    H127296   1.987   0.720   4.222  0.6973  1.2735 -0.5755
 1935TIP3    H227297   2.108   0.808   4.242  2.6911 -1.5859  0.1530
 1936TIP3   OH227298   2.986   2.939   2.295  0.2651 -0.2107 -0.0223
 1936TIP3    H127299   3.081   2.954   2.301  0.1143  0.8129 -0.0339
 1936TIP3    H227300   2.951   3.024   2.268 -0.9226  0.1213  2.4298
 1937TIP3   OH227301   1.760   3.962   3.837 -0.1147  0.4683 -0.2280
 1937TIP3    H127302   1.835   3.918   3.878 -0.2200 -1.2154 -1.7580
 1937TIP3    H227303   1.769   3.941   3.744 -2.4479  0.3201 -0.4308
 1938TIP3   OH227304   4.831   5.812  13.257  0.0790 -0.4763  0.4373
 1938TIP3    H127305   4.872   5.729  13.280  1.3946  0.2499  0.8091
 1938TIP3    H227306   4.776   5.833  13.333 -0.0607 -0.8854  0.4505
 1939TIP3   OH227307   3.066   0.446  16.038 -0.1091  0.1893 -0.2041
 1939TIP3    H127308   3.110   0.525  16.071 -0.7605  0.9762 -1.1943
 1939TIP3    H227309   3.029   0.405  16.116 -0.4522  1.2830  0.2184
 1940TIP3   OH227310   2.645   1.322   2.321 -0.1786  0.1418 -0.3595
 1940TIP3    H127311   2.714   1.285   2.266 -1.0482  0.4464 -1.6766
 1940TIP3    H227312   2.627   1.408   2.283 -1.3439  0.0296 -0.0807
 1941TIP3   OH227313   5.137   5.022  14.751 -0.4158  0.4617 -0.2710
 1941TIP3    H127314   5.225   4.993  14.725 -0.3751  0.6821 -0.3849
 1941TIP3    H227315   5.146   5.116  14.764 -0.1017  0.1586  1.8977
 1942TIP3   OH227316   1.844   6.387  16.896  0.3815 -0.1448 -0.0349
 1942TIP3    H127317   1.853   6.476  16.863  2.4116 -0.0685  0.5921
 1942TIP3    H227318   1.773   6.392  16.960 -1.2726  0.4249 -1.8635
 1943TIP3   OH227319   5.008   5.490   4.392  0.2718  0.2335  0.4436
 1943TIP3    H127320   4.936   5.533   4.438  0.5396  0.8113  0.3226
 1943TIP3    H227321   5.083   5.550   4.402  0.7696 -0.4213  0.6752
 1944TIP3   OH227322   4.186   5.367  17.170  0.5642 -0.7321  0.1568
 1944TIP3    H127323   4.212   5.285  17.211 -1.1863 -0.8740  1.0264
 1944TIP3    H227324   4.099   5.385  17.206  0.1034  0.4838 -1.5296
 1945TIP3   OH227325   5.374   5.920  17.194 -0.4385  0.5441  0.6086
 1945TIP3    H127326   5.419   6.001  17.216  0.7389 -0.3091  1.3770
 1945TIP3    H227327   5.327   5.897  17.274 -0.8509  0.5050  0.3582
 1946TIP3   OH227328   6.497   6.031  12.800  0.2002 -0.0180 -0.2195
 1946TIP3    H127329   6.563   6.064  12.860  0.3540 -0.2798 -0.2434
 1946TIP3    H227330   6.439   6.106  12.784  1.5678  0.7445 -1.6953
 1947TIP3   OH227331   5.039   4.215  11.039  0.3800  0.4507 -0.8568
 1947TIP3    H127332   5.047   4.199  10.945  0.0920  0.9904 -0.9754
 1947TIP3    H227333   4.952   4.183  11.061  0.6677 -0.2124 -0.6575
 1948TIP3   OH227334   1.626   4.678  16.666  0.0524 -0.0685 -0.1194
 1948TIP3    H127335   1.664   4.700  16.581  0.1431 -1.2060 -0.3824
 1948TIP3    H227336   1.633   4.759  16.717 -0.3474  0.7357 -1.3117
 1949TIP3   OH227337   2.117   3.851   4.188  0.4184  0.4274  0.0339
 1949TIP3    H127338   2.080   3.867   4.101  1.0128 -1.6033 -0.6060
 1949TIP3    H227339   2.050   3.883   4.249 -1.4381 -1.1176 -1.1465
 1950TIP3   OH227340   6.108   4.515  11.567  0.1639 -0.3548 -0.2010
 1950TIP3    H127341   6.018   4.547  11.567 -0.5178 -2.1781 -1.9002
 1950TIP3    H227342   6.125   4.492  11.476  2.1380 -0.6237  0.2277
 1951TIP3   OH227343   3.183   3.667   4.559 -0.4469 -0.5899  0.4800
 1951TIP3    H127344   3.186   3.627   4.646 -0.8711 -1.0851  0.2668
 1951TIP3    H227345   3.186   3.761   4.576  0.2707 -0.6983  0.9927
 1952TIP3   OH227346   3.557   6.545  10.836 -0.7599 -0.3625 -0.0889
 1952TIP3    H127347   3.648   6.563  10.812 -0.6518 -1.9150 -0.9087
 1952TIP3    H227348   3.509   6.554  10.754 -1.1233 -0.9830  0.0537
 1953TIP3   OH227349   5.334   0.555   3.951 -0.5529  0.2959  0.0190
 1953TIP3    H127350   5.267   0.488   3.938  0.5865 -0.5629 -1.6498
 1953TIP3    H227351   5.298   0.633   3.909 -0.8846  0.0622 -0.1329
 1954TIP3   OH227352   0.790   6.145   6.360 -0.3400  0.6121 -0.0884
 1954TIP3    H127353   0.755   6.232   6.339  1.2577  1.1925 -0.4323
 1954TIP3    H227354   0.859   6.162   6.424  0.6881 -0.2882 -0.9323
 1955TIP3   OH227355   1.319   2.313   2.207 -0.4649  0.4285  0.8344
 1955TIP3    H127356   1.271   2.230   2.212  0.9125 -0.3832  0.8400
 1955TIP3    H227357   1.326   2.331   2.113 -0.9654  0.6705  0.8392
 1956TIP3   OH227358   1.712   5.540  14.307  0.2314  0.0224 -0.3855
 1956TIP3    H127359   1.709   5.586  14.223 -0.3754 -3.1785 -2.2020
 1956TIP3    H227360   1.805   5.535  14.328  0.4890 -0.4885 -1.6420
 1957TIP3   OH227361   0.046   5.245   2.901 -0.3305 -0.4460 -0.1978
 1957TIP3    H127362   0.018   5.333   2.873 -1.4705 -1.2573 -1.6852
 1957TIP3    H227363   0.007   5.234   2.987  0.7471  0.9418  0.4954
 1958TIP3   OH227364   0.682   0.884  13.529  0.4264 -0.0957 -1.3324
 1958TIP3    H127365   0.597   0.922  13.552  1.6285  0.7085  2.2246
 1958TIP3    H227366   0.729   0.954  13.484 -0.2220  0.0040 -1.8443
 1959TIP3   OH227367   5.486   5.743  16.692 -0.1618  0.0731  0.6450
 1959TIP3    H127368   5.567   5.724  16.740 -0.2823 -0.4452  0.6527
 1959TIP3    H227369   5.462   5.832  16.718 -0.2449 -0.2113  1.5762
 1960TIP3   OH227370   1.953   4.767   1.282 -0.3276  0.4851  0.6587
 1960TIP3    H127371   2.011   4.770   1.206 -1.8854  0.6166 -0.5553
 1960TIP3    H227372   1.906   4.850   1.280 -0.1548  0.6288  1.9654
 1961TIP3   OH227373   6.779   6.669   1.116 -0.1889  0.0121  0.0338
 1961TIP3    H127374   6.828   6.649   1.036 -0.4164 -1.6457  0.2849
 1961TIP3    H227375   6.687   6.661   1.090 -0.2847  0.3580  0.2530
 1962TIP3   OH227376   6.080   3.362   2.470 -0.2435  0.1733 -0.1233
 1962TIP3    H127377   6.158   3.416   2.467  1.1424 -1.7652  0.2380
 1962TIP3    H227378   6.068   3.332   2.380  0.1235 -0.4863  0.0440
 1963TIP3   OH227379   1.163   3.325   4.085  0.7853  0.3095 -0.3810
 1963TIP3    H127380   1.091   3.326   4.021  0.1086  2.3998  0.3589
 1963TIP3    H227381   1.179   3.232   4.101 -1.5327 -0.2138 -0.8039
 1964TIP3   OH227382   1.852   0.137  12.918 -0.1945 -0.4625 -0.4435
 1964TIP3    H127383   1.838   0.136  12.823 -2.9733 -1.7923 -0.0834
 1964TIP3    H227384   1.850   0.229  12.942 -0.5029 -0.1723 -1.5441
 1965TIP3   OH227385   3.770   2.267  15.211 -0.4754 -0.1871 -0.8442
 1965TIP3    H127386   3.801   2.353  15.181 -1.1098 -0.4068 -2.1470
 1965TIP3    H227387   3.683   2.284  15.246  0.3568  0.1100  1.1305
 1966TIP3   OH227388   2.982   5.068  12.333  0.0057  0.0712 -0.4947
 1966TIP3    H127389   3.017   5.054  12.421  1.1553 -0.0132 -0.9606
 1966TIP3    H227390   2.946   4.983  12.307  0.2753 -0.0818 -0.3686
 1967TIP3   OH227391   5.963   3.873  12.301  0.2133  0.4719 -0.9262
 1967TIP3    H127392   5.944   3.808  12.370 -2.4868  1.4954 -0.6350
 1967TIP3    H227393   6.027   3.830  12.245 -1.1669 -2.3327 -0.4799
 1968TIP3   OH227394   6.388   3.729   1.865  0.1842 -0.6733 -0.0967
 1968TIP3    H127395   6.472   3.689   1.886  0.2015 -0.5632  0.0453
 1968TIP3    H227396   6.403   3.823   1.874 -0.3146 -0.7226  1.2739
 1969TIP3   OH227397   5.298   0.718   5.638 -0.2213  0.1045 -0.5570
 1969TIP3    H127398   5.386   0.724   5.600  0.0350 -0.4570 -0.0471
 1969TIP3    H227399   5.311   0.680   5.724 -0.8370  1.1544  0.0177
 1970TIP3   OH227400   1.763   6.288  13.690  0.4289 -0.2410 -0.2819
 1970TIP3    H127401   1.718   6.352  13.634  0.2310  0.5956  0.8089
 1970TIP3    H227402   1.856   6.306  13.675  0.4078 -1.0286 -1.4666
 1971TIP3   OH227403   4.423   2.191  10.284  0.2357 -0.5067 -0.3800
 1971TIP3    H127404   4.358   2.147  10.339  0.5320 -0.3144  0.1252
 1971TIP3    H227405   4.441   2.273  10.329  0.9464 -0.6285 -0.4338
 1972TIP3   OH227406   0.169   6.217  11.136  0.3195 -0.1027 -0.1011
 1972TIP3    H127407   0.251   6.229  11.185  0.8148 -1.4301 -0.5879
 1972TIP3    H227408   0.189   6.148  11.073 -1.1458 -0.3549 -0.2958
 1973TIP3   OH227409   4.568   2.020  15.541 -0.2214  0.5406 -0.8719
 1973TIP3    H127410   4.631   2.075  15.494  2.0633  0.1192  1.5667
 1973TIP3    H227411   4.533   2.076  15.609  0.7611 -0.4396  0.4754
 1974TIP3   OH227412   2.016   0.305   0.582 -0.2616  0.6005  0.6808
 1974TIP3    H127413   2.048   0.323   0.493 -0.5856 -0.7286  0.2871
 1974TIP3    H227414   2.090   0.264   0.626  0.2621  2.2512  1.3796
 1975TIP3   OH227415   0.259   1.431   5.421 -0.2807 -0.7633 -0.1364
 1975TIP3    H127416   0.171   1.446   5.385  0.2231  0.9436 -0.7323
 1975TIP3    H227417   0.279   1.340   5.399 -1.4260 -0.8057 -1.0621
 1976TIP3   OH227418   5.392   4.614  15.310  0.0221 -0.1518 -0.4844
 1976TIP3    H127419   5.344   4.648  15.385 -1.4994 -0.9621 -1.0780
 1976TIP3    H227420   5.410   4.522  15.332 -1.0929 -0.6095 -1.4086
 1977TIP3   OH227421   0.459   5.819   1.352  0.3415 -0.0265 -0.1020
 1977TIP3    H127422   0.451   5.875   1.275  1.4219  0.1554 -0.0871
 1977TIP3    H227423   0.498   5.876   1.419 -1.9464  0.2671  1.0697
 1978TIP3   OH227424   1.758   1.429  10.805  0.0779 -0.5422  0.2593
 1978TIP3    H127425   1.828   1.445  10.742  1.6713 -1.3693  1.7913
 1978TIP3    H227426   1.687   1.391  10.752  1.2450 -0.8805 -1.0984
 1979TIP3   OH227427   0.354   6.501  15.394 -0.0417  0.2352 -0.8387
 1979TIP3    H127428   0.356   6.538  15.306  0.5931 -0.2752 -1.0487
 1979TIP3    H227429   0.433   6.535  15.436  0.3026 -0.4963 -0.8812
 1980TIP3   OH227430   2.807   0.109   5.336  0.5535 -0.2345 -0.0476
 1980TIP3    H127431   2.845   0.026   5.310 -0.0749  0.1972 -2.4531
 1980TIP3    H227432   2.821   0.113   5.431 -0.1800 -3.4423  0.2508
 1981TIP3   OH227433   3.236   6.096   0.878  0.0132 -0.2254  0.1794
 1981TIP3    H127434   3.220   6.019   0.932 -0.4370 -2.5183 -3.0359
 1981TIP3    H227435   3.330   6.111   0.885 -0.0678 -0.4044  1.6968
 1982TIP3   OH227436   3.586   4.317  12.119 -0.0042 -0.1635 -0.0986
 1982TIP3    H127437   3.663   4.261  12.108 -0.5407 -0.6570 -1.5455
 1982TIP3    H227438   3.515   4.270  12.074 -1.2643  0.0703  1.5826
 1983TIP3   OH227439   3.937   0.029  11.476 -0.4226 -0.2957  0.0182
 1983TIP3    H127440   4.028   0.042  11.450 -0.7295  0.5017 -0.6577
 1983TIP3    H227441   3.937   0.041  11.571  0.0220  0.6222 -0.0953
 1984TIP3   OH227442   1.485   2.588  16.938 -0.8468 -0.6890  0.0975
 1984TIP3    H127443   1.430   2.664  16.955  0.3473  0.1398  0.2374
 1984TIP3    H227444   1.509   2.556  17.025  1.2549  0.6652  0.0378
 1985TIP3   OH227445   0.658   3.488   3.598 -0.2656  0.3412  0.5202
 1985TIP3    H127446   0.613   3.426   3.655  0.2952 -1.5032 -1.0023
 1985TIP3    H227447   0.720   3.435   3.548  1.0859  2.3043  0.0353
 1986TIP3   OH227448   2.991   6.119   6.174 -0.0103 -0.3475  0.1411
 1986TIP3    H127449   2.903   6.149   6.152 -0.1446  0.4001  1.6251
 1986TIP3    H227450   2.981   6.077   6.260  1.3920  1.3392  1.1468
 1987TIP3   OH227451   2.792   1.988   4.928 -0.5601 -0.0487 -0.0023
 1987TIP3    H127452   2.812   2.080   4.944  0.0941 -0.2531  0.3517
 1987TIP3    H227453   2.831   1.969   4.843  0.2608 -0.2887  0.4211
 1988TIP3   OH227454   2.996   3.954  13.854 -1.0736  0.2749 -0.3767
 1988TIP3    H127455   2.954   3.927  13.936 -1.1487  1.0238 -0.1638
 1988TIP3    H227456   2.925   3.992  13.803 -1.1174 -0.6013 -0.9844
 1989TIP3   OH227457   3.271   2.650  14.089 -0.3067  0.3785 -0.3180
 1989TIP3    H127458   3.356   2.623  14.053 -0.7660  0.0622 -1.1852
 1989TIP3    H227459   3.245   2.724  14.034 -0.4863  0.6338  0.1064
 1990TIP3   OH227460   3.704   4.559  12.535  0.3492  0.5848 -0.0395
 1990TIP3    H127461   3.784   4.607  12.558  1.3245 -1.3742  0.8476
 1990TIP3    H227462   3.728   4.509  12.457  0.9040 -2.0693  1.7432
 1991TIP3   OH227463   5.992   6.172   3.168  0.2458  0.0227  0.7595
 1991TIP3    H127464   6.056   6.181   3.098 -0.5225 -1.6118 -0.1843
 1991TIP3    H227465   6.030   6.220   3.242  1.8147  0.3867 -0.2611
 1992TIP3   OH227466   5.408   0.656   3.325 -0.0093 -0.1624  0.3431
 1992TIP3    H127467   5.497   0.680   3.299 -0.4821  0.3808 -0.8356
 1992TIP3    H227468   5.413   0.562   3.344  0.6865 -0.2646 -0.3074
 1993TIP3   OH227469   1.698   0.600  13.451 -0.5718  0.3278 -0.4628
 1993TIP3    H127470   1.657   0.543  13.516 -1.2232  0.5659 -0.6614
 1993TIP3    H227471   1.652   0.683  13.460 -0.8205  0.2925 -1.3836
 1994TIP3   OH227472   3.515   0.650   5.276  0.1515  0.1852 -0.4877
 1994TIP3    H127473   3.529   0.651   5.371 -2.4918 -0.1217 -0.0590
 1994TIP3    H227474   3.487   0.739   5.255  0.9536  0.3165 -1.0381
 1995TIP3   OH227475   4.244   3.992  15.275 -0.5115 -0.0595  0.3574
 1995TIP3    H127476   4.314   3.984  15.211 -0.9927  0.4284 -0.2304
 1995TIP3    H227477   4.281   4.049  15.343  0.0339 -0.6630  0.5690
 1996TIP3   OH227478   5.523   1.465  17.083  0.8117 -0.1471  0.0303
 1996TIP3    H127479   5.612   1.498  17.072  0.7876  0.1600  0.7430
 1996TIP3    H227480   5.466   1.541  17.067  0.7136 -0.1043  0.5930
 1997TIP3   OH227481   1.871   0.493  13.248  0.0427  0.0103 -0.6468
 1997TIP3    H127482   1.806   0.500  13.318  0.6417 -1.0616  0.0397
 1997TIP3    H227483   1.931   0.565  13.264 -0.5369  0.5281 -0.8091
 1998TIP3   OH227484   1.924   1.364  12.250  0.2524 -0.0735  0.0155
 1998TIP3    H127485   1.854   1.303  12.226  1.4075 -1.2340 -0.4608
 1998TIP3    H227486   1.886   1.417  12.320 -0.9329 -1.0410  0.1283
 1999TIP3   OH227487   1.690   5.235  14.840  0.6883  0.3148  0.3451
 1999TIP3    H127488   1.678   5.327  14.864  2.0275  1.0658 -1.7257
 1999TIP3    H227489   1.616   5.216  14.781  0.4189  0.0457  0.7611
 2000TIP3   OH227490   6.145   6.073  14.752  0.5769  0.0835  0.4641
 2000TIP3    H127491   6.231   6.114  14.743  1.2925 -1.5490 -0.4578
 2000TIP3    H227492   6.162   5.980  14.736 -1.2266 -0.3626  1.1200
 2001TIP3   OH227493   3.755   4.735  13.486  0.6437 -0.0201  0.1101
 2001TIP3    H127494   3.816   4.719  13.558  0.2405 -1.1243  0.2125
 2001TIP3    H227495   3.678   4.775  13.529  0.4981 -0.4586  0.2577
 2002TIP3   OH227496   6.093   2.128   2.622  0.1961 -0.4507  0.2940
 2002TIP3    H127497   6.126   2.042   2.647 -0.0533 -0.6151  0.0569
 2002TIP3    H227498   6.068   2.169   2.705  1.7553 -0.0079  0.5579
 2003TIP3   OH227499   1.909   4.666   2.672  0.1411  0.0533 -0.2542
 2003TIP3    H127500   1.998   4.702   2.665  0.0375  0.2384 -0.6298
 2003TIP3    H227501   1.873   4.706   2.751  0.1197  0.5746 -0.5289
 2004TIP3   OH227502   6.420   6.763   2.950 -0.0019 -0.3427 -0.0175
 2004TIP3    H127503   6.478   6.706   2.901  1.7721  0.9679  0.5170
 2004TIP3    H227504   6.448   6.753   3.041 -0.4316  0.5041  0.2171
 2005TIP3   OH227505   6.328   5.749  15.509  0.0550  0.0558  0.0793
 2005TIP3    H127506   6.383   5.755  15.588 -1.8849  1.0732  1.3825
 2005TIP3    H227507   6.278   5.831  15.508 -1.5557 -0.9174 -0.9823
 2006TIP3   OH227508   3.008   6.255  16.907  0.3650  0.3470  0.7942
 2006TIP3    H127509   3.085   6.199  16.905 -0.1702 -0.3864  0.8039
 2006TIP3    H227510   3.043   6.343  16.892  1.2314  0.0549  1.0441
 2007TIP3   OH227511   3.934   5.551  13.281 -0.4594  0.0869 -0.3427
 2007TIP3    H127512   3.936   5.480  13.217 -3.2052  0.1657 -0.5764
 2007TIP3    H227513   3.848   5.592  13.268  0.2231  2.0773  1.2639
 2008TIP3   OH227514   2.540   4.976  15.604 -0.3774  0.2292  0.7009
 2008TIP3    H127515   2.600   4.941  15.670  0.3273 -0.3971 -0.2512
 2008TIP3    H227516   2.576   5.062  15.582  0.2415 -0.1930  0.0507
 2009TIP3   OH227517   1.615   0.975  12.967  0.2448 -0.4996  0.2045
 2009TIP3    H127518   1.573   0.985  13.052  1.2010  1.6423  0.4566
 2009TIP3    H227519   1.549   0.932  12.913 -1.1748  0.0853  1.4309
 2010TIP3   OH227520   4.575   0.166   4.278 -0.6068 -0.1419  0.5086
 2010TIP3    H127521   4.517   0.226   4.231 -0.5224 -0.7137 -0.3464
 2010TIP3    H227522   4.662   0.205   4.270 -0.7820  0.4093  1.2782
 2011TIP3   OH227523   1.879   3.411  14.074  0.5389 -0.1070 -0.4516
 2011TIP3    H127524   1.784   3.425  14.079  0.4149 -0.7287 -1.0249
 2011TIP3    H227525   1.915   3.499  14.060  0.0864  0.1944  0.2251
 2012TIP3   OH227526   4.571   6.435  10.542 -0.6128 -0.3515 -0.2187
 2012TIP3    H127527   4.492   6.381  10.548  0.0586 -1.2191  0.9753
 2012TIP3    H227528   4.587   6.463  10.632 -2.0792  3.4887 -1.0698
 2013TIP3   OH227529   1.578   4.895   1.092 -0.2486 -0.0205 -0.3977
 2013TIP3    H127530   1.643   4.921   1.157  0.0227 -0.8128 -0.3523
 2013TIP3    H227531   1.628   4.852   1.023 -0.6069  0.2757 -0.8480
 2014TIP3   OH227532   2.913   3.229   2.996 -0.5461  0.3794  0.2412
 2014TIP3    H127533   2.848   3.169   3.033  0.6166 -1.3171 -0.3818
 2014TIP3    H227534   2.862   3.302   2.963 -1.8523  0.5830  2.5922
 2015TIP3   OH227535   4.998   0.253  15.543 -0.8280  0.3898 -0.5117
 2015TIP3    H127536   4.936   0.307  15.591 -0.9051 -0.3339  0.2186
 2015TIP3    H227537   5.083   0.271  15.584 -0.7582  0.4239 -0.6698
 2016TIP3   OH227538   3.578   3.682   6.808  1.1823  0.2575  0.1396
 2016TIP3    H127539   3.511   3.664   6.743  0.7301  0.6971  0.4798
 2016TIP3    H227540   3.628   3.755   6.771 -0.1641  1.6804  1.0596
 2017TIP3   OH227541   4.001   6.129   3.546  0.1187 -0.3943  0.0921
 2017TIP3    H127542   4.076   6.080   3.578 -1.4902 -2.3777  0.9068
 2017TIP3    H227543   3.928   6.101   3.601 -1.0119  2.3262  0.0589
 2018TIP3   OH227544   2.716   5.558  12.123 -0.6276  0.1768  0.5293
 2018TIP3    H127545   2.752   5.573  12.036  1.0926  0.6838  1.3207
 2018TIP3    H227546   2.621   5.552  12.108 -0.2605 -1.0856 -1.5454
 2019TIP3   OH227547   1.282   2.189   0.367 -0.7999 -0.2507  0.0310
 2019TIP3    H127548   1.234   2.142   0.435 -1.3520  0.9554  0.4733
 2019TIP3    H227549   1.227   2.179   0.289 -0.9106 -0.3388  0.1186
 2020TIP3   OH227550   1.772   6.299  12.738 -0.1293 -0.0463 -0.4470
 2020TIP3    H127551   1.840   6.342  12.791 -1.1063  0.8541  0.1202
 2020TIP3    H227552   1.770   6.349  12.656 -0.9200  0.7212  0.0162
 2021TIP3   OH227553   4.907   5.354   4.943 -0.1508 -0.5727 -0.3125
 2021TIP3    H127554   4.922   5.385   5.032  0.4283  0.6245 -0.8139
 2021TIP3    H227555   4.980   5.390   4.892 -0.1343 -1.7571 -1.1549
 2022TIP3   OH227556   5.862   2.054  15.510  0.1495 -0.1652 -0.0394
 2022TIP3    H127557   5.812   1.979  15.476 -1.1330  1.0203 -0.8318
 2022TIP3    H227558   5.814   2.131  15.478  0.9007  0.9967  1.5585
 2023TIP3   OH227559   0.266   5.757  16.783 -0.0503  0.6881  0.0333
 2023TIP3    H127560   0.245   5.674  16.740 -0.6392  0.8739 -0.0346
 2023TIP3    H227561   0.357   5.773  16.758 -0.0180  0.2008 -0.1785
 2024TIP3   OH227562   1.807   5.275  11.704  0.5664  0.0090 -0.3905
 2024TIP3    H127563   1.729   5.221  11.715 -0.3551  1.0637 -1.5999
 2024TIP3    H227564   1.825   5.273  11.610  1.3756  0.6327 -0.2546
 2025TIP3   OH227565   1.923   5.725   4.307 -0.1999  0.0536 -0.1121
 2025TIP3    H127566   1.872   5.759   4.381 -2.0182  0.9813 -1.7549
 2025TIP3    H227567   2.005   5.776   4.310  0.2210 -0.6736  1.8704
 2026TIP3   OH227568   6.040   5.464   3.996  0.4831  0.1232 -0.0708
 2026TIP3    H127569   6.068   5.507   3.915  0.4555  2.0124  0.9104
 2026TIP3    H227570   6.119   5.421   4.029  0.4815 -0.7019 -1.1174
 2027TIP3   OH227571   0.023   1.751  15.842  0.7081 -0.4880 -0.1075
 2027TIP3    H127572   0.067   1.666  15.851 -1.5165 -1.5194  1.3620
 2027TIP3    H227573  -0.060   1.731  15.799  0.6042  1.1292 -0.7136
 2028TIP3   OH227574   5.145   5.184  15.737  0.4698 -0.2317 -0.3134
 2028TIP3    H127575   5.061   5.169  15.781 -0.2329 -1.2604 -1.9515
 2028TIP3    H227576   5.126   5.248  15.669  0.6673 -1.4967 -1.5960
 2029TIP3   OH227577   2.480   4.426   4.398 -0.4800 -0.0968 -0.4716
 2029TIP3    H127578   2.547   4.442   4.332 -1.6318  2.2975 -1.0871
 2029TIP3    H227579   2.517   4.356   4.453  2.7666  1.5418 -0.4557
 2030TIP3   OH227580   4.828   5.538   5.146 -0.5056  0.1829  0.2833
 2030TIP3    H127581   4.913   5.525   5.188  0.1997 -2.2103 -1.7203
 2030TIP3    H227582   4.773   5.469   5.183 -1.6261  1.8220  1.6844
 2031TIP3   OH227583   2.546   4.992   3.117  0.2433  0.0023 -0.2143
 2031TIP3    H127584   2.581   4.973   3.204 -1.2192 -0.1805  0.3453
 2031TIP3    H227585   2.587   4.926   3.061  1.6938  0.5268  0.2038
 2032TIP3   OH227586   2.444   4.117   3.361  0.1442  0.0253 -0.0442
 2032TIP3    H127587   2.368   4.087   3.411  0.6672 -0.0332  0.7157
 2032TIP3    H227588   2.475   4.194   3.409  0.5768  0.0435 -0.3501
 2033TIP3   OH227589   6.432   4.584   1.157 -0.4497  0.2286 -0.1371
 2033TIP3    H127590   6.520   4.555   1.181 -0.2183  1.0080 -0.0342
 2033TIP3    H227591   6.440   4.614   1.067 -0.2769  1.6981  0.3642
 2034TIP3   OH227592   5.772   1.550  17.103  0.2746 -0.1680  0.3944
 2034TIP3    H127593   5.809   1.497  17.174  1.9381 -2.4201 -2.0434
 2034TIP3    H227594   5.839   1.616  17.085  0.1929 -0.0796  0.4190
 2035TIP3   OH227595   2.440   3.389   1.974  0.4193 -0.2665 -0.0033
 2035TIP3    H127596   2.447   3.483   1.958 -3.0537 -0.2989 -2.2479
 2035TIP3    H227597   2.384   3.382   2.052 -1.2033 -0.4532 -1.1539
 2036TIP3   OH227598   0.689   6.657  14.939  0.2882  0.3919  0.5149
 2036TIP3    H127599   0.639   6.601  14.998 -0.0220  0.0180 -0.1022
 2036TIP3    H227600   0.766   6.682  14.990  0.4695 -0.6624  0.7787
 2037TIP3   OH227601   1.205   5.773  12.188  0.6130 -0.3181 -0.0292
 2037TIP3    H127602   1.130   5.716  12.172 -0.9776  1.8312 -0.4117
 2037TIP3    H227603   1.201   5.838  12.119  0.9613  1.6987  1.7858
 2038TIP3   OH227604   5.175   3.383  13.415 -1.1250 -0.2872  0.1096
 2038TIP3    H127605   5.231   3.439  13.469 -0.7358 -1.5466  1.0452
 2038TIP3    H227606   5.222   3.375  13.332 -0.0050 -1.1400  0.8053
 2039TIP3   OH227607   3.766   3.513   4.270  0.2738 -0.1921 -0.2826
 2039TIP3    H127608   3.679   3.495   4.233  0.6234 -1.5609 -0.4647
 2039TIP3    H227609   3.777   3.607   4.260 -0.6488 -0.1966 -1.4586
 2040TIP3   OH227610   4.947   1.907  14.364 -0.4641  0.1484  0.2275
 2040TIP3    H127611   5.004   1.949  14.428 -0.5167 -0.5009  0.7005
 2040TIP3    H227612   4.891   1.849  14.415 -1.2360  0.4203 -0.2834
 2041TIP3   OH227613   2.837   4.667  15.923  0.2868 -0.3938 -0.3085
 2041TIP3    H127614   2.794   4.595  15.968  0.6783 -0.7241 -0.4658
 2041TIP3    H227615   2.927   4.638  15.910  0.5429  0.2728 -0.0426
 2042TIP3   OH227616   4.275   1.286   2.492  0.2339  0.4637  0.3829
 2042TIP3    H127617   4.239   1.266   2.405  1.2437 -0.1254  0.0835
 2042TIP3    H227618   4.240   1.372   2.514 -2.0828 -0.4872  0.5102
 2043TIP3   OH227619   5.782   3.215   1.552  0.7592 -0.4784 -0.4722
 2043TIP3    H127620   5.726   3.250   1.621  0.9986 -0.3299 -0.3507
 2043TIP3    H227621   5.722   3.181   1.487  0.5309 -4.2595  1.6103
 2044TIP3   OH227622   1.284   2.555  11.369  0.6494  0.6094  0.3721
 2044TIP3    H127623   1.198   2.592  11.388  0.4455 -0.6829  2.1296
 2044TIP3    H227624   1.300   2.493  11.441  1.3117 -2.0923 -1.9877
 2045TIP3   OH227625   1.646   4.144  13.196 -0.0092 -0.7411 -0.3300
 2045TIP3    H127626   1.670   4.154  13.288 -0.3003 -1.5763 -0.1558
 2045TIP3    H227627   1.656   4.050  13.180 -3.8467 -1.2823 -0.0682
 2046TIP3   OH227628   0.366   1.499  15.800  0.7290 -0.3895  0.4460
 2046TIP3    H127629   0.293   1.526  15.744  0.0964 -1.5554  0.6776
 2046TIP3    H227630   0.433   1.469  15.738  0.9632  0.5436  0.2365
 2047TIP3   OH227631   5.578   3.316  13.980  0.0367 -0.5410  0.7980
 2047TIP3    H127632   5.593   3.396  13.929 -0.8711  0.2649  1.7740
 2047TIP3    H227633   5.530   3.258  13.921 -1.2633  0.4947  0.8175
 2048TIP3   OH227634   0.475   1.386   0.830 -0.5313  0.8572  0.0332
 2048TIP3    H127635   0.432   1.430   0.757  0.0147  0.3226 -0.6195
 2048TIP3    H227636   0.472   1.293   0.807 -0.6898  0.6548  0.8668
 2049TIP3   OH227637   5.284   2.631   2.859 -0.4968 -0.6044 -0.2644
 2049TIP3    H127638   5.335   2.709   2.881 -0.9708 -0.1378 -0.7731
 2049TIP3    H227639   5.214   2.665   2.802 -2.4028 -0.9533  1.8221
 2050TIP3   OH227640   2.159   4.550   5.196 -0.2374 -0.3564 -0.4626
 2050TIP3    H127641   2.140   4.560   5.103  1.1894  0.8716 -0.6549
 2050TIP3    H227642   2.169   4.456   5.209 -2.4404 -0.7000 -1.1216
 2051TIP3   OH227643   2.709   0.430   4.737  0.0583  0.1241  0.6792
 2051TIP3    H127644   2.732   0.460   4.824 -0.0380 -0.5985  0.9542
 2051TIP3    H227645   2.736   0.501   4.679  1.5639 -0.0719  1.1352
 2052TIP3   OH227646   2.374   0.832  17.158 -0.6222 -0.2608  0.3220
 2052TIP3    H127647   2.462   0.835  17.120 -0.4752  1.0586  0.7543
 2052TIP3    H227648   2.322   0.781  17.095  0.3582 -0.7279 -0.1095
 2053TIP3   OH227649   0.400   0.433   1.899  0.3170  0.2107 -0.1335
 2053TIP3    H127650   0.456   0.495   1.853 -0.3297 -0.5005 -1.8982
 2053TIP3    H227651   0.393   0.357   1.841 -0.9557 -0.4897  0.8814
 2054TIP3   OH227652   5.299   6.270   4.508 -0.0745 -0.2085  0.4084
 2054TIP3    H127653   5.322   6.254   4.416 -1.8098 -0.5835  0.0301
 2054TIP3    H227654   5.279   6.183   4.543 -1.5690  0.1887  0.5479
 2055TIP3   OH227655   3.798   5.284  12.300  0.1048  0.3994  0.5466
 2055TIP3    H127656   3.858   5.303  12.372  1.0842 -1.5294  0.2635
 2055TIP3    H227657   3.720   5.249  12.342  0.6969 -0.7789  0.6800
 2056TIP3   OH227658   6.326   3.879  15.649 -0.3149 -0.2148 -0.0425
 2056TIP3    H127659   6.391   3.883  15.719  0.9733 -0.1400 -1.1943
 2056TIP3    H227660   6.379   3.868  15.569 -1.7834 -1.1603 -0.9022
 2057TIP3   OH227661   6.608   5.755   6.083 -0.1099  0.0663 -0.1549
 2057TIP3    H127662   6.696   5.787   6.103 -0.0571 -0.4742  0.4839
 2057TIP3    H227663   6.577   5.717   6.165  0.4390 -2.9928 -1.2800
 2058TIP3   OH227664   3.823   3.412   4.972  0.3963  0.1854 -0.5582
 2058TIP3    H127665   3.800   3.470   4.900  2.8259 -1.0379 -2.4110
 2058TIP3    H227666   3.918   3.422   4.983  0.0935  0.3263  2.4872
 2059TIP3   OH227667   4.700   4.256   4.167  0.0331  0.0854 -0.9182
 2059TIP3    H127668   4.660   4.335   4.131  1.4334  0.8119 -0.9174
 2059TIP3    H227669   4.788   4.254   4.129  0.1137 -1.3077 -0.6799
 2060TIP3   OH227670   1.881   0.553   2.586 -0.5986  0.3454 -0.2499
 2060TIP3    H127671   1.930   0.587   2.512  1.5860  1.2680  1.5529
 2060TIP3    H227672   1.906   0.460   2.591  1.0090  0.7995  0.6357
 2061TIP3   OH227673   4.101   1.207   3.450 -0.4103  0.2937  0.2907
 2061TIP3    H127674   4.119   1.284   3.505  0.3566  0.5097 -0.2626
 2061TIP3    H227675   4.040   1.238   3.384  0.3598  0.5711 -0.2875
 2062TIP3   OH227676   4.166   0.063  12.228 -0.9091  0.0360  0.7531
 2062TIP3    H127677   4.203   0.123  12.293 -0.5027  0.0628  0.5002
 2062TIP3    H227678   4.073   0.086  12.224 -0.7719  0.6012  0.7159
 2063TIP3   OH227679   3.287   0.486   0.455 -0.2579  0.2590  0.5488
 2063TIP3    H127680   3.328   0.466   0.539 -0.0138 -2.1940 -0.1103
 2063TIP3    H227681   3.352   0.460   0.390 -0.7107  1.5036 -0.4248
 2064TIP3   OH227682   2.763   4.866   5.780 -0.1337 -0.2819 -0.7572
 2064TIP3    H127683   2.810   4.822   5.851 -1.1573  0.0974  0.1503
 2064TIP3    H227684   2.789   4.958   5.787  0.5804 -0.4127 -1.5350
 2065TIP3   OH227685   5.623   0.584   5.025  0.1149 -0.0514  0.1986
 2065TIP3    H127686   5.571   0.513   4.987  0.7158 -1.3059  1.6831
 2065TIP3    H227687   5.712   0.567   4.994 -0.2084  1.7645 -1.8639
 2066TIP3   OH227688   3.561   0.346   0.886  1.3938  0.7060 -0.4344
 2066TIP3    H127689   3.527   0.259   0.910 -0.4291  1.0639 -1.5807
 2066TIP3    H227690   3.656   0.337   0.891  1.2719 -1.6574 -1.5306
 2067TIP3   OH227691   6.408   6.100  13.103  0.3286 -0.7243 -0.9813
 2067TIP3    H127692   6.408   6.196  13.106  1.2901 -0.7447  0.4699
 2067TIP3    H227693   6.434   6.074  13.191  0.5872 -2.3123 -1.5142
 2068TIP3   OH227694   5.146   0.374   2.100  0.0099 -0.3739  0.0044
 2068TIP3    H127695   5.161   0.280   2.094 -2.6001 -0.8606  0.4179
 2068TIP3    H227696   5.057   0.387   2.066  0.3406  1.9456 -0.0853
 2069TIP3   OH227697   3.577   0.178   0.586  0.9655  0.1889  0.2491
 2069TIP3    H127698   3.638   0.237   0.541  1.4981  0.3379  1.1559
 2069TIP3    H227699   3.505   0.234   0.613  0.2391 -0.0527 -1.1443
 2070TIP3   OH227700   3.473   4.686  16.326  0.6537 -0.5503  0.0665
 2070TIP3    H127701   3.544   4.727  16.277 -0.9352  0.9829 -1.0387
 2070TIP3    H227702   3.441   4.616  16.269  1.5736 -1.5527  0.7692
 2071TIP3   OH227703   2.845   3.990  13.496  0.2851  0.2849  0.4225
 2071TIP3    H127704   2.819   3.904  13.530 -0.0007  0.5021  0.7562
 2071TIP3    H227705   2.906   3.970  13.425 -0.7531 -0.2410 -0.3546
 2072TIP3   OH227706   2.473   4.962  14.013  0.4030  0.4081 -0.4963
 2072TIP3    H127707   2.453   4.963  14.106  0.2885 -3.2136 -0.4052
 2072TIP3    H227708   2.560   5.000  14.006  1.6641 -2.0032  1.4606
 2073TIP3   OH227709   4.166   6.251  15.829 -0.2985 -0.1390 -0.2339
 2073TIP3    H127710   4.119   6.215  15.754 -0.8732  0.5665 -0.2188
 2073TIP3    H227711   4.183   6.342  15.806 -2.8728  0.8844  1.5794
 2074TIP3   OH227712   5.913   3.883  13.256  0.2830 -0.5029  0.6002
 2074TIP3    H127713   5.998   3.923  13.237  1.6378 -2.1126  3.0475
 2074TIP3    H227714   5.905   3.812  13.192  1.9384 -1.9089  1.9042
 2075TIP3   OH227715   2.673   3.395   4.547 -0.4108  0.2407  0.0699
 2075TIP3    H127716   2.738   3.465   4.545 -1.0977  0.8763 -0.1793
 2075TIP3    H227717   2.643   3.394   4.638 -0.9108  0.7434 -0.0889
 2076TIP3   OH227718   1.849   5.074   4.801 -0.1108  0.0659 -0.2967
 2076TIP3    H127719   1.893   5.151   4.837  1.2188  0.8142 -3.4499
 2076TIP3    H227720   1.878   5.002   4.857 -0.2731  1.5665  1.8238
 2077TIP3   OH227721   4.680   4.155  17.081  0.2605 -0.1899  0.3346
 2077TIP3    H127722   4.706   4.063  17.077 -0.8165 -0.4681 -0.5824
 2077TIP3    H227723   4.620   4.167  17.007  0.4485  1.2721  0.3919
 2078TIP3   OH227724   6.684   3.467   1.594  0.0147 -0.0968  0.6248
 2078TIP3    H127725   6.677   3.382   1.550  0.0629 -1.1200  2.5511
 2078TIP3    H227726   6.777   3.475   1.616 -0.4704 -1.0166  3.2288
 2079TIP3   OH227727   2.566   5.802  16.265 -0.6173 -0.1194 -0.1050
 2079TIP3    H127728   2.499   5.807  16.333 -1.3412  0.1558 -0.8240
 2079TIP3    H227729   2.523   5.755  16.193  0.1197 -0.3582 -0.3878
 2080TIP3   OH227730   5.018   1.325  13.574 -0.2094 -0.2322 -0.3427
 2080TIP3    H127731   5.064   1.258  13.524 -1.3279 -1.6921  0.5670
 2080TIP3    H227732   4.934   1.285  13.598 -1.0397  1.5991 -0.0787
 2081TIP3   OH227733   6.638   6.563  16.821 -0.7802 -0.5552 -0.2597
 2081TIP3    H127734   6.634   6.513  16.903 -0.1399 -0.8688 -0.4153
 2081TIP3    H227735   6.600   6.504  16.756 -1.8203 -0.0831 -0.0849
 2082TIP3   OH227736   5.670   5.243   1.525 -0.2015 -0.1445 -0.4968
 2082TIP3    H127737   5.686   5.187   1.601 -2.1793 -1.7189 -1.1986
 2082TIP3    H227738   5.708   5.194   1.452  0.4376  0.7051 -0.7423
 2083TIP3   OH227739   3.552   6.529  14.039 -0.4043 -0.1918 -0.0177
 2083TIP3    H127740   3.486   6.542  14.107 -1.1587  0.1724 -0.8141
 2083TIP3    H227741   3.502   6.515  13.958  0.4895  1.7165 -0.9253
 2084TIP3   OH227742   3.416   5.795  15.399 -0.7335 -0.1345 -0.1517
 2084TIP3    H127743   3.493   5.801  15.455 -0.1135 -2.1351 -0.7372
 2084TIP3    H227744   3.440   5.843  15.319 -0.8515  0.9389  0.4481
 2085TIP3   OH227745   6.635   0.426  14.144  0.6580  0.2626 -0.1331
 2085TIP3    H127746   6.573   0.498  14.158  0.7847  0.1952  0.7841
 2085TIP3    H227747   6.589   0.366  14.086 -0.5241 -0.2712  1.3293
 2086TIP3   OH227748   3.825   6.482  16.721  0.2795 -0.1848 -0.1873
 2086TIP3    H127749   3.819   6.422  16.795 -0.8232 -0.5403 -0.5455
 2086TIP3    H227750   3.801   6.567  16.757  1.0729 -0.1101  0.1543
 2087TIP3   OH227751   5.731   6.465   1.124  0.0156  0.3475 -0.0695
 2087TIP3    H127752   5.797   6.474   1.193  0.4852  1.3417 -0.6299
 2087TIP3    H227753   5.778   6.486   1.043 -0.9758  1.0272 -0.4839
 2088TIP3   OH227754   5.059   1.020  14.924  0.0398  0.0078 -0.0573
 2088TIP3    H127755   5.033   1.064  14.843  0.7518 -0.1487 -0.3762
 2088TIP3    H227756   5.089   0.934  14.896 -2.4602 -1.1395  0.7018
 2089TIP3   OH227757   0.600   2.629   0.412  0.1514 -0.4159  0.4280
 2089TIP3    H127758   0.684   2.585   0.422 -1.0475 -3.0546 -0.8255
 2089TIP3    H227759   0.565   2.634   0.501  1.7522  1.0444  1.0099
 2090TIP3   OH227760   4.035   0.870  12.287 -0.2412  0.0014  0.2228
 2090TIP3    H127761   4.013   0.805  12.220 -1.5587 -0.0314  0.6884
 2090TIP3    H227762   4.120   0.841  12.321 -0.2552 -0.8002 -0.4112
 2091TIP3   OH227763   4.684   0.108   1.604  0.4317 -0.0675 -0.6668
 2091TIP3    H127764   4.739   0.079   1.531  2.9435  2.5616  0.0911
 2091TIP3    H227765   4.702   0.045   1.674 -1.7927 -2.4503 -2.1502
 2092TIP3   OH227766   5.469   3.973   4.894 -0.0815 -0.7381 -0.4010
 2092TIP3    H127767   5.563   3.984   4.882  0.0454 -1.3838 -0.0287
 2092TIP3    H227768   5.441   4.051   4.942  0.4630 -1.0838  0.4912
 2093TIP3   OH227769   5.444   0.825   0.614  0.0284  0.3297 -0.3856
 2093TIP3    H127770   5.404   0.912   0.617  0.0909  0.3768 -0.9118
 2093TIP3    H227771   5.529   0.836   0.656  1.3756  1.2402 -3.2201
 2094TIP3   OH227772   3.433   3.051  13.057  0.2799 -0.0944  0.5540
 2094TIP3    H127773   3.391   3.063  12.972 -1.5062  0.7018  1.5183
 2094TIP3    H227774   3.437   3.139  13.095  3.4077 -0.0310  0.2673
 2095TIP3   OH227775   3.950   2.163  11.785  0.0631  0.1242  0.1707
 2095TIP3    H127776   3.875   2.222  11.778 -2.3550 -2.8903 -0.3940
 2095TIP3    H227777   3.970   2.139  11.694  0.0540 -1.1015  0.4908
 2096TIP3   OH227778   6.410   1.088  10.962  0.2835  0.2681  0.1504
 2096TIP3    H127779   6.427   0.994  10.956  2.6816  0.6082  1.2359
 2096TIP3    H227780   6.396   1.104  11.056 -2.5939  0.6356 -0.2744
 2097TIP3   OH227781   4.060   1.872   5.551 -0.4934 -0.3049 -0.1290
 2097TIP3    H127782   4.109   1.914   5.481 -0.8912  0.0513 -0.1953
 2097TIP3    H227783   3.989   1.933   5.571 -0.0272 -0.1253  1.0077
 2098TIP3   OH227784   1.841   3.224   1.152 -0.3099 -0.5331  0.0824
 2098TIP3    H127785   1.848   3.319   1.144  1.3880 -0.7579 -1.3914
 2098TIP3    H227786   1.770   3.200   1.092 -0.5249 -0.2374  0.2157
 2099TIP3   OH227787   0.172   5.551  16.274  0.2208 -0.3347 -0.3452
 2099TIP3    H127788   0.173   5.642  16.245  0.7447  0.1764  1.2141
 2099TIP3    H227789   0.106   5.509  16.219 -0.3381  1.0881 -0.7850
 2100TIP3   OH227790   2.448   0.013  14.348 -0.7770 -0.2521  0.5085
 2100TIP3    H127791   2.404  -0.071  14.358  0.1809 -0.7809  0.2498
 2100TIP3    H227792   2.393   0.074  14.397 -0.4878 -1.3573  2.2497
 2101TIP3   OH227793   5.847   6.293   2.401 -0.4856 -0.3675  0.1928
 2101TIP3    H127794   5.806   6.283   2.487  0.1183  1.7996  0.7636
 2101TIP3    H227795   5.781   6.339   2.348 -0.2023 -0.1706  0.0081
 2102TIP3   OH227796   5.570   4.921  14.937 -0.0366  0.2026  0.5095
 2102TIP3    H127797   5.575   4.985  14.866 -0.4831  0.7156  0.9371
 2102TIP3    H227798   5.612   4.965  15.011  0.5816 -0.3981  0.5112
 2103TIP3   OH227799   6.544   4.851  10.331  0.1828  0.5085 -1.0422
 2103TIP3    H127800   6.572   4.940  10.309  1.0308  0.6214  0.3910
 2103TIP3    H227801   6.575   4.838  10.421  0.0206 -1.2167 -1.2166
 2104TIP3   OH227802   3.120   3.285   5.955 -0.1471  0.0264  0.1772
 2104TIP3    H127803   3.199   3.285   6.009  0.2786 -0.4396 -0.4441
 2104TIP3    H227804   3.106   3.193   5.933  0.3201  0.3320 -1.4385
 2105TIP3   OH227805   6.523   4.768  11.694 -0.2445  0.1533 -1.3461
 2105TIP3    H127806   6.429   4.751  11.687 -0.5155 -0.9132  3.1318
 2105TIP3    H227807   6.528   4.857  11.729  0.3392 -0.2173 -0.4711
 2106TIP3   OH227808   0.396   5.229   3.411 -0.1142  0.1372 -0.4579
 2106TIP3    H127809   0.469   5.184   3.369 -0.0505  0.4355 -0.6717
 2106TIP3    H227810   0.399   5.317   3.374 -0.5514  0.1632 -0.4296
 2107TIP3   OH227811   0.445   6.647   4.620 -0.2911  0.6146 -0.5042
 2107TIP3    H127812   0.366   6.618   4.664  1.6856 -2.1339  1.3916
 2107TIP3    H227813   0.503   6.675   4.691  0.8922  1.4306 -1.7659
 2108TIP3   OH227814   4.664   6.120  15.225 -0.0073 -0.2415 -0.5097
 2108TIP3    H127815   4.741   6.077  15.190  1.8286  3.2644 -1.0392
 2108TIP3    H227816   4.692   6.154  15.310 -2.2682 -2.5113  1.2015
 2109TIP3   OH227817   5.493   5.026   4.589  0.1957  0.2475 -0.3107
 2109TIP3    H127818   5.473   4.934   4.571  2.0205 -0.4015  0.7895
 2109TIP3    H227819   5.430   5.075   4.537  2.3043 -1.5818 -4.8895
 2110TIP3   OH227820   0.576   0.977   3.024  0.0525 -0.4002 -0.9781
 2110TIP3    H127821   0.658   0.942   3.059 -1.0936 -0.9605  1.2213
 2110TIP3    H227822   0.577   0.952   2.932  2.3067 -0.4802 -0.9554
 2111TIP3   OH227823   0.689   4.459   5.684  0.0196  0.2792 -0.2986
 2111TIP3    H127824   0.666   4.367   5.678  1.1786 -0.0667  0.3494
 2111TIP3    H227825   0.764   4.461   5.743  0.2705  1.5911 -0.6452
 2112TIP3   OH227826   2.368   6.689  12.538  0.6402  0.3978  0.1414
 2112TIP3    H127827   2.300   6.667  12.474  0.2508 -0.2174  0.7664
 2112TIP3    H227828   2.444   6.638  12.510  0.3409 -0.2064  0.4156
 2113TIP3   OH227829   4.828   4.294   3.834 -0.0780  0.6774 -0.3414
 2113TIP3    H127830   4.760   4.335   3.887 -0.7191  0.5989 -1.0887
 2113TIP3    H227831   4.900   4.358   3.832 -0.3505  0.9933 -0.0049
 2114TIP3   OH227832   4.768   1.006  13.184  0.0861 -0.2815 -0.2815
 2114TIP3    H127833   4.773   1.075  13.251 -2.4323 -1.0825  0.7591
 2114TIP3    H227834   4.775   1.054  13.101  0.9334  0.9508  0.4755
 2115TIP3   OH227835   4.228   1.360   3.030  0.4662  0.1702 -0.0676
 2115TIP3    H127836   4.289   1.336   2.960 -0.0111  0.5034 -0.5980
 2115TIP3    H227837   4.218   1.281   3.081  3.5037  0.8060  1.6477
 2116TIP3   OH227838   6.715   4.033   2.005  0.8152  0.9194 -0.5454
 2116TIP3    H127839   6.730   4.019   1.911  0.0052  0.7728 -0.6513
 2116TIP3    H227840   6.690   4.125   2.012 -1.7286  0.2793 -0.7977
 2117TIP3   OH227841   0.901   3.661   2.533 -0.3778  0.0960  0.5211
 2117TIP3    H127842   0.883   3.567   2.529 -0.3427  0.1011  0.2400
 2117TIP3    H227843   0.921   3.677   2.625 -1.0385 -0.0469  0.6917
 2118TIP3   OH227844   3.411   5.790   5.147  0.3011 -0.1537  0.2571
 2118TIP3    H127845   3.450   5.808   5.233  0.8121  0.7752 -0.1633
 2118TIP3    H227846   3.486   5.774   5.090  0.0535  0.9769 -0.4056
 2119TIP3   OH227847   6.356   2.107  14.951 -0.2648 -0.8996 -0.3349
 2119TIP3    H127848   6.359   2.135  15.043 -0.2933 -2.5682  0.2027
 2119TIP3    H227849   6.264   2.085  14.936 -0.3948  0.0722 -0.9960
 2120TIP3   OH227850   2.918   2.274  13.309  0.1236  0.9759 -0.1715
 2120TIP3    H127851   2.929   2.331  13.233  1.2401  0.3274 -0.5110
 2120TIP3    H227852   2.973   2.198  13.291 -1.4858 -0.3004  0.2047
 2121TIP3   OH227853   2.724   0.438  17.181 -0.1544  0.1883  0.1261
 2121TIP3    H127854   2.667   0.467  17.109  2.7244  1.3655 -1.7656
 2121TIP3    H227855   2.804   0.490  17.171  2.1220 -2.9199  1.3862
 2122TIP3   OH227856   6.068   1.523   0.209  0.5533 -0.0741  0.5513
 2122TIP3    H127857   5.980   1.542   0.179  0.7839 -0.2119 -0.2181
 2122TIP3    H227858   6.116   1.604   0.196  1.2449 -0.7989 -1.6571
 2123TIP3   OH227859   5.209   6.196   3.106  0.5531 -0.6762  0.4693
 2123TIP3    H127860   5.195   6.134   3.178 -1.2229 -0.6511  0.1698
 2123TIP3    H227861   5.291   6.169   3.067 -0.3678 -3.0703  0.1337
 2124TIP3   OH227862   6.449   5.124   1.912  0.0479  0.7389 -1.0923
 2124TIP3    H127863   6.493   5.070   1.979 -1.1900  0.1866 -0.7124
 2124TIP3    H227864   6.369   5.154   1.955 -0.6992  0.4754 -2.2940
 2125TIP3   OH227865   6.603   4.081   2.871  0.8462 -0.2090  0.4461
 2125TIP3    H127866   6.682   4.133   2.857  0.4655  0.4522  0.6856
 2125TIP3    H227867   6.541   4.116   2.807  0.7209 -0.6684  0.3157
 2126TIP3   OH227868   1.583   4.996   4.751  0.5995  0.3285 -0.1567
 2126TIP3    H127869   1.669   4.996   4.791  1.0050 -0.2184 -1.0247
 2126TIP3    H227870   1.538   4.921   4.791  0.3146  0.9493  0.7163
 2127TIP3   OH227871   6.398   3.383  12.414  0.1073 -0.0395  0.0268
 2127TIP3    H127872   6.441   3.414  12.494  0.5009 -1.2643  0.3076
 2127TIP3    H227873   6.341   3.312  12.444 -1.1361  0.7113 -0.5335
 2128TIP3   OH227874   1.174   0.260  17.240 -0.3059 -0.1704  0.0468
 2128TIP3    H127875   1.105   0.196  17.254 -1.6128  0.8444 -1.5498
 2128TIP3    H227876   1.244   0.234  17.300 -1.7693 -1.6495  1.1385
 2129TIP3   OH227877   1.552   6.668  14.311 -0.2816  0.6207  0.2201
 2129TIP3    H127878   1.461   6.688  14.332 -0.0713  0.7913  0.9879
 2129TIP3    H227879   1.565   6.704  14.224 -1.0204  0.3855  0.0063
 2130TIP3   OH227880   2.898   3.257   0.269 -0.0280  0.3356 -0.7963
 2130TIP3    H127881   2.987   3.249   0.237  0.0729  0.5499 -0.5690
 2130TIP3    H227882   2.905   3.250   0.364 -0.0782  1.7935 -0.6705
 2131TIP3   OH227883   6.677   5.895  16.007 -0.0009  0.9109 -0.1651
 2131TIP3    H127884   6.679   5.831  15.936 -1.9957  0.6076  0.0412
 2131TIP3    H227885   6.705   5.977  15.966  1.6725  0.1308 -0.6336
 2132TIP3   OH227886   1.060   2.119   0.172 -0.1566 -0.6362 -0.0586
 2132TIP3    H127887   1.033   2.210   0.160 -0.5488 -0.4628  2.0382
 2132TIP3    H227888   1.069   2.085   0.083  0.2744  1.5284 -0.8677
 2133TIP3   OH227889   2.842   5.382  13.241 -0.5845  0.2282  0.3174
 2133TIP3    H127890   2.934   5.384  13.215 -0.1963 -1.0994  1.5263
 2133TIP3    H227891   2.823   5.471  13.269 -0.1524  0.9305 -1.5230
 2134TIP3   OH227892   4.831   2.074   3.783 -0.2006  0.3468  0.4081
 2134TIP3    H127893   4.811   1.982   3.769 -2.1162  0.5685  1.4831
 2134TIP3    H227894   4.801   2.092   3.872  0.9601  1.7974  0.5246
 2135TIP3   OH227895   0.293   6.660  11.101  0.2083  0.2662  0.3215
 2135TIP3    H127896   0.234   6.678  11.175 -0.4263  1.6467 -0.4901
 2135TIP3    H227897   0.239   6.675  11.023  0.3276 -3.0362 -0.4571
 2136TIP3   OH227898   0.847   4.048  11.953  0.2491 -0.4556  0.4829
 2136TIP3    H127899   0.825   3.957  11.974  2.7394 -1.1272  0.3158
 2136TIP3    H227900   0.871   4.046  11.860  1.8763  0.0736  0.8843
 2137TIP3   OH227901   6.665   3.622  14.825 -0.2130 -0.3449 -0.0819
 2137TIP3    H127902   6.739   3.622  14.886  0.3440 -1.6978 -0.7370
 2137TIP3    H227903   6.650   3.714  14.806  2.1205 -0.0969 -0.9015
 2138TIP3   OH227904   2.387   5.458   3.063 -0.8101  0.3859 -0.5281
 2138TIP3    H127905   2.446   5.524   3.028 -0.5501 -0.3676 -1.5306
 2138TIP3    H227906   2.440   5.378   3.068 -0.9697  0.3630  1.1606
 2139TIP3   OH227907   5.756   5.327  15.930  0.1396  0.0775 -0.1035
 2139TIP3    H127908   5.826   5.391  15.918 -0.0554  0.2499 -0.3420
 2139TIP3    H227909   5.696   5.369  15.992 -0.4114  0.4759 -0.9057
 2140TIP3   OH227910   3.704   4.796  16.209  0.3946  0.0550 -0.1367
 2140TIP3    H127911   3.704   4.890  16.188  3.4287 -0.0474 -0.8443
 2140TIP3    H227912   3.764   4.788  16.283 -1.7137 -1.0685  1.5141
 2141TIP3   OH227913   6.729   1.680   0.239  0.1287  0.2731 -0.1071
 2141TIP3    H127914   6.680   1.606   0.274  0.6234 -0.5285 -1.0801
 2141TIP3    H227915   6.662   1.746   0.219 -0.3514 -0.0623  0.3798
 2142TIP3   OH227916   3.365   1.503   3.511 -0.3800  0.4517 -0.0385
 2142TIP3    H127917   3.303   1.524   3.581 -1.5117  0.8063 -1.1249
 2142TIP3    H227918   3.380   1.586   3.467  1.0689  0.4100  0.3502
 2143TIP3   OH227919   6.644   5.045   2.736  0.3500  0.2474 -0.0527
 2143TIP3    H127920   6.725   5.005   2.766  0.3386 -0.7775 -1.3249
 2143TIP3    H227921   6.658   5.139   2.746  1.0305  0.0026  1.3502
 2144TIP3   OH227922   4.892   1.468   3.359  0.1241 -0.1741  0.3073
 2144TIP3    H127923   4.872   1.559   3.379  2.2126  0.4849 -0.4201
 2144TIP3    H227924   4.952   1.442   3.429  0.7534 -0.4938 -0.3447
 2145TIP3   OH227925   4.838   2.424   3.513  0.0100 -0.9103  0.0404
 2145TIP3    H127926   4.768   2.457   3.456  0.8800  0.7173 -0.1166
 2145TIP3    H227927   4.819   2.463   3.598  0.3887 -0.9317  0.1333
 2146TIP3   OH227928   4.398   2.843  12.262  0.6790  0.2630  0.0787
 2146TIP3    H127929   4.441   2.793  12.332  1.6958  0.1868 -0.5848
 2146TIP3    H227930   4.409   2.789  12.184 -3.6837 -1.4039  0.4924
 2147TIP3   OH227931   2.855   1.547   5.313  0.0590  0.6704  0.3488
 2147TIP3    H127932   2.863   1.574   5.404 -0.3466 -0.8402  0.8389
 2147TIP3    H227933   2.929   1.590   5.269 -1.2448  3.5695  0.8364
 2148TIP3   OH227934   3.497   3.792  13.347  0.4081 -0.2348 -0.1703
 2148TIP3    H127935   3.556   3.782  13.423  1.5966 -0.4375 -1.1059
 2148TIP3    H227936   3.411   3.767  13.381  1.0968 -1.2774  0.8684
 2149TIP3   OH227937   1.526   4.255   3.060 -0.0889 -0.5001 -0.1960
 2149TIP3    H127938   1.506   4.201   3.136 -0.7010  1.3355  0.9832
 2149TIP3    H227939   1.617   4.234   3.039  0.3906 -0.3516  1.6293
 2150TIP3   OH227940   2.350   4.728  13.916  0.0860 -0.6259  0.3784
 2150TIP3    H127941   2.260   4.756  13.898  0.9932  0.9939 -1.8990
 2150TIP3    H227942   2.389   4.801  13.965  0.5533 -0.7594  0.2091
 2151TIP3   OH227943   4.291   5.854  14.616 -0.7959  0.3612 -0.1302
 2151TIP3    H127944   4.268   5.842  14.524  0.2553 -1.0292 -0.2412
 2151TIP3    H227945   4.311   5.947  14.625  2.7564 -0.1303 -2.2047
 2152TIP3   OH227946   6.812   2.981  17.039 -0.7032  0.7357 -0.3052
 2152TIP3    H127947   6.777   2.903  16.995 -1.1932  0.5165  0.4538
 2152TIP3    H227948   6.906   2.963  17.048 -0.3253  1.4615 -2.6287
 2153TIP3   OH227949   3.370   1.579  11.880  0.1624 -0.0063  0.0869
 2153TIP3    H127950   3.298   1.523  11.911 -1.3623  1.8466  0.0115
 2153TIP3    H227951   3.444   1.519  11.871  0.0891 -1.1281  5.0474
 2154TIP3   OH227952   2.434   1.987   6.534  0.7161  0.1114 -0.1048
 2154TIP3    H127953   2.429   1.952   6.445 -1.0534 -0.7021  0.3014
 2154TIP3    H227954   2.469   1.915   6.587  0.5229  0.1576  0.0874
 2155TIP3   OH227955   3.397   0.090  16.100  0.7675 -0.1663  0.2836
 2155TIP3    H127956   3.364   0.152  16.035 -1.4731 -1.8434 -0.2687
 2155TIP3    H227957   3.487   0.117  16.116  0.8623  1.2542 -2.3265
 2156TIP3   OH227958   3.936   3.676  16.550 -0.2426  0.0815 -0.0332
 2156TIP3    H127959   3.956   3.640  16.637  0.8262 -0.1562 -0.3728
 2156TIP3    H227960   3.843   3.698  16.555 -0.4259 -0.8136  0.8590
 2157TIP3   OH227961   6.137   2.564  14.410  0.4956 -0.1973  0.0457
 2157TIP3    H127962   6.186   2.567  14.327  1.0935  0.4716  0.4256
 2157TIP3    H227963   6.183   2.624  14.468 -1.3993  1.2445  0.0787
 2158TIP3   OH227964   2.034   5.368  11.825 -0.7259  0.1038  0.4512
 2158TIP3    H127965   2.082   5.303  11.875 -0.7034 -0.0900  0.1801
 2158TIP3    H227966   1.949   5.329  11.808 -1.0240  0.4964  1.0342
 2159TIP3   OH227967   3.873   3.862   2.084 -0.2072 -0.6850 -0.6054
 2159TIP3    H127968   3.864   3.809   2.163 -1.0686 -1.7744 -1.4173
 2159TIP3    H227969   3.798   3.921   2.085  1.2434  1.1901  0.7712
 2160TIP3   OH227970   6.813   0.723   3.966  0.2123 -0.8146 -0.1158
 2160TIP3    H127971   6.836   0.672   4.044 -1.0878  2.5552  2.6385
 2160TIP3    H227972   6.721   0.703   3.951  0.2787 -0.9358 -0.3595
 2161TIP3   OH227973   2.137   0.843   6.217 -0.6493  0.3260  0.1851
 2161TIP3    H127974   2.174   0.798   6.293 -0.5103 -0.2908 -0.2376
 2161TIP3    H227975   2.064   0.893   6.251  0.1896  1.0551  0.9369
 2162TIP3   OH227976   2.062   0.622  13.928 -0.5689  0.0837 -0.2752
 2162TIP3    H127977   2.091   0.540  13.888  0.9074  0.7183 -0.5401
 2162TIP3    H227978   2.127   0.639  13.996 -2.6241 -0.5906  1.9262
 2163TIP3   OH227979   6.346   5.165  14.813 -0.2909 -0.3633  0.0986
 2163TIP3    H127980   6.438   5.142  14.825  0.3042  1.8170 -0.1264
 2163TIP3    H227981   6.311   5.094  14.759  1.4863 -0.7311 -0.6210
 2164TIP3   OH227982   4.175   5.832   3.946  0.0699 -0.9912 -0.1181
 2164TIP3    H127983   4.183   5.912   3.893  0.5946 -0.6516  0.4687
 2164TIP3    H227984   4.111   5.855   4.013  0.2465 -1.0500  0.0706
 2165TIP3   OH227985   3.276   3.414   3.110 -0.1744  0.1557 -0.2683
 2165TIP3    H127986   3.311   3.503   3.103  0.9941 -0.1844  0.9536
 2165TIP3    H227987   3.352   3.357   3.097 -0.6479 -0.6297  0.3476
 2166TIP3   OH227988   0.061   4.733   6.379 -0.2356  0.7737 -0.4504
 2166TIP3    H127989   0.076   4.701   6.468 -2.0214  1.6977  0.2033
 2166TIP3    H227990   0.135   4.792   6.363  0.6904 -0.2329 -0.0105
 2167TIP3   OH227991   2.135   5.400   3.817  0.2062 -0.0734 -0.3861
 2167TIP3    H127992   2.189   5.479   3.822  0.1386  0.0372 -1.3518
 2167TIP3    H227993   2.173   5.341   3.883  1.0271  0.2871 -0.5331
 2168TIP3   OH227994   2.291   3.709  15.718 -0.0279 -0.4260 -0.6894
 2168TIP3    H127995   2.362   3.695  15.781 -0.8449 -0.2556  0.2975
 2168TIP3    H227996   2.326   3.772  15.656  0.5752 -0.1010 -0.0318
 2169TIP3   OH227997   1.754   3.297  10.656  0.2293 -0.2547  0.2343
 2169TIP3    H127998   1.690   3.287  10.585 -0.0767 -2.2326  0.7652
 2169TIP3    H227999   1.725   3.235  10.723  0.7001  1.3814  1.9660
 2170TIP3   OH228000   0.741   4.758  11.458  0.6176 -0.6100  0.2813
 2170TIP3    H128001   0.652   4.785  11.434  1.4427  0.4508 -1.7287
 2170TIP3    H228002   0.772   4.829  11.515  0.4564 -0.5616  0.3097
 2171TIP3   OH228003   1.252   6.009  16.589 -0.9787 -0.3979 -0.4023
 2171TIP3    H128004   1.256   6.046  16.677  0.6951  1.4971 -1.2384
 2171TIP3    H228005   1.285   6.078  16.532 -1.4429 -1.8194 -2.4576
 2172TIP3   OH228006   3.532   0.991   5.485  0.1211 -0.6712 -0.0782
 2172TIP3    H128007   3.514   0.903   5.516  2.0957 -1.5858 -1.4335
 2172TIP3    H228008   3.556   0.981   5.393  2.5273  0.9674  0.3100
 2173TIP3   OH228009   5.081   6.493  11.305 -0.4600  0.2191 -0.0664
 2173TIP3    H128010   5.097   6.585  11.327 -0.1632 -0.3159  2.1117
 2173TIP3    H228011   5.014   6.496  11.238 -0.5812  2.0348  0.1019
 2174TIP3   OH228012   2.144   2.282  11.865  0.0929  0.2505  0.0407
 2174TIP3    H128013   2.204   2.340  11.912  0.1836  1.9343 -2.0650
 2174TIP3    H228014   2.147   2.313  11.775  0.0824 -3.0219 -1.1598
 2175TIP3   OH228015   6.604   2.057  14.394  0.6283  0.0069  0.0470
 2175TIP3    H128016   6.529   2.114  14.412  0.5988 -0.6773  2.2774
 2175TIP3    H228017   6.565   1.981  14.349  0.1643  0.2186  0.0838
 2176TIP3   OH228018   2.204   5.729   4.914  0.4957 -0.1227 -0.0518
 2176TIP3    H128019   2.271   5.662   4.926 -1.0883 -1.6264  0.7415
 2176TIP3    H228020   2.131   5.700   4.969 -0.5557  1.8110 -0.3647
 2177TIP3   OH228021   2.380   4.560   5.985 -0.7692 -0.0320 -0.4025
 2177TIP3    H128022   2.332   4.621   6.041  1.0206 -0.8487  2.1048
 2177TIP3    H228023   2.311   4.511   5.940 -2.2346  2.4834 -0.9951
 2178TIP3   OH228024   4.564   3.326   4.804  0.3237 -0.0087 -0.0424
 2178TIP3    H128025   4.470   3.316   4.820  0.7182  0.0325  2.4360
 2178TIP3    H228026   4.599   3.358   4.887  2.6413 -0.6646 -0.7421
 2179TIP3   OH228027   3.393   5.846   2.297 -0.2535 -0.2500  0.1372
 2179TIP3    H128028   3.387   5.881   2.386 -0.1551 -1.2350  0.5377
 2179TIP3    H228029   3.316   5.881   2.252  0.4882  1.4796  0.1636
 2180TIP3   OH228030   0.191   2.986   5.044  0.8450  0.1539  0.0867
 2180TIP3    H128031   0.267   2.988   4.985  1.1202  1.1101  0.4575
 2180TIP3    H228032   0.158   2.897   5.037 -0.9213  1.0141 -3.8063
 2181TIP3   OH228033   3.240   0.630   4.314  0.4723  0.4531  0.6288
 2181TIP3    H128034   3.205   0.606   4.399  1.6425 -0.8331  0.7603
 2181TIP3    H228035   3.169   0.613   4.253  0.1092  0.0416  1.1679
 2182TIP3   OH228036   0.242   5.540  13.309 -0.1991 -0.5375 -0.2710
 2182TIP3    H128037   0.260   5.448  13.290 -0.8392 -0.6514 -0.3414
 2182TIP3    H228038   0.207   5.540  13.398 -0.7584 -0.4368 -0.4838
 2183TIP3   OH228039   5.669   3.267  11.117  0.6768 -0.6889 -0.3036
 2183TIP3    H128040   5.602   3.336  11.119  4.4137  3.1075  1.2172
 2183TIP3    H228041   5.696   3.263  11.025  2.1488  1.7393 -0.0182
 2184TIP3   OH228042   5.584   0.442  16.306 -0.5959  0.0863  0.1702
 2184TIP3    H128043   5.593   0.533  16.333  0.4480  0.3840 -1.0797
 2184TIP3    H228044   5.662   0.398  16.341 -1.3558 -0.4397  1.2081
 2185TIP3   OH228045   5.481   0.714   6.444 -0.0429 -0.0984 -0.3653
 2185TIP3    H128046   5.553   0.772   6.468 -0.6867  0.4935  0.1673
 2185TIP3    H228047   5.519   0.626   6.445  0.6534  0.2040 -0.0446
 2186TIP3   OH228048   0.953   4.326  13.920 -0.1222 -0.1305  0.3962
 2186TIP3    H128049   1.034   4.286  13.952 -1.1095 -2.5983 -0.0781
 2186TIP3    H228050   0.961   4.322  13.825 -0.2890  0.7004  0.3473
 2187TIP3   OH228051   2.694   1.908  11.700  0.0341 -0.3173  0.3527
 2187TIP3    H128052   2.615   1.904  11.645 -0.3622 -0.0743  0.8993
 2187TIP3    H228053   2.725   1.818  11.704  0.4911 -0.2182 -0.8899
 2188TIP3   OH228054   1.005   0.349  11.912  0.3145 -0.6488 -0.1932
 2188TIP3    H128055   0.919   0.332  11.950 -0.4334 -1.1825 -2.1106
 2188TIP3    H228056   1.046   0.411  11.973 -2.2708  1.3560 -0.4338
 2189TIP3   OH228057   2.058   1.235   3.366  0.3129 -0.0250  0.1644
 2189TIP3    H128058   2.023   1.269   3.284  1.0105 -2.3440 -1.1602
 2189TIP3    H228059   2.153   1.234   3.353  0.3052 -2.6279  0.0378
 2190TIP3   OH228060   2.574   5.511   3.622  0.2226 -0.3564 -0.3616
 2190TIP3    H128061   2.590   5.452   3.695 -1.9665  1.2550  1.4973
 2190TIP3    H228062   2.481   5.500   3.602  0.0064  1.7108 -0.6196
 2191TIP3   OH228063   4.069   4.103  16.858 -0.5951  0.1555 -0.6640
 2191TIP3    H128064   4.143   4.153  16.893 -1.0808  1.2346 -1.1745
 2191TIP3    H228065   4.000   4.114  16.924 -0.2297 -1.0553 -0.0664
 2192TIP3   OH228066   2.575   3.837  12.681  0.2496 -0.3505 -0.1776
 2192TIP3    H128067   2.568   3.794  12.595  2.5461  2.5667 -1.9241
 2192TIP3    H228068   2.488   3.873  12.697 -1.5787 -4.9188  1.0524
 2193TIP3   OH228069   2.413   0.357  13.209 -0.1684 -0.5633 -0.2068
 2193TIP3    H128070   2.415   0.421  13.281 -1.6647 -0.6907 -0.0388
 2193TIP3    H228071   2.331   0.376  13.162  1.7091  0.8242 -3.0840
 2194TIP3   OH228072   3.051   6.623  11.283  0.3572 -0.2815  0.7987
 2194TIP3    H128073   2.988   6.687  11.249 -0.0162 -0.9938  0.1265
 2194TIP3    H228074   2.997   6.547  11.308  0.5058  0.5548  3.8580
 2195TIP3   OH228075   2.782   6.548   3.337  0.2360  0.2640  0.1881
 2195TIP3    H128076   2.827   6.526   3.419 -1.1024 -0.0659  0.8473
 2195TIP3    H228077   2.757   6.640   3.347 -1.4020 -0.2259  0.8822
 2196TIP3   OH228078   5.515   0.138  13.961 -0.5302 -0.4575  0.6219
 2196TIP3    H128079   5.465   0.220  13.954  2.8023  1.5710 -0.6860
 2196TIP3    H228080   5.517   0.104  13.871 -2.1426 -2.1754  1.2086
 2197TIP3   OH228081   6.295   4.761  10.557 -0.5840  0.1430 -0.3096
 2197TIP3    H128082   6.266   4.808  10.479 -0.6018 -1.0792 -1.0308
 2197TIP3    H228083   6.293   4.669  10.533  0.2893 -0.1898  0.8401
 2198TIP3   OH228084   5.729   1.781   1.358 -0.2644  0.2776  0.1649
 2198TIP3    H128085   5.736   1.786   1.454 -1.1456  0.8439  0.2097
 2198TIP3    H228086   5.644   1.821   1.339 -0.3920 -0.4448 -0.8020
 2199TIP3   OH228087   6.076   3.886  16.819  0.3868 -0.3079  0.0181
 2199TIP3    H128088   6.140   3.844  16.761  1.4576  1.7046 -0.3345
 2199TIP3    H228089   6.055   3.968  16.775  0.5052  0.8347  2.0255
 2200TIP3   OH228090   0.555   5.898  11.621 -0.4601  0.6461 -0.0040
 2200TIP3    H128091   0.578   5.811  11.654  0.8345  1.5091  1.3921
 2200TIP3    H228092   0.468   5.886  11.582  0.0215 -1.4464 -0.5393
 2201TIP3   OH228093   5.985   1.473  15.418  0.1318  0.1112 -0.3192
 2201TIP3    H128094   6.040   1.551  15.410  0.8921 -0.5102 -1.1095
 2201TIP3    H228095   5.973   1.442  15.329  0.9019 -1.4204  0.0956
 2202TIP3   OH228096   6.785   1.670   5.901  0.5719  0.1694  0.2679
 2202TIP3    H128097   6.824   1.682   5.814 -0.3712  1.3044 -0.0053
 2202TIP3    H228098   6.748   1.582   5.899  2.2683 -0.5612  0.1999
 2203TIP3   OH228099   1.604   5.873   0.576  0.3066 -0.1361  0.6352
 2203TIP3    H128100   1.527   5.891   0.524  1.4745  0.1271 -1.0213
 2203TIP3    H228101   1.612   5.777   0.575  0.2985 -0.1324  0.3952
 2204TIP3   OH228102   2.376   6.277   3.101  0.5960  0.5176 -0.2140
 2204TIP3    H128103   2.400   6.313   3.016 -0.2987 -0.0229 -0.7064
 2204TIP3    H228104   2.438   6.316   3.162  1.0977  1.0925 -1.0787
 2205TIP3   OH228105   2.665   1.468   1.704 -0.0499  0.3362 -0.2447
 2205TIP3    H128106   2.735   1.423   1.752 -1.9811 -1.7376  0.6958
 2205TIP3    H228107   2.678   1.444   1.613 -0.0608 -0.7795  0.0459
 2206TIP3   OH228108   2.436   3.509   2.371  0.4106  0.0125  0.2804
 2206TIP3    H128109   2.387   3.519   2.453 -1.4979  1.9017 -1.0376
 2206TIP3    H228110   2.373   3.472   2.310  1.0645  0.9663 -1.0070
 2207TIP3   OH228111   6.463   6.279  14.198 -0.1636 -0.1670  0.8440
 2207TIP3    H128112   6.550   6.319  14.203  0.2919 -1.2349  1.4825
 2207TIP3    H228113   6.476   6.199  14.147 -0.8224 -0.2247  0.7571
 2208TIP3   OH228114   4.582   3.278  13.550 -0.1705  0.4980 -0.5393
 2208TIP3    H128115   4.552   3.350  13.606  0.2352 -0.5611  1.1008
 2208TIP3    H228116   4.590   3.204  13.610  0.7292 -0.5566 -1.9393
 2209TIP3   OH228117   1.454   4.088   3.278 -0.2376  0.9796  0.1015
 2209TIP3    H128118   1.407   4.171   3.285 -2.0988 -0.1500  1.3694
 2209TIP3    H228119   1.408   4.029   3.338  1.8254 -0.6216  0.1656
 2210TIP3   OH228120   5.769   4.195  15.081 -0.0467 -0.2132  0.1095
 2210TIP3    H128121   5.814   4.253  15.020  0.1628 -1.2623 -0.7536
 2210TIP3    H228122   5.710   4.252  15.130  0.0036  0.6871 -0.8587
 2211TIP3   OH228123   0.875   6.665   0.703 -0.1915 -0.2222  0.2026
 2211TIP3    H128124   0.927   6.736   0.665 -3.0185  2.1775  0.6586
 2211TIP3    H228125   0.893   6.590   0.647  0.4627  1.6749 -2.2051
 2212TIP3   OH228126   1.808   2.627  14.648 -0.0786  0.0628 -0.3334
 2212TIP3    H128127   1.833   2.719  14.657 -0.4308  0.0581  0.7670
 2212TIP3    H228128   1.799   2.614  14.554  1.2694  0.8038 -0.5828
 2213TIP3   OH228129   4.837   1.527   0.166  0.0617  0.2980 -0.1286
 2213TIP3    H128130   4.746   1.513   0.190 -0.1945  0.2512 -1.0867
 2213TIP3    H228131   4.876   1.572   0.241 -0.7424  0.2972  0.2896
 2214TIP3   OH228132   1.862   1.035   2.636  0.5319 -0.3964 -0.2954
 2214TIP3    H128133   1.851   1.083   2.718 -0.9434  0.4503 -0.9685
 2214TIP3    H228134   1.908   1.095   2.578 -0.0383 -0.3182 -0.6724
 2215TIP3   OH228135   4.617   4.608  12.629 -0.5847  0.4165  0.0997
 2215TIP3    H128136   4.603   4.702  12.637 -2.2541  0.0507  2.1468
 2215TIP3    H228137   4.713   4.598  12.630 -0.3768  2.1056 -0.7445
 2216TIP3   OH228138   3.370   1.853  12.625 -0.9059  0.5594 -0.5138
 2216TIP3    H128139   3.399   1.880  12.712  1.4079  1.1886 -1.4528
 2216TIP3    H228140   3.330   1.932  12.588  1.5992  1.4009 -1.4698
 2217TIP3   OH228141   6.365   5.793   3.732  0.3741  0.0727  0.0660
 2217TIP3    H128142   6.373   5.784   3.827  0.6793  0.5339  0.0833
 2217TIP3    H228143   6.443   5.842   3.706  0.3116 -0.0908 -0.4277
 2218TIP3   OH228144   4.578   4.020  16.589 -0.3374  0.2121 -0.4519
 2218TIP3    H128145   4.625   3.938  16.576 -0.6858  0.2256 -1.9316
 2218TIP3    H228146   4.603   4.074  16.514  0.0345  1.5342  0.6045
 2219TIP3   OH228147   1.444   3.551  15.818  0.0966 -0.5651  0.3858
 2219TIP3    H128148   1.481   3.502  15.744 -0.6198 -0.7643  0.1496
 2219TIP3    H228149   1.411   3.632  15.778 -2.7748 -1.8480 -0.0236
 2220TIP3   OH228150   5.808   2.190  14.041  0.4010 -0.0912  0.0173
 2220TIP3    H128151   5.842   2.205  13.953  0.8092 -0.8234  0.0422
 2220TIP3    H228152   5.823   2.273  14.087  2.1891 -0.3862  0.0231
 2221TIP3   OH228153   6.729   2.083   5.963 -0.2529  0.0293 -0.0420
 2221TIP3    H128154   6.699   2.155   5.907 -0.4109  0.3207  0.4179
 2221TIP3    H228155   6.779   2.126   6.032 -0.9310 -0.2438  0.6268
 2222TIP3   OH228156   5.132   5.762   2.899  0.1129  0.0883  0.2851
 2222TIP3    H128157   5.085   5.681   2.915  0.5221  0.1496  1.8805
 2222TIP3    H228158   5.075   5.831   2.933  0.7078  0.2797  0.9121
 2223TIP3   OH228159   1.902   2.313  16.142  0.0940  0.1457 -0.0543
 2223TIP3    H128160   1.991   2.348  16.149 -0.0548  0.5020  0.0556
 2223TIP3    H228161   1.911   2.221  16.165  0.6083 -0.0575 -1.0606
 2224TIP3   OH228162   3.999   0.237   2.127 -0.1975 -0.2693  0.6234
 2224TIP3    H128163   4.087   0.199   2.135  0.6713  1.9473  2.1275
 2224TIP3    H228164   3.975   0.261   2.216 -1.7938  0.3423  0.0434
 2225TIP3   OH228165   2.268   3.900   1.787 -0.4497 -0.1652  0.5799
 2225TIP3    H128166   2.230   3.963   1.848 -0.6958 -1.1890  1.4904
 2225TIP3    H228167   2.202   3.888   1.720 -0.9182 -0.4133  1.0842
 2226TIP3   OH228168   4.838   5.831  12.564 -0.1209 -0.0272 -0.5789
 2226TIP3    H128169   4.840   5.736  12.554 -1.2812  0.0441 -1.6520
 2226TIP3    H228170   4.794   5.863  12.485  1.3179  1.5043 -0.7983
 2227TIP3   OH228171   5.833   3.166  14.276 -0.0704 -0.4124 -0.7712
 2227TIP3    H128172   5.899   3.163  14.344 -0.2558 -0.3971 -0.5920
 2227TIP3    H228173   5.752   3.189  14.321 -0.3261 -1.0652 -0.8960
 2228TIP3   OH228174   1.216   5.967  11.936  0.0318 -0.2941  0.2810
 2228TIP3    H128175   1.155   5.947  11.865 -0.6557  1.7351  0.2799
 2228TIP3    H228176   1.302   5.940  11.903 -0.3709  0.0813 -1.0744
 2229TIP3   OH228177   5.288   0.540  15.853  0.3047  0.0347 -0.0538
 2229TIP3    H128178   5.324   0.458  15.888 -0.3353 -1.3678 -2.5176
 2229TIP3    H228179   5.207   0.553  15.902  0.5847 -0.6275  0.6063
 2230TIP3   OH228180   4.222   6.592  16.262 -0.0750  0.2968  0.3295
 2230TIP3    H128181   4.140   6.597  16.312 -0.6392  0.1279 -0.5727
 2230TIP3    H228182   4.235   6.681  16.229  0.0033  0.2852  0.3295
 2231TIP3   OH228183   5.412   6.768   0.710 -0.0402 -0.4904 -0.0925
 2231TIP3    H128184   5.500   6.794   0.683 -0.2596  0.0655 -0.2732
 2231TIP3    H228185   5.383   6.708   0.641 -0.3056  0.3397 -0.7136
 2232TIP3   OH228186   2.115   4.598  13.274  0.0760  0.5104 -0.1539
 2232TIP3    H128187   2.151   4.660  13.211  1.9521 -0.9068 -0.5026
 2232TIP3    H228188   2.142   4.632  13.359  0.0064  0.8623 -0.2704
 2233TIP3   OH228189   4.523   0.293   2.505  0.5386  0.1173 -0.2711
 2233TIP3    H128190   4.600   0.243   2.478  0.7888  1.0738 -1.3649
 2233TIP3    H228191   4.559   0.378   2.534 -0.1782  1.0026 -1.8951
 2234TIP3   OH228192   5.499   5.905  15.944 -0.3262  0.2155  0.2980
 2234TIP3    H128193   5.431   5.849  15.906 -0.9180  1.1686 -0.0564
 2234TIP3    H228194   5.451   5.982  15.976  0.3182 -0.0383  1.9047
 2235TIP3   OH228195   5.133   1.575  16.718 -0.0828  0.2028 -0.3592
 2235TIP3    H128196   5.158   1.654  16.671 -1.5725  0.1048 -1.3673
 2235TIP3    H228197   5.199   1.510  16.694  1.6561  1.3544  1.1710
 2236TIP3   OH228198   0.617   5.840  12.804 -0.1430 -0.2540  0.0581
 2236TIP3    H128199   0.642   5.867  12.893 -2.6796 -1.3955  1.1790
 2236TIP3    H228200   0.667   5.760  12.789 -3.0470 -2.6413  2.3575
 2237TIP3   OH228201   3.138   2.494  14.879 -0.1257  0.4334 -0.0494
 2237TIP3    H128202   3.102   2.413  14.915 -1.8120  1.9838  1.8376
 2237TIP3    H228203   3.173   2.541  14.955  2.9373  0.4716 -1.4222
 2238TIP3   OH228204   5.874   1.726  15.781  0.1244 -0.1580 -0.1297
 2238TIP3    H128205   5.883   1.797  15.717  0.4942 -1.8592 -1.9979
 2238TIP3    H228206   5.964   1.704  15.805 -0.0168  0.6219  1.1824
 2239TIP3   OH228207   5.383   3.091  12.963  0.0443  0.6802 -0.3090
 2239TIP3    H128208   5.363   3.033  12.889  0.6201 -1.3618  1.0860
 2239TIP3    H228209   5.476   3.110  12.953  1.0686 -2.6736  1.8927
 2240TIP3   OH228210   4.066   5.073  15.918  0.2148  0.2691  0.6542
 2240TIP3    H128211   3.987   5.095  15.968 -0.5028  0.2485 -0.4544
 2240TIP3    H228212   4.098   5.157  15.886  1.0607  0.3552  1.7001
 2241TIP3   OH228213   0.100   4.152  10.806  0.1310  0.0374 -0.7198
 2241TIP3    H128214   0.115   4.233  10.758 -0.5929  0.4024 -0.3521
 2241TIP3    H228215   0.013   4.164  10.846  0.8472 -0.1219  0.9283
 2242TIP3   OH228216   3.942   2.399  13.208  0.1015  0.5677  0.7512
 2242TIP3    H128217   4.010   2.464  13.191  0.2028  0.0431 -0.9267
 2242TIP3    H228218   3.877   2.413  13.139 -1.1083  0.5177  1.8529
 2243TIP3   OH228219   3.962   0.708  14.747  0.3106 -0.6684  0.7207
 2243TIP3    H128220   4.051   0.734  14.772  1.0076 -2.4714  0.2378
 2243TIP3    H228221   3.967   0.612  14.742 -1.1390 -0.6483 -1.3037
 2244TIP3   OH228222   2.499   3.512  16.365  0.1271  0.3847 -0.2840
 2244TIP3    H128223   2.579   3.471  16.396  0.1990  0.2853 -0.5967
 2244TIP3    H228224   2.487   3.477  16.276 -0.3616  0.2543 -0.1700
 2245TIP3   OH228225   5.932   5.935  13.890  0.3989 -0.3223  0.0257
 2245TIP3    H128226   5.922   5.982  13.807  1.1676  1.0705  0.7073
 2245TIP3    H228227   6.012   5.884  13.879  0.9953  0.5537  0.2230
 2246TIP3   OH228228   2.576   2.744   4.090 -0.2902  0.2752  0.1933
 2246TIP3    H128229   2.601   2.802   4.018 -1.3198  0.8435  0.2838
 2246TIP3    H228230   2.530   2.671   4.048 -0.4602  0.3596  0.2342
 2247TIP3   OH228231   3.591   6.542   2.476 -0.3200 -0.5158  0.3159
 2247TIP3    H128232   3.559   6.527   2.565  0.6906  3.2969  1.4617
 2247TIP3    H228233   3.583   6.637   2.464  0.1132 -0.8855 -3.4625
 2248TIP3   OH228234   6.494   6.282   6.464 -0.3126  0.1243  0.0094
 2248TIP3    H128235   6.518   6.293   6.556 -0.5760  0.0901  0.0829
 2248TIP3    H228236   6.416   6.226   6.466 -2.4593  2.9942 -0.0168
 2249TIP3   OH228237   4.289   2.364   5.589 -0.1537  0.1488 -0.0594
 2249TIP3    H128238   4.371   2.402   5.619 -1.0274  1.7072  0.4006
 2249TIP3    H228239   4.276   2.399   5.501 -1.1925  1.3124  0.5452
 2250TIP3   OH228240   2.714   6.703  13.643  0.1014  0.4904 -0.3743
 2250TIP3    H128241   2.637   6.719  13.588 -0.1478  0.1528 -0.1287
 2250TIP3    H228242   2.756   6.627  13.604  0.4963  0.8745 -0.7019
 2251TIP3   OH228243   5.459   6.038   5.412  0.1817 -0.6036 -0.2430
 2251TIP3    H128244   5.440   6.101   5.482 -0.7533  0.1868 -1.1995
 2251TIP3    H228245   5.524   5.979   5.450  1.1194  0.9756  0.6565
 2252TIP3   OH228246   3.006   2.978  12.963 -0.0018 -0.5161 -0.0445
 2252TIP3    H128247   2.999   2.924  12.884 -0.5247 -1.6492  0.7591
 2252TIP3    H228248   2.918   2.975  13.001  0.4719 -0.7032  1.0511
 2253TIP3   OH228249   3.041   4.103  16.897 -0.3303 -0.1030 -0.3057
 2253TIP3    H128250   3.006   4.164  16.832  0.4237 -1.7851 -2.3445
 2253TIP3    H228251   2.975   4.103  16.967 -1.6984  0.9222 -1.5506
 2254TIP3   OH228252   3.141   1.777   0.631  0.6072 -0.1531  0.2802
 2254TIP3    H128253   3.152   1.746   0.541  1.6907 -0.0802  0.3865
 2254TIP3    H228254   3.168   1.704   0.686  2.8939  0.8587  0.5306
 2255TIP3   OH228255   6.186   1.876  12.334  0.0172  0.2874  0.7923
 2255TIP3    H128256   6.175   1.783  12.318 -0.6079  0.4357  0.3594
 2255TIP3    H228257   6.110   1.917  12.293  0.8588  1.0895  0.0254
 2256TIP3   OH228258   3.584   1.052   0.825 -0.4196 -0.1382 -0.5584
 2256TIP3    H128259   3.631   1.133   0.809 -1.9802  0.8849 -0.0563
 2256TIP3    H228260   3.651   0.992   0.859  1.3686 -0.0500 -3.7521
 2257TIP3   OH228261   6.432   3.887   4.290 -0.4115 -0.2411  0.2885
 2257TIP3    H128262   6.370   3.876   4.217 -0.5465  2.3888 -0.0482
 2257TIP3    H228263   6.394   3.957   4.342  1.2385 -0.0566  1.2492
 2258TIP3   OH228264   1.719   1.903   2.308  0.2844  0.3759  0.1508
 2258TIP3    H128265   1.791   1.847   2.335 -0.2630 -1.1804 -1.5455
 2258TIP3    H228266   1.697   1.874   2.220 -2.0660  1.1917  0.4233
 2259TIP3   OH228267   4.730   2.998  14.553 -0.0775 -0.3660  0.2838
 2259TIP3    H128268   4.643   3.038  14.555 -0.0388 -0.3143  1.0224
 2259TIP3    H228269   4.791   3.072  14.551  0.0557 -0.3250  3.7399
 2260TIP3   OH228270   1.867   2.019  17.111  0.4081 -0.1229 -0.2592
 2260TIP3    H128271   1.956   2.002  17.082 -0.0235  0.1244 -1.7467
 2260TIP3    H228272   1.818   1.942  17.083  0.0784 -0.1025  0.2511
 2261TIP3   OH228273   0.697   1.375   2.907  0.0051 -0.7775  0.0999
 2261TIP3    H128274   0.727   1.423   2.829  2.0963 -1.8866  0.1899
 2261TIP3    H228275   0.730   1.426   2.981 -2.9798  0.9291  0.3652
 2262TIP3   OH228276   1.455   0.306  16.704  0.0357 -0.8984 -0.6225
 2262TIP3    H128277   1.462   0.264  16.618 -2.0339 -0.2957 -1.0964
 2262TIP3    H228278   1.404   0.385  16.688 -0.4939 -0.8546  1.1931
 2263TIP3   OH228279   5.591   2.772  11.424 -0.1099  0.1309  0.0173
 2263TIP3    H128280   5.635   2.716  11.361  0.4163 -0.7737  1.1767
 2263TIP3    H228281   5.655   2.840  11.446  0.0870 -0.1678  0.3722
 2264TIP3   OH228282   4.183   2.208  12.778  0.2817 -0.5193  0.8143
 2264TIP3    H128283   4.244   2.156  12.726  1.4648  0.5506  1.0991
 2264TIP3    H228284   4.226   2.217  12.863 -0.1987  0.3873  0.9662
 2265TIP3   OH228285   3.490   6.377  16.123  0.0269 -0.3968 -0.0609
 2265TIP3    H128286   3.526   6.401  16.038 -0.7162 -1.0510 -0.5677
 2265TIP3    H228287   3.395   6.379  16.111 -0.0731 -1.7935  0.3741
 2266TIP3   OH228288   4.946   0.182   5.165 -0.3230 -0.5327  0.4155
 2266TIP3    H128289   4.888   0.205   5.092  1.3558  0.2002 -0.7449
 2266TIP3    H228290   5.023   0.238   5.152  0.6402 -1.4749  1.8982
 2267TIP3   OH228291   1.030   4.056   3.011 -0.7872 -0.6984  0.2786
 2267TIP3    H128292   0.953   4.093   2.967  0.1883  0.0926 -0.7869
 2267TIP3    H228293   1.057   4.124   3.074  1.0275  0.4784 -1.7060
 2268TIP3   OH228294   6.725   5.823  14.958 -0.2199 -0.4820  0.1337
 2268TIP3    H128295   6.740   5.747  14.902  0.2037 -1.4102  1.4709
 2268TIP3    H228296   6.764   5.798  15.042 -0.9589  0.8268  0.8704
 2269TIP3   OH228297   5.997   0.922   2.878 -0.1175 -0.2179 -0.2466
 2269TIP3    H128298   6.048   0.854   2.922 -0.3535 -0.5272 -0.4408
 2269TIP3    H228299   6.030   1.005   2.912  0.4157 -0.4231 -0.2720
 2270TIP3   OH228300   1.993   5.467   5.887 -0.2071  0.2616  0.1596
 2270TIP3    H128301   2.081   5.433   5.902 -1.0114 -1.1805  1.8353
 2270TIP3    H228302   1.968   5.508   5.970 -2.1358 -1.7844  0.6547
 2271TIP3   OH228303   2.665   3.903  13.255  0.0383  0.4344  0.2909
 2271TIP3    H128304   2.738   3.943  13.208  0.2379  0.4620  0.6244
 2271TIP3    H228305   2.689   3.811  13.264  0.3588  0.5810  1.0173
 2272TIP3   OH228306   1.739   5.638  11.402 -0.2608 -0.4279 -0.2939
 2272TIP3    H128307   1.652   5.608  11.375  0.2757 -0.9502 -1.4317
 2272TIP3    H228308   1.730   5.655  11.496 -1.8621  0.4465 -0.5876
 2273TIP3   OH228309   6.656   4.840  13.704 -0.4487  0.5027  0.1159
 2273TIP3    H128310   6.681   4.873  13.790 -1.0029  0.4698  0.2951
 2273TIP3    H228311   6.679   4.747  13.705  0.0708  0.6321  0.0224
 2274TIP3   OH228312   3.332   1.182  14.719 -0.0661 -0.5432  0.4309
 2274TIP3    H128313   3.374   1.098  14.698  2.4288  0.9399 -0.6210
 2274TIP3    H228314   3.270   1.160  14.789  1.7855 -2.9697  1.3793
 2275TIP3   OH228315   6.401   3.390   0.981  0.1531  0.2973 -0.0635
 2275TIP3    H128316   6.334   3.434   0.929 -0.3494 -0.1502  0.1993
 2275TIP3    H228317   6.394   3.429   1.068 -0.6683 -0.6753  0.3187
 2276TIP3   OH228318   3.192   4.752  14.242  0.2852 -0.0752 -0.0803
 2276TIP3    H128319   3.250   4.823  14.271  0.7221 -0.2216 -0.5964
 2276TIP3    H228320   3.113   4.795  14.213 -0.1929  0.0795  1.4088
 2277TIP3   OH228321   0.602   5.591  11.154  0.7339 -0.2496  0.2069
 2277TIP3    H128322   0.693   5.563  11.165  0.7082 -0.7026 -0.6686
 2277TIP3    H228323   0.578   5.562  11.066  0.4490  1.8394 -0.4441
 2278TIP3   OH228324   0.662   3.560   0.395  0.4448  0.1281  0.2917
 2278TIP3    H128325   0.687   3.505   0.470  0.4612 -0.2835 -0.0159
 2278TIP3    H228326   0.738   3.559   0.338  0.8608  1.3620  0.7908
 2279TIP3   OH228327   3.465   0.451   0.207 -0.1395 -0.1500  0.1203
 2279TIP3    H128328   3.520   0.373   0.198  1.0653  0.7828 -0.8923
 2279TIP3    H228329   3.526   0.520   0.235 -0.8210  0.8527 -0.8163
 2280TIP3   OH228330   3.829   4.853   4.537  0.1551  0.0141  0.2571
 2280TIP3    H128331   3.866   4.852   4.449  2.3539  0.4964  1.1406
 2280TIP3    H228332   3.795   4.942   4.547 -0.5633 -0.1920 -0.2602
 2281TIP3   OH228333   4.708   2.732  10.598 -0.2902 -0.8510  0.5307
 2281TIP3    H128334   4.628   2.721  10.547  0.2250 -0.1551 -0.4602
 2281TIP3    H228335   4.721   2.827  10.601  0.8740 -0.9936  0.0898
 2282TIP3   OH228336   4.643   5.434   5.728 -0.5549  0.5435  0.1608
 2282TIP3    H128337   4.662   5.366   5.793 -1.3913 -1.3471 -1.5390
 2282TIP3    H228338   4.564   5.477   5.761 -0.0984  0.6376  1.1681
 2283TIP3   OH228339   4.452   1.980   3.607  0.1359 -0.0275  0.7828
 2283TIP3    H128340   4.390   1.983   3.535  1.1990 -0.9071 -0.1891
 2283TIP3    H228341   4.434   2.059   3.658 -2.1387 -0.5498  0.8359
 2284TIP3   OH228342   0.632   4.668   4.051  0.0157 -0.5698  0.0171
 2284TIP3    H128343   0.572   4.625   3.991 -0.8040  0.3674  0.1525
 2284TIP3    H228344   0.621   4.621   4.134 -1.3547  0.2898  0.3422
 2285TIP3   OH228345   1.484   4.065   1.604 -0.0267 -0.8152 -0.0956
 2285TIP3    H128346   1.393   4.052   1.629 -0.1405 -0.2655 -0.2161
 2285TIP3    H228347   1.533   4.004   1.659 -0.4998 -1.3614 -0.2774
 2286TIP3   OH228348   5.708   4.085   3.842  0.2097 -0.8329 -0.4146
 2286TIP3    H128349   5.793   4.125   3.864 -0.1810 -1.6267  2.7744
 2286TIP3    H228350   5.728   3.993   3.830  0.2230 -0.5851 -2.4088
 2287TIP3   OH228351   2.134   2.974  13.345  0.3949  0.7367  0.5135
 2287TIP3    H128352   2.068   2.950  13.280  1.0812 -1.4555  0.5587
 2287TIP3    H228353   2.195   3.031  13.297  0.8950 -0.8574 -0.8212
 2288TIP3   OH228354   3.153   3.044  15.329  0.2864 -0.2799 -0.4640
 2288TIP3    H128355   3.103   3.011  15.255 -3.1015  0.4625  1.3707
 2288TIP3    H228356   3.168   2.967  15.384 -0.4897 -0.1995 -0.1302
 2289TIP3   OH228357   1.459   5.582  13.928  0.4179  0.5317 -0.0237
 2289TIP3    H128358   1.518   5.537  13.867  0.5743  3.5763 -2.2048
 2289TIP3    H228359   1.388   5.615  13.872 -1.0447  0.7716  1.9208
 2290TIP3   OH228360   5.141   1.910   3.879  0.6668  0.4622 -0.0426
 2290TIP3    H128361   5.200   1.942   3.810 -1.4319  0.3139 -1.9758
 2290TIP3    H228362   5.094   1.837   3.838  1.0801 -1.1984  2.3548
 2291TIP3   OH228363   0.032   2.142  11.936 -0.0100  0.7391 -0.2364
 2291TIP3    H128364   0.113   2.188  11.958  0.3139 -0.2028  0.5974
 2291TIP3    H228365   0.018   2.162  11.843  0.9775  1.2202 -0.2969
 2292TIP3   OH228366   5.733   0.891  13.535  0.1121  0.5137  0.2565
 2292TIP3    H128367   5.662   0.856  13.481 -0.8926  1.0422  1.1939
 2292TIP3    H228368   5.728   0.840  13.616 -1.7492  3.1112  1.8718
 2293TIP3   OH228369   2.311   2.782   5.333 -0.0221  0.0369 -0.1195
 2293TIP3    H128370   2.251   2.743   5.271 -0.1957 -0.3703  0.3020
 2293TIP3    H228371   2.266   2.776   5.418  1.0102 -1.1870  0.3672
 2294TIP3   OH228372   3.907   1.078   4.730 -0.6467 -0.2090  0.1225
 2294TIP3    H128373   3.895   1.142   4.660  2.6119 -0.1357 -0.4585
 2294TIP3    H228374   3.946   1.129   4.802 -2.1510 -0.6780  1.2901
 2295TIP3   OH228375   4.101   0.824  16.126 -1.0793 -0.0587  0.5906
 2295TIP3    H128376   4.062   0.895  16.176 -0.2283  0.7248  0.1492
 2295TIP3    H228377   4.195   0.842  16.128 -0.7681 -1.6548  1.2230
 2296TIP3   OH228378   5.346   5.640  14.564  0.0854  0.1919  0.7211
 2296TIP3    H128379   5.369   5.679  14.480  0.5013  3.3216  2.2395
 2296TIP3    H228380   5.336   5.546  14.544  2.5728  0.4779 -2.3202
 2297TIP3   OH228381   4.813   4.938  15.470  0.3675  0.6445  0.3893
 2297TIP3    H128382   4.874   4.867  15.451 -0.0461  0.8291 -1.7573
 2297TIP3    H228383   4.727   4.902  15.445 -0.0550  1.3440  0.8223
 2298TIP3   OH228384   3.225   3.259   2.823 -0.8970 -0.1700  0.2242
 2298TIP3    H128385   3.132   3.245   2.807 -0.9473  0.4020  0.0267
 2298TIP3    H228386   3.248   3.194   2.890 -1.2139 -0.9788 -0.4351
 2299TIP3   OH228387   6.648   2.782  11.277 -0.7882 -0.4158  0.0850
 2299TIP3    H128388   6.597   2.857  11.307  1.2945  1.3779 -0.6450
 2299TIP3    H228389   6.725   2.781  11.334  0.2339 -0.6952 -1.2752
 2300TIP3   OH228390   5.616   5.100   0.129  0.4897  0.6301  0.2448
 2300TIP3    H128391   5.616   5.005   0.120  0.2583  0.6080  0.5008
 2300TIP3    H228392   5.595   5.132   0.041  1.7367  0.4706 -0.1329
 2301TIP3   OH228393   2.041   3.592  16.628 -0.6010 -0.2709  0.1977
 2301TIP3    H128394   2.029   3.527  16.698  0.6777  0.1561  0.8256
 2301TIP3    H228395   2.127   3.572  16.591 -0.2947  0.9179  0.2460
 2302TIP3   OH228396   2.100   0.183  17.152 -0.4975 -0.2782  0.0652
 2302TIP3    H128397   2.054   0.266  17.140 -1.1059 -0.6827 -0.4330
 2302TIP3    H228398   2.155   0.174  17.074  0.4505  0.2145  0.6665
 2303TIP3   OH228399   3.731   3.272  11.719 -0.1641  0.3356  0.1272
 2303TIP3    H128400   3.742   3.367  11.728 -0.7849  0.5255 -0.9634
 2303TIP3    H228401   3.657   3.251  11.776  0.0256  0.4922  0.4324
 2304TIP3   OH228402   4.662   4.834  15.125  0.1973 -0.0023  0.0666
 2304TIP3    H128403   4.608   4.755  15.116  0.2274  0.0299 -0.3758
 2304TIP3    H228404   4.629   4.893  15.058  1.5744 -0.4319 -1.0017
 2305TIP3   OH228405   3.843   0.406   1.979 -0.2942 -0.0504  0.2693
 2305TIP3    H128406   3.916   0.367   2.027  0.1610  0.5470  0.0749
 2305TIP3    H228407   3.840   0.497   2.009  0.7152  0.6507 -1.6372
 2306TIP3   OH228408   0.719   5.838   2.126  0.0579  0.2744  0.2180
 2306TIP3    H128409   0.650   5.772   2.115 -0.3580  0.3261  2.3411
 2306TIP3    H228410   0.799   5.787   2.136 -0.1726  0.0968  1.2064
 2307TIP3   OH228411   2.577   2.766  16.563  0.0105  0.3253 -0.0695
 2307TIP3    H128412   2.525   2.824  16.618 -1.0528 -0.1871 -0.5153
 2307TIP3    H228413   2.628   2.825  16.507  0.4133  0.8367  0.8309
 2308TIP3   OH228414   1.167   5.693  11.266 -0.1583  0.0503 -0.1061
 2308TIP3    H128415   1.198   5.633  11.198 -0.5747 -0.1782 -0.0999
 2308TIP3    H228416   1.117   5.638  11.326 -1.3668  0.5569 -0.6343
 2309TIP3   OH228417   6.432   5.433  15.365  0.4314 -0.4859  0.6833
 2309TIP3    H128418   6.516   5.428  15.319  0.0041  0.9602 -0.2743
 2309TIP3    H228419   6.374   5.374  15.317 -0.1254  1.3189 -0.9002
 2310TIP3   OH228420   6.492   3.495  11.391 -0.1389  0.0048 -0.7366
 2310TIP3    H128421   6.473   3.462  11.303  0.3490 -1.2230 -0.3760
 2310TIP3    H228422   6.586   3.480  11.403 -0.2336  0.0371  0.0544
 2311TIP3   OH228423   2.392   0.860   1.302  0.4344 -0.2877  0.6007
 2311TIP3    H128424   2.312   0.822   1.265  0.8845  0.0356 -0.7310
 2311TIP3    H228425   2.361   0.914   1.375 -0.7725  1.4034 -1.1173
 2312TIP3   OH228426   0.353   3.093  14.212  0.1814 -0.5126  0.0375
 2312TIP3    H128427   0.352   3.172  14.266 -0.5107 -1.3297  1.2402
 2312TIP3    H228428   0.385   3.123  14.127 -0.5028  1.1465  0.3386
 2313TIP3   OH228429   5.069   3.685  13.467 -0.7580 -0.2374 -0.3193
 2313TIP3    H128430   5.157   3.646  13.466  0.3836  2.2481  0.1798
 2313TIP3    H228431   5.036   3.671  13.378  0.8658  0.3936 -1.0441
 2314TIP3   OH228432   2.113   1.843   4.211 -0.2354  0.8426 -0.5830
 2314TIP3    H128433   2.055   1.772   4.239  1.4637  0.3339  1.7618
 2314TIP3    H228434   2.074   1.922   4.249 -0.2302  0.6997 -0.2782
 2315TIP3   OH228435   1.313   1.420  12.314  0.9662 -0.4307  0.0924
 2315TIP3    H128436   1.239   1.380  12.268  1.9137 -1.8093 -0.2535
 2315TIP3    H228437   1.292   1.513  12.315 -0.6974 -0.7727 -0.1572
 2316TIP3   OH228438   4.638   2.336  14.340 -0.0856 -0.6897  0.5088
 2316TIP3    H128439   4.605   2.274  14.404 -1.7534 -0.2225  0.1236
 2316TIP3    H228440   4.733   2.335  14.353 -0.4313 -0.0110  3.5305
 2317TIP3   OH228441   0.744   3.358  13.531  0.0720 -1.2271 -0.0618
 2317TIP3    H128442   0.840   3.365  13.530 -0.0230  0.1364 -0.2408
 2317TIP3    H228443   0.718   3.390  13.617 -0.3524  0.3083 -0.7540
 2318TIP3   OH228444   1.722   3.034  15.258  0.3474  0.6868 -0.1320
 2318TIP3    H128445   1.665   3.061  15.330  0.2949 -0.2960  0.2069
 2318TIP3    H228446   1.801   3.002  15.301 -0.8206 -2.6336 -0.3529
 2319TIP3   OH228447   0.905   4.656  15.599  1.2575 -0.0921  0.7361
 2319TIP3    H128448   0.960   4.734  15.589  0.6807  0.3927  1.2318
 2319TIP3    H228449   0.945   4.590  15.542  2.3343  0.2534  1.0796
 2320TIP3   OH228450   4.646   6.306  16.082 -0.0736  0.2522 -0.3984
 2320TIP3    H128451   4.685   6.317  16.169  0.0841  0.7304 -0.5293
 2320TIP3    H228452   4.710   6.346  16.023  0.7065 -1.6927 -0.9163
 2321TIP3   OH228453   5.617   5.043  14.201  0.5089 -0.4542 -0.3330
 2321TIP3    H128454   5.611   5.123  14.148  0.7840  0.9885  1.7298
 2321TIP3    H228455   5.704   5.008  14.182  0.6750  0.1417 -0.6894
 2322TIP3   OH228456   6.092   0.366  15.488  0.2925 -0.1020  0.2446
 2322TIP3    H128457   6.169   0.417  15.461 -0.2805  0.0165 -1.1967
 2322TIP3    H228458   6.125   0.277  15.500  0.9839  0.2826  1.2709
 2323TIP3   OH228459   0.441   0.097   0.371  0.5803 -0.1530  0.7429
 2323TIP3    H128460   0.369   0.036   0.355 -0.2632  0.2963  2.7157
 2323TIP3    H228461   0.400   0.184   0.370  1.4248  0.2493 -0.0015
 2324TIP3   OH228462   4.169   4.830  11.903  0.0020 -0.6666 -0.0392
 2324TIP3    H128463   4.077   4.821  11.926  0.3057 -1.7755  0.7879
 2324TIP3    H228464   4.216   4.805  11.983  1.0413 -1.5363 -0.9113
 2325TIP3   OH228465   2.340   5.363   3.578  0.0450 -0.8249 -0.0763
 2325TIP3    H128466   2.332   5.294   3.512 -0.2961 -0.6100 -0.2631
 2325TIP3    H228467   2.250   5.381   3.604  0.0740  0.0224 -0.5222
 2326TIP3   OH228468   5.048   1.679  16.124 -0.4201 -0.8389 -0.3983
 2326TIP3    H128469   5.095   1.740  16.067 -1.3224  1.0646  0.8534
 2326TIP3    H228470   4.956   1.693  16.103 -0.6623 -1.4504  0.2397
 2327TIP3   OH228471   0.465   0.598   0.051  0.1206  0.5006 -0.5459
 2327TIP3    H128472   0.411   0.519   0.046 -1.4852  1.2426  3.5416
 2327TIP3    H228473   0.405   0.669   0.028  0.1337  1.0226  0.9758
 2328TIP3   OH228474   1.864   6.594  11.940 -0.1982  0.3947 -0.1109
 2328TIP3    H128475   1.838   6.642  12.018  2.6764  1.4305  0.2564
 2328TIP3    H228476   1.809   6.516  11.941 -0.6311  0.6742  2.6333
 2329TIP3   OH228477   4.500   4.195   3.532 -0.4909  0.1519 -0.9628
 2329TIP3    H128478   4.459   4.221   3.615 -1.8288 -2.8924 -0.6084
 2329TIP3    H228479   4.587   4.236   3.535 -1.2519  1.6958  1.0596
 2330TIP3   OH228480   5.902   3.424   0.020  0.2097  0.1653 -0.2983
 2330TIP3    H128481   5.885   3.331   0.033 -0.2785  0.2951  0.0170
 2330TIP3    H228482   5.961   3.428  -0.055 -0.4827 -0.3447 -0.8738
 2331TIP3   OH228483   0.390   3.893  13.144  0.4043 -0.5632  0.0762
 2331TIP3    H128484   0.297   3.915  13.143 -0.0524 -2.4794 -0.0274
 2331TIP3    H228485   0.430   3.962  13.198 -0.9514  0.6735 -0.4752
 2332TIP3   OH228486   1.342   3.998  13.259  0.3949 -1.0605  0.5448
 2332TIP3    H128487   1.420   3.944  13.252  0.9533 -0.3476  1.1647
 2332TIP3    H228488   1.371   4.076  13.307 -0.4531 -0.3375 -0.0983
 2333TIP3   OH228489   2.308   6.586  16.434 -0.1497 -0.0557  0.4097
 2333TIP3    H128490   2.225   6.610  16.476  0.0948  0.2976  0.6974
 2333TIP3    H228491   2.330   6.500  16.470 -2.0719 -1.6943 -2.1664
 2334TIP3   OH228492   5.527   1.583  16.585 -0.2456  0.0875  0.1596
 2334TIP3    H128493   5.551   1.627  16.667  0.7009  0.0969 -0.1168
 2334TIP3    H228494   5.467   1.514  16.613 -0.4882  0.5412  0.7801
 2335TIP3   OH228495   4.700   5.528  11.881 -0.0413  0.3720  0.0653
 2335TIP3    H128496   4.674   5.460  11.819  0.2040 -0.5135  0.9288
 2335TIP3    H228497   4.628   5.590  11.880 -0.6285 -0.3081 -0.1357
 2336TIP3   OH228498   2.525   1.496  11.472  0.4117  0.3098 -0.2227
 2336TIP3    H128499   2.514   1.467  11.381  0.5013 -1.6889  0.3907
 2336TIP3    H228500   2.436   1.509  11.504  0.2886 -1.4252  0.1667
 2337TIP3   OH228501   6.527   1.898   0.716  0.0169 -0.2002  0.2052
 2337TIP3    H128502   6.504   1.961   0.785 -0.1329  0.1126 -0.1271
 2337TIP3    H228503   6.481   1.930   0.638  0.5151 -0.3154 -0.1422
 2338TIP3   OH228504   4.185   3.531   6.013 -0.1178 -0.3728  0.1623
 2338TIP3    H128505   4.227   3.530   6.099  0.9758 -1.4288 -0.3839
 2338TIP3    H228506   4.190   3.623   5.985  0.9323 -0.3232  0.5263
 2339TIP3   OH228507   4.803   5.358  17.242 -0.3464  0.0318  0.0185
 2339TIP3    H128508   4.862   5.370  17.167  1.3805 -0.9800  1.1840
 2339TIP3    H228509   4.718   5.391  17.212  0.3802 -0.1608 -2.2975
 2340TIP3   OH228510   3.574   3.297   4.523  0.2237 -0.2617 -0.9336
 2340TIP3    H128511   3.591   3.344   4.604 -4.4480 -0.8066  0.5334
 2340TIP3    H228512   3.639   3.226   4.522 -0.1357 -0.7464  2.7883
 2341TIP3   OH228513   5.958   2.030  13.813 -0.2238 -0.1737 -0.2126
 2341TIP3    H128514   5.922   1.977  13.742 -1.2390  0.5511 -0.2468
 2341TIP3    H228515   5.974   2.116  13.773 -0.6293  0.1817  0.3912
 2342TIP3   OH228516   4.923   1.006   3.507 -0.1913 -0.1930 -0.0619
 2342TIP3    H128517   5.013   1.027   3.532  0.2877 -2.5277  0.3221
 2342TIP3    H228518   4.919   1.029   3.414  0.9770 -0.5424 -0.2176
 2343TIP3   OH228519   1.456   1.732   0.961  0.1072 -0.1810  0.3024
 2343TIP3    H128520   1.551   1.724   0.953 -0.1260 -1.3607 -1.5526
 2343TIP3    H228521   1.429   1.657   1.014  0.2428  0.3189  1.0780
 2344TIP3   OH228522   2.536   0.158   2.166  0.1179  0.8891  0.6492
 2344TIP3    H128523   2.509   0.155   2.074 -0.3204  0.6335  0.7820
 2344TIP3    H228524   2.611   0.218   2.168 -2.0299  3.6525  0.6824
 2345TIP3   OH228525   1.783   6.597   5.895 -0.5419 -0.6460 -0.5672
 2345TIP3    H128526   1.733   6.644   5.961  0.7538  0.7441 -0.5365
 2345TIP3    H228527   1.728   6.599   5.817 -0.9027  0.1221 -0.3009
 2346TIP3   OH228528   3.627   2.999  12.737  0.6826 -0.5351 -0.8373
 2346TIP3    H128529   3.682   2.963  12.667 -0.7047 -1.2323 -1.5739
 2346TIP3    H228530   3.567   3.059  12.692 -0.1642 -0.9263 -0.2422
 2347TIP3   OH228531   5.809   4.209   2.178 -0.0377 -0.7036  0.3019
 2347TIP3    H128532   5.721   4.229   2.146 -0.4392 -0.3174  1.6115
 2347TIP3    H228533   5.852   4.294   2.183 -0.0694 -0.7238  1.0220
 2348TIP3   OH228534   5.149   6.470   4.296  0.1493 -0.0095 -0.0335
 2348TIP3    H128535   5.158   6.565   4.283 -0.1047  0.0570  0.2749
 2348TIP3    H228536   5.227   6.446   4.345  0.0794  0.0842  0.1232
 2349TIP3   OH228537   5.673   2.819  12.459  0.0452  0.3184 -0.2125
 2349TIP3    H128538   5.707   2.880  12.525  0.3153  0.5789 -0.5886
 2349TIP3    H228539   5.751   2.775  12.424 -0.2108 -0.8164  0.6110
 2350TIP3   OH228540   2.044   4.621   2.426 -0.2148 -0.2434 -0.4860
 2350TIP3    H128541   2.051   4.711   2.459  0.5033 -0.4555 -0.0715
 2350TIP3    H228542   1.990   4.576   2.491  0.1966 -0.3525 -0.2234
 2351TIP3   OH228543   3.807   4.139  11.885 -0.9843 -0.1060  0.2470
 2351TIP3    H128544   3.778   4.158  11.974 -0.1582 -0.5444  0.6158
 2351TIP3    H228545   3.776   4.213  11.833  1.3829  1.8172  1.4873
 2352TIP3   OH228546   4.159   2.745   2.661 -0.3051 -0.3925 -0.6083
 2352TIP3    H128547   4.083   2.719   2.715  0.2762 -0.7888  0.0310
 2352TIP3    H228548   4.199   2.662   2.635  0.9424 -0.1733  0.5506
 2353TIP3   OH228549   4.190   0.740  17.089 -0.1489 -0.0062 -0.4399
 2353TIP3    H128550   4.145   0.665  17.129 -1.0976  1.6425  1.6858
 2353TIP3    H228551   4.144   0.754  17.006 -3.5243  1.4997  1.5757
 2354TIP3   OH228552   2.809   4.376  16.021 -0.6021  0.3438  0.3217
 2354TIP3    H128553   2.822   4.384  16.116 -0.5335  1.1165  0.2457
 2354TIP3    H228554   2.843   4.290  15.999  1.0598  0.8981  0.7010
 2355TIP3   OH228555   2.672   1.890  12.747 -0.1140 -0.1359 -0.1193
 2355TIP3    H128556   2.755   1.920  12.784  1.2087 -0.7668 -2.5299
 2355TIP3    H228557   2.696   1.826  12.681 -2.4956  0.0872 -1.2600
 2356TIP3   OH228558   2.714   3.100  14.702  0.0952 -0.6178 -0.1137
 2356TIP3    H128559   2.679   3.015  14.673 -1.9388 -0.1001  0.7300
 2356TIP3    H228560   2.670   3.163  14.645 -0.7331  0.0803  1.2749
 2357TIP3   OH228561   3.535   2.362   2.983  0.4013 -0.4771 -0.8416
 2357TIP3    H128562   3.569   2.391   2.899 -1.2561 -1.3539 -1.8356
 2357TIP3    H228563   3.459   2.418   2.999  1.0899  0.1217  0.3946
 2358TIP3   OH228564   1.533   6.069  12.915  0.1278 -0.5491 -0.0964
 2358TIP3    H128565   1.542   6.114  12.999  0.5343 -0.8742  0.0393
 2358TIP3    H228566   1.525   6.140  12.851 -0.6723 -0.3084  0.2641
 2359TIP3   OH228567   2.831   3.544   3.579  0.5250  0.2157 -0.0186
 2359TIP3    H128568   2.904   3.492   3.612 -0.8573 -0.5173  1.9769
 2359TIP3    H228569   2.756   3.515   3.630 -1.1206  1.1758 -1.8078
 2360TIP3   OH228570   2.324   0.833  11.549  0.3093  0.1573 -0.6194
 2360TIP3    H128571   2.392   0.772  11.577 -0.0695  0.6520  1.4008
 2360TIP3    H228572   2.358   0.920  11.571 -0.7641  0.4352 -0.0120
 2361TIP3   OH228573   2.378   6.135  17.266  0.1013 -0.0572  0.1664
 2361TIP3    H128574   2.403   6.146  17.358  0.0599 -1.1068  0.3107
 2361TIP3    H228575   2.325   6.213  17.246 -1.2352 -0.5918  1.5118
 2362TIP3   OH228576   4.316   3.431   2.526  0.2315  0.2651 -0.1376
 2362TIP3    H128577   4.231   3.462   2.494  0.5170  0.0393 -1.1223
 2362TIP3    H228578   4.378   3.455   2.457  0.8660 -0.1816  0.2703
 2363TIP3   OH228579   5.388   0.926   6.311 -0.0907 -0.0812  0.5287
 2363TIP3    H128580   5.419   0.839   6.338 -0.2193  0.1252  1.3286
 2363TIP3    H228581   5.351   0.965   6.390  0.5387  0.9589  0.3173
 2364TIP3   OH228582   4.047   3.183  16.923 -0.2596  0.6080  0.3669
 2364TIP3    H128583   3.986   3.247  16.887 -1.9013 -0.0047  2.0232
 2364TIP3    H228584   4.006   3.098  16.904  0.9397  0.1071 -0.0521
 2365TIP3   OH228585   3.216   1.852  12.093  0.6480  0.0135  0.3642
 2365TIP3    H128586   3.189   1.793  12.163  2.4158 -1.4472 -0.1502
 2365TIP3    H228587   3.306   1.876  12.114  1.1005 -0.2097 -1.2222
 2366TIP3   OH228588   2.369   3.908   4.277 -0.3979  0.2451 -0.5085
 2366TIP3    H128589   2.348   3.977   4.339 -1.0259  1.2564 -1.8115
 2366TIP3    H228590   2.284   3.868   4.257 -0.0608 -0.7961  0.1063
 2367TIP3   OH228591   5.274   4.932  11.903  0.6822 -0.2397 -0.7301
 2367TIP3    H128592   5.223   5.007  11.937  1.4708  0.1946 -0.5002
 2367TIP3    H228593   5.208   4.875  11.864 -0.2691 -0.7611  1.5405
 2368TIP3   OH228594   5.450   4.112   0.883 -1.0790 -0.1936  0.5351
 2368TIP3    H128595   5.471   4.170   0.956 -1.6271 -0.0962  0.6104
 2368TIP3    H228596   5.358   4.127   0.865 -2.0868 -3.3244  2.6137
 2369TIP3   OH228597   0.198   3.197  16.000 -0.2075 -0.1795 -0.8043
 2369TIP3    H128598   0.123   3.168  16.052 -0.6415  0.5455 -1.0093
 2369TIP3    H228599   0.161   3.211  15.912 -0.1054  1.3796 -0.6131
 2370TIP3   OH228600   6.157   5.609  17.051 -0.5090 -0.0447  0.1382
 2370TIP3    H128601   6.252   5.607  17.061 -0.4302 -2.6551 -0.7056
 2370TIP3    H228602   6.125   5.648  17.132  1.2406  0.1612  0.7398
 2371TIP3   OH228603   5.882   0.672  14.896 -0.0679  0.2188  0.7019
 2371TIP3    H128604   5.892   0.588  14.940  1.4377  0.8535  1.5858
 2371TIP3    H228605   5.874   0.649  14.803  1.6466 -0.8351  0.7960
 2372TIP3   OH228606   0.234   4.956   2.513 -0.3426 -0.2019  0.4724
 2372TIP3    H128607   0.180   4.918   2.583 -1.2813  2.7708  1.4317
 2372TIP3    H228608   0.171   4.991   2.450  0.4528  1.2284  0.4535
 2373TIP3   OH228609   2.242   3.228   1.473 -0.4412  0.3587  0.0980
 2373TIP3    H128610   2.151   3.244   1.447 -0.5086  0.2428  0.2652
 2373TIP3    H228611   2.239   3.217   1.568 -0.3350 -0.2405  0.0321
 2374TIP3   OH228612   1.807   4.251   5.073  0.0078  0.2215  0.0895
 2374TIP3    H128613   1.803   4.321   5.138 -2.5677 -0.5666  0.8648
 2374TIP3    H228614   1.779   4.292   4.991  0.7873  0.6200  0.0130
 2375TIP3   OH228615   0.476   4.947   5.531 -0.2008  0.0201 -0.2134
 2375TIP3    H128616   0.526   4.873   5.564 -0.0363  0.2469  0.0442
 2375TIP3    H228617   0.507   5.022   5.582 -1.7378 -0.0579  0.8671
 2376TIP3   OH228618   5.339   5.707   0.371 -0.1276 -0.3252  0.4042
 2376TIP3    H128619   5.318   5.726   0.462  0.1729 -0.8424  0.5844
 2376TIP3    H228620   5.423   5.661   0.375  0.3135  0.4203 -0.1944
 2377TIP3   OH228621   3.868   5.684   2.667  0.9652 -0.5546 -0.2824
 2377TIP3    H128622   3.837   5.769   2.697  1.8293 -0.3952  0.2004
 2377TIP3    H228623   3.882   5.635   2.748 -1.0124 -1.7016 -0.6079
 2378TIP3   OH228624   4.741   4.559   5.096  0.3711 -0.3519 -0.0415
 2378TIP3    H128625   4.695   4.624   5.042 -2.3306 -1.5187  0.7740
 2378TIP3    H228626   4.808   4.524   5.038 -0.2108  0.9017 -1.5265
 2379TIP3   OH228627   5.191   1.911  17.268  0.7703 -0.1669  0.3771
 2379TIP3    H128628   5.150   1.850  17.329 -0.8940  1.2748  0.7453
 2379TIP3    H228629   5.262   1.952  17.319  0.5721 -0.2989  0.7625
 2380TIP3   OH228630   0.183   0.840   0.781 -0.2615 -0.0144 -0.3621
 2380TIP3    H128631   0.246   0.881   0.723 -1.7884  2.1733 -0.5728
 2380TIP3    H228632   0.233   0.817   0.859  0.6947  2.2480 -0.2671
 2381TIP3   OH228633   0.581   1.385   3.290  0.1276  0.2194  0.4190
 2381TIP3    H128634   0.566   1.447   3.219 -0.9285  0.7068  1.0606
 2381TIP3    H228635   0.495   1.346   3.308  0.6876 -1.0760  0.3524
 2382TIP3   OH228636   5.661   5.535   3.147 -0.1948  0.4065  0.3345
 2382TIP3    H128637   5.653   5.628   3.127  0.2656  0.3536 -0.0984
 2382TIP3    H228638   5.683   5.533   3.240 -3.6328  0.6066  1.2242
 2383TIP3   OH228639   5.916   1.376   1.085  0.2330  0.1126  0.0070
 2383TIP3    H128640   5.835   1.422   1.107  1.5994  1.9080  1.4384
 2383TIP3    H228641   5.966   1.439   1.034  1.5167 -0.3196  0.7127
 2384TIP3   OH228642   3.525   4.038  17.247 -0.4747 -0.0205  0.0031
 2384TIP3    H128643   3.558   4.101  17.183 -0.6994 -1.0141 -1.1208
 2384TIP3    H228644   3.543   3.953  17.207 -2.2012 -0.6260  0.4829
 2385TIP3   OH228645   0.573   1.664  11.927  0.0213  0.2922  0.5433
 2385TIP3    H128646   0.505   1.685  11.990 -0.4308  1.3963 -0.3045
 2385TIP3    H228647   0.635   1.737  11.932  1.2512 -0.7810  1.4356
 2386TIP3   OH228648   1.066   5.626   5.038 -0.1917 -0.0814 -0.1201
 2386TIP3    H128649   1.019   5.690   4.984 -1.0068 -0.9788 -0.4878
 2386TIP3    H228650   1.084   5.672   5.120 -0.0120  0.9015 -0.7079
 2387TIP3   OH228651   4.562   2.851   4.352 -0.4718  0.2021  0.3458
 2387TIP3    H128652   4.577   2.847   4.258  0.8976  0.4863  0.5440
 2387TIP3    H228653   4.598   2.768   4.385 -0.3542  0.3938  0.7003
 2388TIP3   OH228654   1.730   4.029   4.598  0.5446  0.1989  0.1411
 2388TIP3    H128655   1.787   4.093   4.555  0.5829 -0.0675 -0.2076
 2388TIP3    H228656   1.682   3.987   4.527  3.3081 -2.8681 -0.0365
 2389TIP3   OH228657   4.418   5.467  13.482 -0.4057  0.4745  0.1322
 2389TIP3    H128658   4.383   5.387  13.520  0.9319 -0.2678 -0.1772
 2389TIP3    H228659   4.341   5.516  13.453 -1.1928 -0.9178 -0.1317
 2390TIP3   OH228660   2.956   2.142  15.535  0.0218  0.2895  0.3242
 2390TIP3    H128661   3.048   2.143  15.506  0.5544 -3.0239  1.7025
 2390TIP3    H228662   2.957   2.193  15.616  0.9932 -1.2024  1.2631
 2391TIP3   OH228663   2.662   5.176  15.419  0.0473 -0.4929  0.2075
 2391TIP3    H128664   2.584   5.225  15.444 -0.3767 -1.1696  0.2234
 2391TIP3    H228665   2.650   5.158  15.326 -0.7835 -2.3628  0.6723
 2392TIP3   OH228666   2.508   4.746  15.982  0.8108 -0.1712 -0.7782
 2392TIP3    H128667   2.560   4.758  16.061 -0.8683  0.3654  0.2841
 2392TIP3    H228668   2.449   4.673  16.003  1.7718 -1.4266 -2.3079
 2393TIP3   OH228669   4.246   2.826   3.102  0.4516  0.4462  0.3786
 2393TIP3    H128670   4.288   2.871   3.176  0.4552 -0.6571  1.0614
 2393TIP3    H228671   4.254   2.887   3.029  1.2193  1.1961  1.0795
 2394TIP3   OH228672   0.971   6.319   1.740 -0.6842 -0.5924 -0.7122
 2394TIP3    H128673   0.881   6.303   1.768  0.1518 -1.0779  1.8005
 2394TIP3    H228674   0.974   6.286   1.650 -3.3405  0.6518 -1.3200
 2395TIP3   OH228675   1.308   5.305   1.355 -0.4792  0.3589  0.3099
 2395TIP3    H128676   1.235   5.318   1.416 -0.6762 -0.7917  0.3234
 2395TIP3    H228677   1.290   5.221   1.313  0.7273  0.1614  0.1653
 2396TIP3   OH228678   3.195   6.320  13.974 -0.2533  0.2154 -0.4673
 2396TIP3    H128679   3.175   6.413  13.986  1.3203  0.3513  1.3533
 2396TIP3    H228680   3.163   6.278  14.054  2.4416 -0.2238  0.4287
 2397TIP3   OH228681   3.873   4.734  11.138  0.2541 -0.0001 -0.2282
 2397TIP3    H128682   3.812   4.706  11.070  3.2882 -1.5048 -2.4420
 2397TIP3    H228683   3.839   4.819  11.166 -1.4319  0.3736 -3.1519
 2398TIP3   OH228684   6.632   1.988   5.001  0.6341  0.1901 -0.1464
 2398TIP3    H128685   6.627   2.030   5.087  0.7749 -0.0297 -0.0307
 2398TIP3    H228686   6.608   1.897   5.017  1.5905 -0.0699 -0.1755
 2399TIP3   OH228687   1.333   0.038   4.893 -0.4577  0.5950 -0.1064
 2399TIP3    H128688   1.303   0.056   4.803  1.9278  0.7419 -0.9129
 2399TIP3    H228689   1.422   0.004   4.882 -0.4010 -0.0606  2.1773
 2400TIP3   OH228690   0.616   2.946   5.906 -0.4408 -0.0054  0.2163
 2400TIP3    H128691   0.644   2.861   5.874 -0.5688  0.4726 -1.2268
 2400TIP3    H228692   0.549   2.927   5.972 -1.8586 -0.9861 -1.4765
 2401TIP3   OH228693   5.223   1.980  13.851 -0.3110  0.3143 -0.1166
 2401TIP3    H128694   5.253   1.896  13.885  2.0922  1.6319  1.1462
 2401TIP3    H228695   5.214   2.036  13.928 -2.0676  1.1845 -0.9177
 2402TIP3   OH228696   5.309   3.267  13.180  0.3477  0.4353 -0.0926
 2402TIP3    H128697   5.384   3.322  13.205  0.0634  0.0096  1.7786
 2402TIP3    H228698   5.343   3.210  13.112  2.3010 -1.0751  2.0888
 2403TIP3   OH228699   5.826   1.893  13.610 -0.1895 -0.5217  0.4562
 2403TIP3    H128700   5.846   1.888  13.516 -2.2678 -0.2534 -0.0247
 2403TIP3    H228701   5.767   1.820  13.626 -2.6743  1.4807  0.7854
 2404TIP3   OH228702   2.766   6.754   0.009  0.1255  0.9227 -0.1924
 2404TIP3    H128703   2.735   6.781  -0.078  1.6036  1.0863 -0.6794
 2404TIP3    H228704   2.861   6.754   0.001  0.2355 -0.5017  1.0054
 2405TIP3   OH228705   5.905   2.707  12.374  0.2992 -0.3785  0.4837
 2405TIP3    H128706   5.981   2.692  12.317  0.4819 -0.0790  0.6486
 2405TIP3    H228707   5.939   2.695  12.463  0.0165 -0.8358  0.5325
 2406TIP3   OH228708   1.472   0.183   2.219 -0.3906  0.3196  0.3674
 2406TIP3    H128709   1.559   0.167   2.255 -1.7511  0.2226  3.7901
 2406TIP3    H228710   1.412   0.146   2.283 -3.1158  4.3509  0.3189
 2407TIP3   OH228711   3.438   4.345  15.908  0.0945  0.1021  0.2023
 2407TIP3    H128712   3.357   4.295  15.920  1.0777 -1.6884 -0.5360
 2407TIP3    H228713   3.416   4.409  15.840 -0.9072  0.1089  0.5204
 2408TIP3   OH228714   5.287   1.149  15.138  0.0900 -0.0272 -0.3738
 2408TIP3    H128715   5.292   1.069  15.086 -0.0296  0.2355 -0.7842
 2408TIP3    H228716   5.226   1.127  15.209 -1.8950  0.4958 -1.8893
 2409TIP3   OH228717   4.900   4.689  15.139  0.1887  0.2560  0.7233
 2409TIP3    H128718   4.966   4.716  15.075 -0.6439 -2.8696 -1.6123
 2409TIP3    H228719   4.833   4.756  15.135  0.7154  0.7053 -0.8354
 2410TIP3   OH228720   0.989   5.012  14.590  0.0887 -0.8853 -0.0710
 2410TIP3    H128721   1.022   5.088  14.543 -2.5944 -0.9771 -2.2432
 2410TIP3    H228722   1.067   4.972  14.629  1.7304  2.0130 -0.2512
 2411TIP3   OH228723   3.510   2.946  15.336  0.4552 -0.5431 -0.1627
 2411TIP3    H128724   3.567   2.928  15.262 -1.3226 -0.1800 -1.6535
 2411TIP3    H228725   3.457   2.868  15.346  0.7994 -0.6634  0.8639
 2412TIP3   OH228726   2.767   1.973  15.414  0.5531 -0.3503  0.5423
 2412TIP3    H128727   2.728   1.931  15.491 -0.9709  1.5874  0.8530
 2412TIP3    H228728   2.829   2.037  15.449  1.7432 -1.2300  0.0913
 2413TIP3   OH228729   6.332   2.991  14.870  0.1274  0.1037 -0.5512
 2413TIP3    H128730   6.322   3.000  14.964 -1.8051 -0.8964 -0.6354
 2413TIP3    H228731   6.342   3.081  14.838 -0.4136  0.5347  0.4677
 2414TIP3   OH228732   5.461   2.922   3.676  0.0016  0.0170 -0.4878
 2414TIP3    H128733   5.484   2.920   3.583  0.8740 -0.9328 -0.2680
 2414TIP3    H228734   5.399   2.995   3.684 -0.8279 -0.5030 -1.9701
 2415TIP3   OH228735   0.236   1.503  11.328  0.1289  0.2135  0.4893
 2415TIP3    H128736   0.325   1.490  11.361 -0.2337  0.5209  1.6346
 2415TIP3    H228737   0.205   1.415  11.306  0.9809  0.1847 -0.6559
 2416TIP3   OH228738   2.753   4.828   2.661 -0.4028 -0.2820  0.1571
 2416TIP3    H128739   2.688   4.759   2.644 -0.3039 -0.0397 -1.3081
 2416TIP3    H228740   2.833   4.794   2.621  0.5686 -0.8902  2.5719
 2417TIP3   OH228741   2.135   4.959  17.280 -0.0327 -0.2655 -0.4459
 2417TIP3    H128742   2.195   4.914  17.220 -0.2264 -0.9018 -0.1710
 2417TIP3    H228743   2.063   4.897  17.293  0.8040 -0.8291  1.7438
 2418TIP3   OH228744   5.734   2.632   3.397  0.1444 -0.5486  0.0153
 2418TIP3    H128745   5.813   2.653   3.347  1.4032 -1.5009  1.5430
 2418TIP3    H228746   5.746   2.542   3.425 -1.6388 -0.7992  0.0278
 2419TIP3   OH228747   5.504   2.000   4.796  0.3587  0.3053 -0.3910
 2419TIP3    H128748   5.584   2.000   4.849  0.9220 -0.1835 -1.2224
 2419TIP3    H228749   5.435   2.027   4.856  0.7977 -1.3027  0.8855
 2420TIP3   OH228750   1.755   3.862  12.387 -0.0584  0.2151  0.0049
 2420TIP3    H128751   1.831   3.911  12.419  0.5776  0.0277 -1.1863
 2420TIP3    H228752   1.751   3.784  12.442  1.2982 -0.3324 -0.6691
 2421TIP3   OH228753   1.356   5.572  14.340  0.0788  0.3663 -0.1512
 2421TIP3    H128754   1.332   5.515  14.266  0.3572  1.5013 -1.1277
 2421TIP3    H228755   1.342   5.661  14.307  0.9747  0.9002  0.8991
 2422TIP3   OH228756   3.367   2.281  12.776  0.3876 -0.2016  0.5130
 2422TIP3    H128757   3.436   2.225  12.741  0.3080  0.5082 -0.8440
 2422TIP3    H228758   3.412   2.346  12.830  0.5762 -0.9517  1.2561
 2423TIP3   OH228759   6.272   2.830   6.167 -0.2853 -0.3192 -0.0359
 2423TIP3    H128760   6.257   2.738   6.148  0.8569 -0.4423 -0.3637
 2423TIP3    H228761   6.217   2.849   6.243 -1.2212 -1.0358 -0.5288
 2424TIP3   OH228762   1.855   6.516   2.058  0.4630 -0.1836  0.4791
 2424TIP3    H128763   1.832   6.565   1.979 -0.1108 -0.3457  0.5442
 2424TIP3    H228764   1.947   6.492   2.045  1.3453  2.5258  1.2831
 2425TIP3   OH228765   0.038   1.192  12.553 -0.1048  0.5414  0.0064
 2425TIP3    H128766  -0.023   1.201  12.627  0.1976 -2.5526  0.7046
 2425TIP3    H228767   0.123   1.216  12.589 -0.3131  1.2163  0.0515
 2426TIP3   OH228768   1.814   4.301  13.811  0.0383  0.4421 -0.1856
 2426TIP3    H128769   1.900   4.321  13.773  0.6802 -0.1027  0.9717
 2426TIP3    H228770   1.829   4.300  13.905 -0.3036 -3.8804 -0.0886
 2427TIP3   OH228771   1.574   1.799  11.738  0.1745 -0.0450 -0.0538
 2427TIP3    H128772   1.639   1.740  11.776 -0.2021  0.0975  0.8132
 2427TIP3    H228773   1.531   1.747  11.670  0.9625 -0.2489 -0.3941
 2428TIP3   OH228774   6.259   4.010   0.664  0.1011  0.3330  0.5662
 2428TIP3    H128775   6.246   4.076   0.733 -1.1425  1.3044 -0.5601
 2428TIP3    H228776   6.289   4.061   0.589 -1.9148 -0.2090 -0.6453
 2429TIP3   OH228777   5.583   4.759  11.396  0.0518 -0.3982  0.6976
 2429TIP3    H128778   5.568   4.699  11.469 -0.2384  0.5879  1.4505
 2429TIP3    H228779   5.500   4.804  11.384  0.4353  0.2669  0.5033
 2430TIP3   OH228780   0.301   5.405   5.385  0.0626 -0.0756 -0.5507
 2430TIP3    H128781   0.211   5.383   5.410  0.2039 -0.7861 -0.6584
 2430TIP3    H228782   0.291   5.452   5.302 -0.1701 -0.6846 -0.8718
 2431TIP3   OH228783   4.376   3.783  13.963 -0.0232 -0.1803 -0.3998
 2431TIP3    H128784   4.332   3.864  13.939  0.1043 -0.6460 -2.2909
 2431TIP3    H228785   4.460   3.787  13.918  0.4191 -0.8825  0.3504
 2432TIP3   OH228786   4.120   3.560  14.948  0.3407 -0.2395  0.4481
 2432TIP3    H128787   4.028   3.546  14.927  0.1567  1.0152  0.3761
 2432TIP3    H228788   4.166   3.542  14.865 -0.3051  3.8207 -0.8927
 2433TIP3   OH228789   6.529   3.304   1.354  0.0503 -0.1474 -0.0543
 2433TIP3    H128790   6.489   3.222   1.324 -0.0747  0.2614 -1.0461
 2433TIP3    H228791   6.600   3.319   1.292  0.7340 -0.0482  0.7553
 2434TIP3   OH228792   5.162   3.197  15.897  0.1296  0.0535 -0.4467
 2434TIP3    H128793   5.211   3.141  15.836 -0.0898  0.1464 -0.7116
 2434TIP3    H228794   5.147   3.277  15.848 -2.0830 -0.7468 -1.1079
 2435TIP3   OH228795   1.943   0.947   3.110  0.4880 -0.3521  0.3724
 2435TIP3    H128796   2.005   0.932   3.038 -1.0897  1.1363 -1.3393
 2435TIP3    H228797   1.881   0.874   3.104  0.4917 -0.3570  0.3924
 2436TIP3   OH228798   1.888   0.587   1.673  0.4729 -0.7111  0.3772
 2436TIP3    H128799   1.879   0.557   1.763 -0.8440 -1.2700  0.0717
 2436TIP3    H228800   1.896   0.682   1.679 -2.3168 -0.4587  0.9435
 2437TIP3   OH228801   4.818   0.208   3.500 -0.0862  0.4946  0.5152
 2437TIP3    H128802   4.739   0.226   3.449  0.3129  2.0351  0.4013
 2437TIP3    H228803   4.805   0.120   3.535 -1.9825  0.8474  0.7492
 2438TIP3   OH228804   4.825   5.985   2.240 -0.1761 -0.3843 -0.3204
 2438TIP3    H128805   4.918   5.960   2.239 -0.4070 -1.2093 -1.6545
 2438TIP3    H228806   4.791   5.950   2.322  1.0325  1.1794  0.8743
 2439TIP3   OH228807   5.851   5.272   3.257 -0.2670 -0.8548  0.7430
 2439TIP3    H128808   5.860   5.358   3.299 -0.6250 -1.9184  3.0609
 2439TIP3    H228809   5.920   5.271   3.191  1.6666  0.0859  2.6806
 2440TIP3   OH228810   1.722   1.966  11.535  0.0203 -0.4948  0.2985
 2440TIP3    H128811   1.650   1.988  11.476 -0.5606 -0.5994  0.9613
 2440TIP3    H228812   1.683   1.906  11.598  1.1479 -1.9904 -0.4108
 2441TIP3   OH228813   1.902   5.486   4.541  0.1240 -0.2026 -0.0403
 2441TIP3    H128814   1.900   5.473   4.446 -0.3334  2.1135 -0.3826
 2441TIP3    H228815   1.883   5.579   4.553  2.1572 -0.0312  2.2357
 2442TIP3   OH228816   1.087   0.535   1.019  0.2266  0.1546  0.3479
 2442TIP3    H128817   1.053   0.446   1.017 -1.5484  0.8417 -2.0008
 2442TIP3    H228818   1.180   0.526   0.999 -0.3879 -1.0032 -2.1636
 2443TIP3   OH228819   1.252   5.213  14.565 -0.1763 -0.2686  0.5251
 2443TIP3    H128820   1.204   5.276  14.511  1.2290  2.1476  2.0167
 2443TIP3    H228821   1.314   5.173  14.504 -0.2069  0.7154 -0.1681
 2444TIP3   OH228822   5.628   3.018   3.126 -0.3697  0.1638  0.2173
 2444TIP3    H128823   5.669   3.057   3.048 -1.1947  0.6790  0.0379
 2444TIP3    H228824   5.701   3.003   3.185  0.0805  1.2251 -0.0439
 2445TIP3   OH228825   4.342   5.001  14.522 -0.5039 -0.1212 -0.7660
 2445TIP3    H128826   4.311   5.041  14.603 -0.8999 -0.6714 -0.6411
 2445TIP3    H228827   4.345   4.907  14.541  1.1693 -0.0907 -0.8004
 2446TIP3   OH228828   2.294   6.778   3.718 -0.0200  0.2756  0.1579
 2446TIP3    H128829   2.298   6.793   3.813  1.6289 -0.8858  0.2912
 2446TIP3    H228830   2.267   6.687   3.710  0.8564  0.0749 -0.4830
 2447TIP3   OH228831   5.990   2.206   4.671  0.0291 -0.0681 -0.3376
 2447TIP3    H128832   5.915   2.149   4.650 -0.1837  0.0035  0.2317
 2447TIP3    H228833   6.058   2.180   4.609  0.1059 -1.2884  0.2527
 2448TIP3   OH228834   0.080   3.053   3.765  0.0822  0.1621 -0.1146
 2448TIP3    H128835   0.109   2.985   3.826 -0.3533  0.1547  0.0859
 2448TIP3    H228836   0.160   3.100   3.742  0.6016 -1.3397 -1.3930
 2449TIP3   OH228837   6.604   4.758   0.650  0.2946 -0.1703 -0.8519
 2449TIP3    H128838   6.573   4.670   0.626  0.9953 -0.4338 -0.8353
 2449TIP3    H228839   6.665   4.781   0.580  0.0327  0.3484 -0.9074
 2450TIP3   OH228840   0.393   6.713  13.943 -0.1994 -0.1300  0.0484
 2450TIP3    H128841   0.456   6.681  14.008 -0.2667  0.1618  0.2630
 2450TIP3    H228842   0.445   6.733  13.866 -0.0545 -0.0543  0.1661
 2451TIP3   OH228843   3.218   0.881   2.018  0.1456 -0.0709  0.3351
 2451TIP3    H128844   3.216   0.930   2.100  2.0668  0.7949 -0.1083
 2451TIP3    H228845   3.223   0.789   2.044  1.6148  0.2410  1.2236
 2452TIP3   OH228846   5.265   0.751  11.928 -0.0799 -0.5090 -0.1096
 2452TIP3    H128847   5.333   0.810  11.895  2.3303 -2.4655  1.1863
 2452TIP3    H228848   5.211   0.730  11.851  0.1408  1.8806 -0.9409
 2453TIP3   OH228849   1.952   6.164  14.869 -0.9897  0.1490  0.2922
 2453TIP3    H128850   2.046   6.148  14.862 -1.2457 -1.1849 -0.4773
 2453TIP3    H228851   1.940   6.204  14.954  0.2677  0.1910  0.4552
 2454TIP3   OH228852   3.651   6.379  15.878  0.1699 -0.0041 -0.2324
 2454TIP3    H128853   3.697   6.369  15.795  1.3935  1.7647  0.2091
 2454TIP3    H228854   3.687   6.311  15.934  0.0233 -0.5895 -0.8392
 2455TIP3   OH228855   4.707   3.003   3.905  0.2850 -0.0241  0.1336
 2455TIP3    H128856   4.652   3.056   3.848  0.2888 -1.9229 -1.6815
 2455TIP3    H228857   4.775   2.968   3.847  0.3705 -1.8830  1.3232
 2456TIP3   OH228858   6.685   1.254  14.657 -0.0827  0.2887 -0.0140
 2456TIP3    H128859   6.599   1.295  14.666 -0.3158 -0.2826  0.3420
 2456TIP3    H228860   6.742   1.326  14.628 -0.2122  1.1980  1.8646
 2457TIP3   OH228861   1.923   6.582  10.455  0.4201  0.0214 -0.1641
 2457TIP3    H128862   1.891   6.531  10.529  1.1408 -1.4807 -0.8636
 2457TIP3    H228863   1.859   6.652  10.445 -0.1598 -0.2724  1.3179
 2458TIP3   OH228864   3.808   3.106  15.809  0.1434  0.0803  0.4356
 2458TIP3    H128865   3.813   3.196  15.843 -0.7601  0.0865  0.5557
 2458TIP3    H228866   3.743   3.110  15.739  1.6532 -0.0429 -0.9948
 2459TIP3   OH228867   0.466   3.625  11.948 -0.1885 -0.6906 -0.0160
 2459TIP3    H128868   0.406   3.637  11.874  1.0795  3.2707 -0.5166
 2459TIP3    H228869   0.541   3.579  11.911 -1.1138 -2.0091 -0.3069
 2460TIP3   OH228870   4.421   4.226   4.654 -0.3238 -0.4571  0.5578
 2460TIP3    H128871   4.423   4.313   4.613 -1.4166  0.2331  1.9270
 2460TIP3    H228872   4.458   4.168   4.588 -1.2222  0.7732 -1.0699
 2461TIP3   OH228873   4.765   3.334  11.737 -0.8421 -0.4878  0.0008
 2461TIP3    H128874   4.741   3.378  11.819  0.1853  0.3944 -0.1592
 2461TIP3    H228875   4.860   3.323  11.742 -0.6819  0.1778 -1.3557
 2462TIP3   OH228876   1.656   0.754  14.122 -0.2736  0.2311  0.1846
 2462TIP3    H128877   1.627   0.835  14.164 -1.6645 -0.5532  0.7933
 2462TIP3    H228878   1.581   0.695  14.130  0.9592 -1.3483  0.3701
 2463TIP3   OH228879   3.507   1.041  16.635  0.1899  0.0614  0.6193
 2463TIP3    H128880   3.565   1.116  16.651  3.0568 -1.7572 -0.7983
 2463TIP3    H228881   3.546   0.970  16.686 -0.9072 -1.1744 -0.2567
 2464TIP3   OH228882   4.904   6.146  16.456  0.2016  0.2757 -0.0349
 2464TIP3    H128883   4.907   6.201  16.534  0.6080  0.6686 -0.3258
 2464TIP3    H228884   4.816   6.108  16.458  0.9937 -1.5592  1.8549
 2465TIP3   OH228885   5.646   5.505   3.970  0.2198  0.0224  0.1895
 2465TIP3    H128886   5.685   5.447   4.036  0.3525  1.1800  1.1350
 2465TIP3    H228887   5.553   5.486   3.973  0.5185 -1.8339 -1.1756
 2466TIP3   OH228888   3.525   4.563   5.578 -0.0863  0.3809  0.1137
 2466TIP3    H128889   3.486   4.482   5.610  1.0826  0.5107  1.9590
 2466TIP3    H228890   3.619   4.552   5.593  0.2951  1.2582 -1.5229
 2467TIP3   OH228891   2.964   5.186  14.001  0.8645  0.1126 -0.5106
 2467TIP3    H128892   2.998   5.170  13.913 -0.0588  1.7838 -1.2020
 2467TIP3    H228893   2.951   5.281  14.004  0.3676  0.0052  1.2451
 2468TIP3   OH228894   5.416   3.880  13.377 -0.0363  0.5750  0.1201
 2468TIP3    H128895   5.373   3.806  13.334  0.6843 -0.4826  1.1884
 2468TIP3    H228896   5.348   3.946  13.387 -1.0447 -0.5036  0.4412
 2469TIP3   OH228897   1.819   5.847   3.570 -0.2847 -0.3596  0.5621
 2469TIP3    H128898   1.813   5.805   3.484 -1.2650  1.3905 -0.2498
 2469TIP3    H228899   1.772   5.788   3.628  0.3117 -1.5201 -0.1083
 2470TIP3   OH228900   2.871   4.393  16.342  0.1037 -0.1692  0.1047
 2470TIP3    H128901   2.951   4.399  16.394 -0.5884 -0.5547  1.2347
 2470TIP3    H228902   2.863   4.300  16.321 -1.2308 -0.5043  1.9299
 2471TIP3   OH228903   2.403   5.944   4.532  0.1484 -0.2252 -0.3926
 2471TIP3    H128904   2.359   5.925   4.615 -0.6121 -1.1116 -0.9885
 2471TIP3    H228905   2.380   6.035   4.513  0.1938 -0.0679  0.2766
 2472TIP3   OH228906   2.883   5.796   5.535  0.1507  0.1646  0.5734
 2472TIP3    H128907   2.966   5.770   5.494  0.8678  0.3455  1.8862
 2472TIP3    H228908   2.816   5.767   5.473  1.1269 -1.2352  0.1436
 2473TIP3   OH228909   0.739   0.740   4.828  0.0811  0.1895 -0.5071
 2473TIP3    H128910   0.810   0.685   4.861 -1.1235 -1.3002 -0.3921
 2473TIP3    H228911   0.677   0.745   4.901 -0.7311  0.1125 -1.1944
 2474TIP3   OH228912   0.920   5.568   0.846 -0.1097 -0.0123 -0.6657
 2474TIP3    H128913   0.943   5.492   0.899 -0.7027  0.3871  0.1668
 2474TIP3    H228914   0.967   5.554   0.763  1.5535 -0.1618  0.2827
 2475TIP3   OH228915   4.706   2.615  14.047 -0.2322  0.2023 -0.0228
 2475TIP3    H128916   4.769   2.600  14.117  0.4923  1.6537 -0.3607
 2475TIP3    H228917   4.750   2.582  13.968 -1.1633 -1.7040  0.2346
 2476TIP3   OH228918   1.073   1.327  17.019  1.0530  0.1731  0.1887
 2476TIP3    H128919   1.061   1.333  16.924 -1.4990 -1.4249  0.3521
 2476TIP3    H228920   1.033   1.407  17.053  0.1066 -0.2160  0.0213
 2477TIP3   OH228921   2.784   0.836  16.840  0.3462  0.2569 -0.0709
 2477TIP3    H128922   2.823   0.754  16.872  3.0398  1.0885 -1.1130
 2477TIP3    H228923   2.778   0.825  16.745  1.2592  1.4640 -0.2838
 2478TIP3   OH228924   0.289   6.805  15.197 -0.6233  0.6793  0.1582
 2478TIP3    H128925   0.325   6.841  15.278 -0.6721  0.6679  0.1853
 2478TIP3    H228926   0.349   6.735  15.173  0.0458  1.4746 -0.4744
 2479TIP3   OH228927   4.022   6.743  14.300  0.8750 -0.2371  0.3087
 2479TIP3    H128928   3.999   6.780  14.215 -0.4030  0.2051  0.8273
 2479TIP3    H228929   4.109   6.706  14.288 -0.0766 -1.9356 -1.7395
 2480TIP3   OH228930   2.167   2.634   4.823 -0.5804 -0.0325  1.0133
 2480TIP3    H128931   2.257   2.651   4.853  0.1249 -0.5782 -0.7129
 2480TIP3    H228932   2.158   2.539   4.828 -0.8893 -0.0199  0.6971
 2481TIP3   OH228933   5.091   0.859   5.859 -0.0837 -0.3961 -0.0153
 2481TIP3    H128934   5.139   0.935   5.891  0.8355 -0.3216 -1.5257
 2481TIP3    H228935   5.148   0.785   5.877 -0.9731 -0.7404  1.4410
 2482TIP3   OH228936   2.912   3.882   4.827 -0.2077  0.4394  0.0816
 2482TIP3    H128937   2.845   3.888   4.759  0.0058  1.1772 -0.0661
 2482TIP3    H228938   2.872   3.924   4.904 -1.2034 -2.1269  1.0260
 2483TIP3   OH228939   0.651   2.515   3.154 -0.1900  0.3123 -0.0419
 2483TIP3    H128940   0.684   2.479   3.236 -0.3967 -0.5201 -0.3218
 2483TIP3    H228941   0.556   2.524   3.169 -0.3962 -0.8640 -0.5582
 2484TIP3   OH228942   5.595   5.158  14.774  0.0563 -0.0058  0.0021
 2484TIP3    H128943   5.689   5.172  14.784  0.5052 -1.6201 -1.5217
 2484TIP3    H228944   5.585   5.129  14.683 -2.2512  2.6213 -0.6283
 2485TIP3   OH228945   0.715   3.100   4.248  0.1662 -0.0480  0.1552
 2485TIP3    H128946   0.641   3.042   4.262 -1.1114  1.4641 -0.1675
 2485TIP3    H228947   0.788   3.057   4.293 -0.9562 -1.4204  0.7038
 2486TIP3   OH228948   5.870   4.401   4.765  0.2574  0.1857 -0.3205
 2486TIP3    H128949   5.922   4.361   4.695 -0.5506  0.2717 -0.9699
 2486TIP3    H228950   5.900   4.356   4.844  0.3977 -0.6899 -0.8516
 2487TIP3   OH228951   4.814   6.212  11.816  0.0049  0.2686 -0.0931
 2487TIP3    H128952   4.810   6.117  11.829 -3.6933  0.3195 -0.4413
 2487TIP3    H228953   4.862   6.222  11.733 -0.2197 -1.3332 -0.4384
 2488TIP3   OH228954   0.896   5.128   6.323 -0.1541  0.6032  0.2426
 2488TIP3    H128955   0.919   5.153   6.413  1.8209  0.5728 -0.2349
 2488TIP3    H228956   0.972   5.080   6.291 -0.1343  2.0615 -2.0279
 2489TIP3   OH228957   0.646   4.268   2.199  0.3985  0.5715  0.4616
 2489TIP3    H128958   0.605   4.261   2.113 -1.2329 -2.4366  1.4105
 2489TIP3    H228959   0.649   4.362   2.217 -3.6133  1.0153 -0.8385
 2490TIP3   OH228960   5.155   4.511   0.263  0.4530 -0.7426  0.3934
 2490TIP3    H128961   5.110   4.594   0.277 -0.1027 -0.7189 -1.4077
 2490TIP3    H228962   5.242   4.523   0.302  0.9264  1.2334 -1.1713
 2491TIP3   OH228963   2.129   0.963   5.272 -0.2391  0.5563 -0.9846
 2491TIP3    H128964   2.056   0.917   5.313 -0.0652  0.4846 -0.7565
 2491TIP3    H228965   2.120   0.943   5.178  0.2288 -0.5070 -0.8103
 2492TIP3   OH228966   4.328   5.199  14.171 -0.4673  0.1451 -0.6247
 2492TIP3    H128967   4.292   5.286  14.188 -0.4619 -0.1422  0.9449
 2492TIP3    H228968   4.253   5.146  14.146 -0.3480  0.7913 -2.3861
 2493TIP3   OH228969   2.247   4.541  14.978 -0.3912  0.3296 -0.4654
 2493TIP3    H128970   2.221   4.449  14.971  0.6747 -0.0564  0.3644
 2493TIP3    H228971   2.213   4.569  15.062  1.1002  0.0551  0.2546
 2494TIP3   OH228972   3.392   5.423   2.243 -0.3004 -0.1866  0.2896
 2494TIP3    H128973   3.481   5.393   2.225 -0.4010 -2.1479  2.8077
 2494TIP3    H228974   3.338   5.379   2.176  0.2817 -1.2914  0.5310
 2495TIP3   OH228975   6.598   6.260  16.210 -0.1026  0.6478  0.5182
 2495TIP3    H128976   6.597   6.187  16.271 -0.0884 -1.3520 -1.7943
 2495TIP3    H228977   6.690   6.279  16.195 -0.0851  3.0534  3.2452
 2496TIP3   OH228978   4.335   3.186   5.641 -0.1675 -0.4584  0.3300
 2496TIP3    H128979   4.415   3.219   5.682  0.6190 -1.0584 -0.6892
 2496TIP3    H228980   4.264   3.221   5.695  0.7616  0.4658  0.9741
 2497TIP3   OH228981   0.933   6.672   1.727  0.3357 -0.1728 -0.6467
 2497TIP3    H128982   0.909   6.605   1.790  0.6748 -1.6878 -2.0958
 2497TIP3    H228983   0.886   6.648   1.647  0.8850  1.0179 -1.3448
 2498TIP3   OH228984   6.474   4.216   1.997  0.6503  0.2605  0.7912
 2498TIP3    H128985   6.532   4.272   1.946 -1.2706  2.5469  1.0195
 2498TIP3    H228986   6.471   4.256   2.084 -0.7588 -0.1417  0.9494
 2499TIP3   OH228987   0.476   3.306  15.993  0.1926  0.3187  0.3590
 2499TIP3    H128988   0.436   3.391  16.013  0.7539  0.9104 -1.0093
 2499TIP3    H228989   0.402   3.245  15.991  0.1215  0.0941  4.6756
 2500TIP3   OH228990   2.437   4.748   4.643 -0.3342 -0.1463  0.3717
 2500TIP3    H128991   2.385   4.668   4.652 -0.8074  0.4655  3.5937
 2500TIP3    H228992   2.373   4.819   4.654  1.1507  0.6178  5.1973
 2501TIP3   OH228993   6.599   4.478   2.838 -0.4001  0.1933  0.2854
 2501TIP3    H128994   6.538   4.491   2.765  0.7790  0.2855 -0.6936
 2501TIP3    H228995   6.671   4.539   2.820  2.0299 -2.9077 -0.8443
 2502TIP3   OH228996   4.597   5.200   1.240  0.4678 -0.6211 -0.7770
 2502TIP3    H128997   4.604   5.165   1.329  1.0963  0.5028 -0.3725
 2502TIP3    H228998   4.686   5.192   1.205  0.5134  0.0968 -0.8445
 2503TIP3   OH228999   4.318   5.934   3.346  0.0442 -0.3748  0.2577
 2503TIP3    H129000   4.342   6.025   3.358 -0.3269 -0.2286 -0.0827
 2503TIP3    H229001   4.246   5.920   3.409  0.4426 -0.5740  0.6715
 2504TIP3   OH229002   2.705   5.851   1.463 -0.0047  0.1890  0.1252
 2504TIP3    H129003   2.621   5.812   1.485  0.0798 -0.5740 -0.8530
 2504TIP3    H229004   2.770   5.798   1.509  0.0907 -0.6633 -0.9749
 2505TIP3   OH229005   0.101   4.548  15.433  0.1534 -0.2121  0.0036
 2505TIP3    H129006   0.058   4.497  15.502 -1.7300 -0.0084 -0.9730
 2505TIP3    H229007   0.064   4.636  15.441  2.0747  0.5642  0.5475
 2506TIP3   OH229008   4.506   5.908  12.183  0.0043  0.3165  0.2378
 2506TIP3    H129009   4.516   5.830  12.129 -1.7597  0.6625 -0.6085
 2506TIP3    H229010   4.521   5.981  12.123  0.3468  0.6600  0.7362
 2507TIP3   OH229011   0.318   3.158  15.117  0.5245 -0.7908  0.9098
 2507TIP3    H129012   0.224   3.169  15.102  0.6863 -0.3667  0.2235
 2507TIP3    H229013   0.329   3.175  15.211 -0.2253 -1.7996  1.1975
 2508TIP3   OH229014   6.405   0.337   4.728  0.1949  0.2043 -0.1506
 2508TIP3    H129015   6.492   0.315   4.762 -0.9609 -1.4631  1.8698
 2508TIP3    H229016   6.397   0.431   4.744  1.2008  0.1692  0.6342
 2509TIP3   OH229017   2.170   0.357  16.780  0.8499 -0.6109  0.5236
 2509TIP3    H129018   2.201   0.272  16.748  0.8299 -0.5792  0.4207
 2509TIP3    H229019   2.249   0.409  16.792  0.6272  0.7102 -3.2283
 2510TIP3   OH229020   2.876   1.240   4.313  0.1918 -0.3767 -0.0630
 2510TIP3    H129021   2.927   1.193   4.247 -0.0786 -1.0669  0.2129
 2510TIP3    H229022   2.794   1.191   4.320  1.2123 -1.8202  2.6093
 2511TIP3   OH229023   6.758   5.997   3.482 -0.3227 -0.5633  0.4450
 2511TIP3    H129024   6.802   6.080   3.503  1.3996 -1.4636  0.5283
 2511TIP3    H229025   6.666   6.013   3.502 -0.2271  1.7436 -0.8049
 2512TIP3   OH229026   6.673   2.670   1.834  0.5558  0.5605  0.4050
 2512TIP3    H129027   6.712   2.601   1.781  0.4124  0.9379 -0.1956
 2512TIP3    H229028   6.717   2.662   1.919 -1.4709 -2.0632  1.2578
 2513TIP3   OH229029   2.729   3.867   4.620  0.0792 -0.3221  0.1762
 2513TIP3    H129030   2.679   3.816   4.684 -0.3279  1.4566  1.2910
 2513TIP3    H229031   2.669   3.876   4.545  0.0394 -1.1832  0.0980
 2514TIP3   OH229032   5.324   4.152  15.719 -0.2383  0.6525  0.0479
 2514TIP3    H129033   5.241   4.177  15.760 -0.2952  2.3942 -1.0670
 2514TIP3    H229034   5.304   4.150  15.625  0.8903  0.6676 -0.1903
 2515TIP3   OH229035   6.204   5.564   2.301  0.8042  0.1662 -0.3358
 2515TIP3    H129036   6.195   5.505   2.376 -3.3450  0.3906 -0.5059
 2515TIP3    H229037   6.213   5.506   2.226  1.7891 -0.1321  0.0100
 2516TIP3   OH229038   2.242   0.575  17.019  0.6011  0.7790 -0.2196
 2516TIP3    H129039   2.292   0.593  16.940 -2.0310 -1.6558 -2.5895
 2516TIP3    H229040   2.285   0.500  17.059 -0.3878 -0.5720 -1.6217
 2517TIP3   OH229041   4.327   6.352  13.127  0.1353 -0.5023  0.1832
 2517TIP3    H129042   4.241   6.371  13.164  0.1705 -0.1701  0.0911
 2517TIP3    H229043   4.384   6.421  13.161  0.5064 -1.0763  0.7500
 2518TIP3   OH229044   4.840   2.556  11.752  0.0232  0.0044  0.5798
 2518TIP3    H129045   4.885   2.640  11.748 -0.4216  0.1636 -1.1608
 2518TIP3    H229046   4.797   2.556  11.838 -0.1862  1.6685  0.4872
 2519TIP3   OH229047   5.218   0.126   3.274 -0.0751  0.4816  0.2436
 2519TIP3    H129048   5.256   0.039   3.263  2.4056  1.6022 -0.4598
 2519TIP3    H229049   5.153   0.133   3.204  0.8720 -0.2091 -0.7240
 2520TIP3   OH229050   0.909   6.191   2.095  0.0368  0.0102 -0.8186
 2520TIP3    H129051   0.864   6.236   2.167 -0.5879 -1.4244 -0.2865
 2520TIP3    H229052   0.852   6.206   2.019  0.2237  0.7468 -0.8198
 2521TIP3   OH229053   0.640   1.789   5.445  0.0043  0.8798  0.5801
 2521TIP3    H129054   0.702   1.762   5.376 -0.1877  0.1557  0.6856
 2521TIP3    H229055   0.615   1.707   5.488  0.4393  1.3818  1.7882
 2522TIP3   OH229056   4.512   5.823  15.445 -0.2195 -0.4006 -0.4561
 2522TIP3    H129057   4.528   5.887  15.515 -0.6696  0.0228 -0.7373
 2522TIP3    H229058   4.521   5.874  15.364  0.4395 -0.9173 -0.7149
 2523TIP3   OH229059   0.540   4.677  16.946 -0.2649  0.4818  0.4431
 2523TIP3    H129060   0.574   4.693  17.034  1.6131 -0.9049 -0.0009
 2523TIP3    H229061   0.492   4.594  16.954 -2.9293  2.0170  0.8765
 2524TIP3   OH229062   6.102   2.739   3.664 -0.0771 -0.2942 -0.4345
 2524TIP3    H129063   6.176   2.713   3.718 -0.3292  1.3055  0.7369
 2524TIP3    H229064   6.135   2.813   3.612 -1.0255  0.8702  0.5913
 2525TIP3   OH229065   4.002   4.674  17.021 -0.2464 -0.1993 -0.5163
 2525TIP3    H129066   4.035   4.711  17.103 -0.6366 -0.8046 -0.0781
 2525TIP3    H229067   4.025   4.581  17.026 -1.4654 -0.5043 -0.4885
 2526TIP3   OH229068   0.414   6.533   0.449  0.0833 -0.4439  0.0626
 2526TIP3    H129069   0.474   6.458   0.439  0.1189 -0.2894 -0.8602
 2526TIP3    H229070   0.341   6.514   0.390 -0.2736 -0.1063  0.3881
 2527TIP3   OH229071   3.326   1.372  12.129 -0.0460  0.6839  0.1901
 2527TIP3    H129072   3.401   1.431  12.129  0.8531 -0.4435  0.4836
 2527TIP3    H229073   3.277   1.396  12.208  1.1825 -0.0253  1.1907
 2528TIP3   OH229074   2.051   3.477   5.292  0.4862  0.1495 -0.6010
 2528TIP3    H129075   2.049   3.400   5.350 -1.7393  0.9496  0.4525
 2528TIP3    H229076   2.105   3.449   5.218  1.9554 -1.5076  1.0122
 2529TIP3   OH229077   2.098   4.102  16.458  0.4107  0.2737  0.1815
 2529TIP3    H129078   2.189   4.112  16.485  1.0964 -0.3132 -1.8987
 2529TIP3    H229079   2.068   4.192  16.442  1.6106  0.2787 -2.2739
 2530TIP3   OH229080   3.938   2.804   5.572  0.0193 -0.1037 -0.2162
 2530TIP3    H129081   3.865   2.743   5.581  0.6238 -0.7825  0.1393
 2530TIP3    H229082   3.897   2.888   5.549 -0.9329 -0.2561  0.9269
 2531TIP3   OH229083   1.898   3.533  11.961 -0.0692  0.0818  0.3225
 2531TIP3    H129084   1.846   3.613  11.948 -3.2582 -1.9560  0.0957
 2531TIP3    H229085   1.951   3.551  12.038 -1.8105  1.9013  1.1411
 2532TIP3   OH229086   3.366   4.264   4.577  0.1870 -0.2374  0.3711
 2532TIP3    H129087   3.343   4.178   4.612 -0.2665 -0.5281 -0.6171
 2532TIP3    H229088   3.356   4.324   4.652  0.1288 -0.9841  0.9650
 2533TIP3   OH229089   1.748   2.277   4.254  0.7716 -0.6411 -1.0730
 2533TIP3    H129090   1.810   2.295   4.184  0.4436  2.4467 -0.6469
 2533TIP3    H229091   1.662   2.296   4.215  0.4622 -0.5027 -0.3431
 2534TIP3   OH229092   1.608   2.561   4.348 -0.2919 -0.6170 -0.4064
 2534TIP3    H129093   1.568   2.615   4.416 -0.3358  1.6870 -2.2006
 2534TIP3    H229094   1.689   2.529   4.388 -0.6675  0.0941  0.9648
 2535TIP3   OH229095   1.017   2.447  15.406 -0.5263 -0.6606  0.5040
 2535TIP3    H129096   0.992   2.366  15.361 -1.4837 -0.0829 -0.0260
 2535TIP3    H229097   0.968   2.445  15.488  0.4964 -1.2623  1.1094
 2536TIP3   OH229098   3.467   5.861  12.068  0.2937  0.1025 -0.3779
 2536TIP3    H129099   3.510   5.947  12.076 -1.8314  1.3356 -1.6327
 2536TIP3    H229100   3.483   5.835  11.978 -1.0070  0.2669 -0.6619
 2537TIP3   OH229101   5.890   4.283   2.665 -0.2566 -0.3267 -0.5680
 2537TIP3    H129102   5.961   4.250   2.609  0.3378 -1.2661  0.7257
 2537TIP3    H229103   5.828   4.211   2.670 -1.0016  0.2616 -1.1500
 2538TIP3   OH229104   6.547   0.938  14.982 -0.1595  0.1699 -0.6021
 2538TIP3    H129105   6.503   0.976  15.059  1.9174 -1.1795  1.3085
 2538TIP3    H229106   6.554   0.844  15.003  1.4833 -0.0130 -1.9371
 2539TIP3   OH229107   3.211   4.081  13.384 -0.7924  0.4806 -0.4358
 2539TIP3    H129108   3.167   3.996  13.388 -0.0851  0.1198 -0.3613
 2539TIP3    H229109   3.167   4.134  13.451  0.7539 -0.7521  1.5654
 2540TIP3   OH229110   5.367   1.195   1.548  0.2688 -0.0272 -0.3375
 2540TIP3    H129111   5.428   1.167   1.480  1.4913  0.4956  0.5263
 2540TIP3    H229112   5.383   1.289   1.557  0.8643 -0.2803  1.4027
 2541TIP3   OH229113   2.316   4.258  13.575 -0.7598  0.0367 -0.2639
 2541TIP3    H129114   2.338   4.291  13.488  0.2694 -0.4074 -0.1755
 2541TIP3    H229115   2.386   4.289  13.632  0.8874 -3.2665 -0.4084
 2542TIP3   OH229116   2.248   6.493   5.254  0.2929  0.5709 -0.2033
 2542TIP3    H129117   2.231   6.402   5.230  2.5014  0.3751 -1.1425
 2542TIP3    H229118   2.185   6.511   5.323 -0.6295 -1.4638 -0.4557
 2543TIP3   OH229119   2.847   3.723   3.380 -0.0835  0.4013 -0.2298
 2543TIP3    H129120   2.935   3.694   3.356  0.1497 -1.0547  2.1704
 2543TIP3    H229121   2.819   3.661   3.448 -2.2185  1.9697  0.3944
 2544TIP3   OH229122   3.028   0.604   0.312  0.0697 -0.4778 -0.3547
 2544TIP3    H129123   3.050   0.627   0.402  1.7723  0.7240 -1.0487
 2544TIP3    H229124   2.940   0.565   0.317 -0.0785  0.1027  1.7299
 2545TIP3   OH229125   6.318   6.676  12.600 -0.6024  1.0887  0.1595
 2545TIP3    H129126   6.369   6.756  12.589 -1.4754  1.4006 -1.8505
 2545TIP3    H229127   6.381   6.606  12.588 -0.2776  1.4798 -0.4721
 2546TIP3   OH229128   5.670   6.396  14.059 -0.7138  0.5255  0.1116
 2546TIP3    H129129   5.744   6.457  14.056  1.1892 -1.7685 -2.2372
 2546TIP3    H229130   5.699   6.325  14.117 -1.4518  0.1004 -0.0266
 2547TIP3   OH229131   1.683   6.767  12.104 -0.4397  0.1700 -0.1007
 2547TIP3    H129132   1.749   6.768  12.173  0.4869  0.8287 -0.9827
 2547TIP3    H229133   1.600   6.755  12.150  0.0708  1.5157  1.2082
 2548TIP3   OH229134   5.469   3.511   2.175  0.0408  0.9502  1.0236
 2548TIP3    H129135   5.463   3.584   2.114  0.0863 -0.3682 -0.5936
 2548TIP3    H229136   5.548   3.464   2.149  0.8126  1.1115  2.9623
 2549TIP3   OH229137   2.259   5.761  11.574  0.1039  0.0215  0.3911
 2549TIP3    H129138   2.229   5.839  11.526 -0.1914 -0.7286 -0.6437
 2549TIP3    H229139   2.338   5.733  11.529 -0.4993 -1.0320 -0.0352
 2550TIP3   OH229140   5.809   1.618   2.387  0.3088 -0.0069  0.2934
 2550TIP3    H129141   5.826   1.694   2.331  3.0218  1.0155  2.4199
 2550TIP3    H229142   5.835   1.646   2.474 -0.8493 -2.6450  1.5177
 2551TIP3   OH229143   5.701   0.782   3.259 -0.4264  0.0708  0.0089
 2551TIP3    H129144   5.669   0.866   3.228 -0.1739  0.6390  1.2420
 2551TIP3    H229145   5.718   0.731   3.180 -1.1440  0.9676 -0.7247
 2552TIP3   OH229146   1.724   0.338  12.481 -0.0600  0.0813  0.0407
 2552TIP3    H129147   1.778   0.381  12.415 -1.3065  0.1909 -0.9159
 2552TIP3    H229148   1.702   0.408  12.543 -0.4803  0.4011 -0.4689
 2553TIP3   OH229149   3.206   2.230   0.493 -0.1671 -0.9162  0.3212
 2553TIP3    H129150   3.234   2.145   0.527  0.1857 -0.6111  0.7935
 2553TIP3    H229151   3.287   2.277   0.475 -0.3654 -0.2035  1.2595
 2554TIP3   OH229152   4.023   4.113  14.011  0.5674  0.4630 -0.0943
 2554TIP3    H129153   4.023   4.171  13.935  1.1126 -0.6095 -0.9281
 2554TIP3    H229154   3.931   4.108  14.037  0.1445 -0.3477 -1.6362
 2555TIP3   OH229155   1.209   0.081   4.223  0.3587  0.2614  0.1180
 2555TIP3    H129156   1.187   0.171   4.199 -1.0603 -0.4566 -1.3681
 2555TIP3    H229157   1.204   0.032   4.141  1.6605 -1.0744  0.8175
 2556TIP3   OH229158   4.235   6.259   2.578  0.1788  0.0337 -0.3814
 2556TIP3    H129159   4.314   6.231   2.624  0.9873 -1.4383 -2.5723
 2556TIP3    H229160   4.240   6.215   2.493 -4.0032 -1.6979  0.1561
 2557TIP3   OH229161   1.299   4.289   2.565  0.6442  0.0037 -0.2689
 2557TIP3    H129162   1.269   4.231   2.495  0.6375  0.7274 -0.8713
 2557TIP3    H229163   1.296   4.235   2.644  2.0594 -1.2589 -1.0658
 2558TIP3   OH229164   3.753   3.208   1.689  0.6817  0.5613 -0.1776
 2558TIP3    H129165   3.766   3.241   1.600  2.2655 -0.1216 -0.2128
 2558TIP3    H229166   3.781   3.280   1.746  0.4070  0.7153 -0.2382
 2559TIP3   OH229167   4.385   1.228  13.817 -0.4796  0.2094 -0.1456
 2559TIP3    H129168   4.459   1.215  13.877 -0.3396  0.5589 -0.2380
 2559TIP3    H229169   4.413   1.300  13.760  0.0782 -1.2919 -1.7782
 2560TIP3   OH229170   0.021   6.475   1.784  0.7413  0.1883 -0.5457
 2560TIP3    H129171   0.081   6.550   1.782  0.2437  0.6232  0.3034
 2560TIP3    H229172  -0.065   6.515   1.797  0.4757 -0.5449 -0.0585
 2561TIP3   OH229173   5.099   0.088  13.241 -0.0153  0.1933 -0.8931
 2561TIP3    H129174   5.190   0.073  13.215 -0.2282 -0.1059 -1.4721
 2561TIP3    H229175   5.048   0.044  13.174 -0.5932  0.7195 -0.7981
 2562TIP3   OH229176   2.776   2.659  13.350  0.5585  0.0055 -0.5524
 2562TIP3    H129177   2.802   2.641  13.259 -1.3323  0.0883 -1.1397
 2562TIP3    H229178   2.710   2.728  13.342  0.3342 -0.0343  0.8913
 2563TIP3   OH229179   2.788   5.407  15.304  0.3384 -0.0562  0.0702
 2563TIP3    H129180   2.783   5.316  15.334 -1.4209 -0.2831 -0.8326
 2563TIP3    H229181   2.799   5.400  15.209  0.2611  0.6774  0.0058
 2564TIP3   OH229182   4.159   2.679  14.656  0.1923 -0.9467 -0.0880
 2564TIP3    H129183   4.218   2.606  14.637 -0.4002 -0.7317 -2.8408
 2564TIP3    H229184   4.171   2.740  14.583 -0.8387  0.7789  1.1361
 2565TIP3   OH229185   1.955   6.349   1.757 -0.5975 -0.7488 -0.1174
 2565TIP3    H129186   2.016   6.416   1.788  0.3258 -1.2077 -0.9307
 2565TIP3    H229187   1.977   6.336   1.665 -0.0841 -2.8836  0.2813
 2566TIP3   OH229188   5.040   1.526  12.078  0.0271 -0.2920  0.5400
 2566TIP3    H129189   5.132   1.505  12.065  0.5456  0.0147  3.3852
 2566TIP3    H229190   5.007   1.457  12.135 -1.2549  0.0919  0.2801
 2567TIP3   OH229191   0.766   4.942   2.294 -0.2389 -0.5594 -0.0616
 2567TIP3    H129192   0.795   5.033   2.291  0.7209 -0.8933 -2.2481
 2567TIP3    H229193   0.832   4.897   2.346  0.5065 -0.3926 -0.8427
 2568TIP3   OH229194   4.776   6.457  11.309  0.4528 -0.8135 -0.2422
 2568TIP3    H129195   4.824   6.522  11.361 -2.6068  2.2633 -1.0384
 2568TIP3    H229196   4.714   6.418  11.371 -1.4106  1.0001 -0.8824
 2569TIP3   OH229197   5.759   5.121   1.278 -0.3475 -0.0277 -0.0686
 2569TIP3    H129198   5.837   5.177   1.277 -0.0385 -0.4428 -2.6237
 2569TIP3    H229199   5.696   5.166   1.221 -1.4420 -0.4334  0.8066
 2570TIP3   OH229200   0.467   0.199   1.242  0.3243  0.2985  0.1465
 2570TIP3    H129201   0.555   0.235   1.259  0.8322  0.6038 -2.8631
 2570TIP3    H229202   0.481   0.132   1.175 -1.9119  1.3097 -1.3933
 2571TIP3   OH229203   3.651   6.818   5.813  0.4355 -0.0352  0.3485
 2571TIP3    H129204   3.697   6.902   5.817  1.0319 -0.2384 -1.7020
 2571TIP3    H229205   3.617   6.813   5.724 -0.4124 -1.5552  0.7351
 2572TIP3   OH229206   5.773   5.897   0.164  0.3179 -0.0492  0.0123
 2572TIP3    H129207   5.756   5.980   0.209  0.5846  0.0864 -0.1361
 2572TIP3    H229208   5.744   5.830   0.226  0.1970  0.1530  0.1759
 2573TIP3   OH229209   3.887   1.530   3.765 -0.6442 -0.4185 -0.4295
 2573TIP3    H129210   3.965   1.476   3.755 -1.6763 -1.6001 -2.5422
 2573TIP3    H229211   3.919   1.614   3.798  1.4507 -1.0381 -0.8156
 2574TIP3   OH229212   2.219   3.795   3.428  0.1592 -0.1346 -0.8640
 2574TIP3    H129213   2.275   3.782   3.504 -2.0345 -1.4905  0.5850
 2574TIP3    H229214   2.204   3.707   3.392 -3.0653 -0.1529  0.3342
 2575TIP3   OH229215   1.224   5.294  14.267  0.1260  0.2892 -0.6590
 2575TIP3    H129216   1.273   5.343  14.201  0.3394 -0.0164 -0.7260
 2575TIP3    H229217   1.132   5.314  14.247  0.2011  0.4605 -0.8428
 2576TIP3   OH229218   6.030   1.009  14.912 -0.1959  0.5331  0.1743
 2576TIP3    H129219   6.022   0.918  14.882 -0.9591 -0.0717  2.1519
 2576TIP3    H229220   6.105   1.008  14.971 -1.1709  0.8419  1.4397
 2577TIP3   OH229221   6.263   6.325   5.281  1.0838  0.2140 -0.0473
 2577TIP3    H129222   6.169   6.308   5.272  1.2135  0.0836 -1.2663
 2577TIP3    H229223   6.271   6.420   5.271  1.2659  0.0325 -1.8389
 2578TIP3   OH229224   2.098   3.891   2.745 -0.5357  0.4443 -0.4444
 2578TIP3    H129225   2.015   3.908   2.701 -0.9856  0.2932  0.3286
 2578TIP3    H229226   2.073   3.853   2.829  0.3375 -0.2204 -0.4767
 2579TIP3   OH229227   4.353   6.460   3.096 -0.0268 -0.5906 -0.7402
 2579TIP3    H129228   4.344   6.551   3.123  0.7240 -0.1398 -2.0037
 2579TIP3    H229229   4.346   6.462   3.001  2.0574 -1.5941 -0.9274
 2580TIP3   OH229230   5.269   5.463  13.443 -0.0713 -0.3311 -0.5040
 2580TIP3    H129231   5.246   5.513  13.365 -0.1721 -1.3654 -1.1490
 2580TIP3    H229232   5.185   5.436  13.480  0.0121 -0.8135 -0.6738
 2581TIP3   OH229233   3.223   2.618   4.395 -0.3293 -0.0810 -0.5862
 2581TIP3    H129234   3.148   2.676   4.401  2.3856  3.4822  0.9759
 2581TIP3    H229235   3.271   2.649   4.317  1.4944  0.2875  0.6416
 2582TIP3   OH229236   1.938   1.110  10.760  0.3254  0.1270 -0.2174
 2582TIP3    H129237   1.852   1.074  10.740  0.4326  0.3939 -1.1854
 2582TIP3    H229238   1.999   1.040  10.736  0.3735 -0.0571  0.4548
 2583TIP3   OH229239   0.351   3.964  11.143  0.4958 -0.4570  0.0669
 2583TIP3    H129240   0.374   3.871  11.147  1.3975 -0.2362  0.2201
 2583TIP3    H229241   0.263   3.969  11.180  0.4427 -1.2538  0.0535
 2584TIP3   OH229242   4.400   0.379   0.651  0.3278 -0.2885  0.3731
 2584TIP3    H129243   4.398   0.284   0.655 -0.1660 -0.3199 -0.6189
 2584TIP3    H229244   4.346   0.402   0.575 -0.1334  0.8049  1.0123
 2585TIP3   OH229245   5.052   2.525  14.597 -0.0461  0.0272  0.1531
 2585TIP3    H129246   5.133   2.575  14.589  1.5317 -2.3915  0.4411
 2585TIP3    H229247   5.058   2.457  14.530 -1.5061 -0.6333  0.6480
 2586TIP3   OH229248   4.373   2.450   3.767 -0.8374 -0.1731  0.6542
 2586TIP3    H129249   4.311   2.445   3.840 -1.2987  2.1066  0.4883
 2586TIP3    H229250   4.328   2.505   3.703  1.0682  0.9427  0.2307
 2587TIP3   OH229251   1.409   1.235  11.453  0.0839 -0.4112  0.0687
 2587TIP3    H129252   1.348   1.286  11.399  1.4689  0.6038 -0.5675
 2587TIP3    H229253   1.493   1.245  11.409  0.4425 -3.0801  0.0583
 2588TIP3   OH229254   4.230   6.625  14.182 -0.4768  0.0259 -0.6979
 2588TIP3    H129255   4.248   6.542  14.137 -0.6385  0.0985 -0.9004
 2588TIP3    H229256   4.250   6.692  14.117 -2.5432  0.0729 -1.3163
 2589TIP3   OH229257   0.349   0.283   2.148  0.3035  0.2206  0.2962
 2589TIP3    H129258   0.359   0.211   2.086  0.3623  1.1292 -0.7479
 2589TIP3    H229259   0.362   0.362   2.097 -0.5472  1.0149  1.2758
 2590TIP3   OH229260   1.561   2.010  15.878  0.0846  0.1856 -0.1068
 2590TIP3    H129261   1.504   1.970  15.812 -1.2165  0.2611  0.9343
 2590TIP3    H229262   1.536   2.102  15.879 -0.0100  0.1599  0.5644
 2591TIP3   OH229263   6.400   5.857  16.077  0.1907  0.2338  0.0204
 2591TIP3    H129264   6.490   5.883  16.056  0.1245  0.1013 -0.4373
 2591TIP3    H229265   6.352   5.940  16.085  0.1848  0.2823 -0.5035
 2592TIP3   OH229266   2.413   5.862  15.938 -0.1698 -0.2820  0.0284
 2592TIP3    H129267   2.410   5.781  15.989  3.3509  0.6613  1.8967
 2592TIP3    H229268   2.499   5.859  15.895  0.0772  2.5533  0.2940
 2593TIP3   OH229269   4.103   5.306  14.647  0.5181 -0.2762 -0.5005
 2593TIP3    H129270   4.016   5.336  14.671  0.7500 -0.0062  0.0186
 2593TIP3    H229271   4.118   5.344  14.560  0.1934 -0.1747 -0.5109
 2594TIP3   OH229272   6.361   6.701   4.856 -0.7692 -0.0367  0.1839
 2594TIP3    H129273   6.266   6.717   4.858 -1.0610 -1.4208 -1.6724
 2594TIP3    H229274   6.373   6.628   4.916 -0.4241  2.0699  2.8024
 2595TIP3   OH229275   6.686   6.556   4.491  0.2862 -0.0827  0.0581
 2595TIP3    H129276   6.712   6.568   4.399 -0.7942 -0.3820 -0.2893
 2595TIP3    H229277   6.689   6.644   4.528  0.8111  0.0305 -0.2369
 2596TIP3   OH229278   1.496   2.205  13.604  0.2612  0.4046  0.2480
 2596TIP3    H129279   1.449   2.273  13.557 -0.3102 -0.6807 -0.7734
 2596TIP3    H229280   1.481   2.226  13.697  0.7312  2.0850 -0.0396
 2597TIP3   OH229281   4.843   2.201   5.842  0.9020  0.2167 -0.2545
 2597TIP3    H129282   4.817   2.206   5.750 -1.2149  0.3475  0.3227
 2597TIP3    H229283   4.791   2.129   5.878  1.6147  0.2456  0.8589
 2598TIP3   OH229284   2.933   0.881   2.627  0.2146 -0.2555  0.6398
 2598TIP3    H129285   3.017   0.922   2.647  0.7862 -0.5165 -1.1494
 2598TIP3    H229286   2.896   0.934   2.556 -0.6681 -0.7296  0.7344
 2599TIP3   OH229287   1.926   2.677  16.714  0.0923  0.1852 -0.0902
 2599TIP3    H129288   1.881   2.725  16.784 -1.0945  0.1759 -0.8324
 2599TIP3    H229289   1.968   2.604  16.758 -0.2117  0.4742  0.6882
 2600TIP3   OH229290   6.686   4.833  14.794 -0.2020 -0.0692 -0.1171
 2600TIP3    H129291   6.775   4.837  14.827 -0.1820  1.3227 -0.3174
 2600TIP3    H229292   6.693   4.790  14.708  0.1053 -1.0620  0.3976
 2601TIP3   OH229293   6.010   4.098  11.012 -0.2565 -0.2082 -0.5560
 2601TIP3    H129294   5.957   4.149  10.951 -0.7257 -0.8854 -0.7222
 2601TIP3    H229295   5.967   4.109  11.096  0.1206  0.3470 -0.4388
 2602TIP3   OH229296   1.785   0.498  16.570  0.4075  0.3434 -0.1133
 2602TIP3    H129297   1.768   0.483  16.663  0.6105  1.1116  0.0512
 2602TIP3    H229298   1.864   0.448  16.552 -2.7883 -4.5681 -1.2716
 2603TIP3   OH229299   1.913   4.090   5.584  0.3914  0.2440  1.0929
 2603TIP3    H129300   1.917   4.184   5.569 -0.9521  0.0303 -0.8612
 2603TIP3    H229301   1.979   4.053   5.526 -1.3139 -0.2199 -0.6308
 2604TIP3   OH229302   3.030   6.357  11.734  0.3863 -0.2452 -0.8132
 2604TIP3    H129303   3.043   6.452  11.723  0.5284 -0.2776 -0.9399
 2604TIP3    H229304   2.948   6.339  11.689  0.3881 -0.1893 -0.8405
 2605TIP3   OH229305   0.615   5.614  15.988 -0.0764 -0.0145  0.1706
 2605TIP3    H129306   0.708   5.637  15.989  0.4256 -1.8967 -0.5237
 2605TIP3    H229307   0.613   5.524  15.954 -2.2071  0.2374 -0.4314
 2606TIP3   OH229308   3.716   2.301  16.344 -0.3212 -1.1763 -0.1941
 2606TIP3    H129309   3.625   2.317  16.318  0.1000  1.9886  0.1064
 2606TIP3    H229310   3.709   2.240  16.417 -2.4438  1.1252  1.6245
 2607TIP3   OH229311   6.468   5.608   2.404 -0.6094 -0.6953  0.4401
 2607TIP3    H129312   6.514   5.550   2.343  0.4060  1.3606 -0.8270
 2607TIP3    H229313   6.386   5.629   2.359 -1.8277 -2.6039  1.7242
 2608TIP3   OH229314   6.436   4.460   0.193  0.0354 -0.0070 -0.0467
 2608TIP3    H129315   6.375   4.387   0.200 -0.0453 -0.1561 -1.8609
 2608TIP3    H229316   6.389   4.525   0.140  0.0551  1.4101  1.6517
 2609TIP3   OH229317   1.761   5.722  13.056 -0.0279  0.8027  0.3942
 2609TIP3    H129318   1.708   5.644  13.038  2.8345 -0.9930 -0.6368
 2609TIP3    H229319   1.770   5.723  13.151  0.4791 -0.5390  0.3675
 2610TIP3   OH229320   1.466   4.659  16.208  0.0645  0.2866  0.0399
 2610TIP3    H129321   1.512   4.741  16.222 -0.3519  0.8203 -1.6525
 2610TIP3    H229322   1.536   4.594  16.196  0.3846  0.6550 -0.0787
 2611TIP3   OH229323   3.357   0.380   2.308  0.7246  0.4290 -1.0604
 2611TIP3    H129324   3.263   0.387   2.323  0.4465 -4.3336  0.5129
 2611TIP3    H229325   3.397   0.413   2.389  0.1332 -2.0835  0.3157
 2612TIP3   OH229326   0.876   0.105   2.274  0.4589 -0.1990  0.4109
 2612TIP3    H129327   0.884   0.198   2.293 -5.4804  0.1275  2.4293
 2612TIP3    H229328   0.876   0.063   2.360 -2.1549 -1.4509 -0.1638
 2613TIP3   OH229329   2.878   2.193   1.935 -0.1844 -0.0064  0.1396
 2613TIP3    H129330   2.941   2.258   1.905  0.4651 -0.3420  0.7501
 2613TIP3    H229331   2.838   2.233   2.012 -0.0378 -0.1817  0.3077
 2614TIP3   OH229332   5.762   3.128   2.916 -0.1166  0.2433 -0.1534
 2614TIP3    H129333   5.703   3.146   2.843  0.2333 -1.4326 -0.8811
 2614TIP3    H229334   5.797   3.214   2.941 -1.8289  1.0885 -0.5743
 2615TIP3   OH229335   5.933   6.724  15.424  0.0487 -0.0054 -0.3024
 2615TIP3    H129336   5.905   6.805  15.382  1.5616  1.2366  1.0395
 2615TIP3    H229337   6.026   6.737  15.443 -0.2341 -1.1053  2.0554
 2616TIP3   OH229338   0.431   3.264  13.626  0.0003 -0.1368  0.1467
 2616TIP3    H129339   0.417   3.297  13.538  1.2280 -1.4095 -0.5499
 2616TIP3    H229340   0.487   3.330  13.667 -0.0091  0.1175 -0.2443
 2617TIP3   OH229341   6.635   3.420  14.070 -0.1959  0.9762 -0.2687
 2617TIP3    H129342   6.726   3.449  14.082  0.1900  0.0593 -0.9504
 2617TIP3    H229343   6.596   3.487  14.015  0.7787  0.0915 -2.0844
 2618TIP3   OH229344   5.494   4.655  17.038 -0.2480 -0.4156  0.1399
 2618TIP3    H129345   5.550   4.723  17.001 -1.0457 -0.3711 -1.0047
 2618TIP3    H229346   5.527   4.574  17.000  0.6682 -0.6771  1.4648
 2619TIP3   OH229347   5.062   3.233  14.232  0.3123 -0.1572 -0.6812
 2619TIP3    H129348   5.153   3.227  14.260  0.1143  1.5997  0.3906
 2619TIP3    H229349   5.067   3.255  14.139  1.0044  2.0997 -0.1335
 2620TIP3   OH229350   0.272   3.547   6.041  0.2675  0.0478 -0.0089
 2620TIP3    H129351   0.321   3.629   6.050  1.6370 -0.5223 -2.0286
 2620TIP3    H229352   0.280   3.524   5.949 -2.6769 -0.7937 -0.1180
 2621TIP3   OH229353   6.377   6.447   3.310  0.1264 -0.2398  0.2306
 2621TIP3    H129354   6.382   6.420   3.218 -3.1185  1.7852 -0.6133
 2621TIP3    H229355   6.312   6.387   3.349  0.4361 -0.1697  0.8630
 2622TIP3   OH229356   4.336   5.405  11.039  0.4486  0.0315  0.6099
 2622TIP3    H129357   4.270   5.387  10.972  0.3612 -0.6386  0.8642
 2622TIP3    H229358   4.407   5.449  10.993 -0.2363  0.8650  0.3623
 2623TIP3   OH229359   3.685   2.817   4.502  0.2843 -0.3262 -0.4149
 2623TIP3    H129360   3.653   2.751   4.440  0.1836  1.2440 -2.0588
 2623TIP3    H229361   3.741   2.874   4.450  0.0811  1.1199  0.9046
 2624TIP3   OH229362   4.337   3.487  11.028 -0.0889 -0.4500 -0.1519
 2624TIP3    H129363   4.264   3.518  10.974 -0.9462 -2.2691 -0.0846
 2624TIP3    H229364   4.349   3.396  11.001  0.7184 -0.8144  1.3873
 2625TIP3   OH229365   1.235   0.680   3.766 -0.1393 -0.0156  0.3965
 2625TIP3    H129366   1.249   0.586   3.779  0.5271 -0.4066 -2.8224
 2625TIP3    H229367   1.150   0.697   3.807 -0.2519 -1.9869  1.0678
 2626TIP3   OH229368   2.256   6.067   3.215 -0.4728  0.2656 -0.4635
 2626TIP3    H129369   2.167   6.083   3.183 -0.0850  0.3197 -1.5473
 2626TIP3    H229370   2.307   6.139   3.177  0.5248 -1.2212 -1.9972
 2627TIP3   OH229371   0.551   0.026  13.069  0.7393  0.4503 -0.6002
 2627TIP3    H129372   0.511   0.055  12.987 -0.8629 -0.3986 -0.1334
 2627TIP3    H229373   0.596  -0.055  13.047  0.0221  0.0415 -0.5800
 2628TIP3   OH229374   3.015   0.631  12.809  0.2734  0.4835  0.5139
 2628TIP3    H129375   3.065   0.705  12.774 -1.1469  0.5477 -1.4620
 2628TIP3    H229376   2.964   0.599  12.734  0.2578 -2.0061  1.5278
 2629TIP3   OH229377   5.257   5.492  12.654 -0.1656  0.1592  0.3430
 2629TIP3    H129378   5.310   5.421  12.617  1.3643  1.5787 -0.2882
 2629TIP3    H229379   5.310   5.526  12.726 -0.4762  1.2337  0.0701
 2630TIP3   OH229380   4.896   2.970   3.176  0.3134 -0.5129 -0.2889
 2630TIP3    H129381   4.805   2.954   3.152  0.5610 -1.8342 -0.3951
 2630TIP3    H229382   4.894   2.981   3.271  0.1916 -1.6829 -0.1511
 2631TIP3   OH229383   5.524   2.583   2.025  0.5403  0.2149  0.0888
 2631TIP3    H129384   5.563   2.669   2.039 -2.0434  1.4614  0.0727
 2631TIP3    H229385   5.475   2.565   2.106 -1.5500  0.2565 -1.1079
 2632TIP3   OH229386   2.680   2.281  15.552  0.0371  0.1970  0.1219
 2632TIP3    H129387   2.683   2.355  15.613  0.9452  0.5902 -0.3877
 2632TIP3    H229388   2.765   2.238  15.564  0.0353  0.0159 -0.5376
 2633TIP3   OH229389   0.595   1.534   4.899  0.0496 -0.4309  0.0278
 2633TIP3    H129390   0.679   1.496   4.873  1.3915  2.7066 -0.4453
 2633TIP3    H229391   0.590   1.617   4.850 -2.3393  0.4524  1.6631
 2634TIP3   OH229392   4.206   2.271   5.278  0.8903  0.3631  0.9026
 2634TIP3    H129393   4.188   2.364   5.292  0.4883  0.3021  0.7792
 2634TIP3    H229394   4.281   2.271   5.218 -0.9489  0.6153 -1.4771
 2635TIP3   OH229395   4.201   0.888   4.910  0.1408  0.0825  0.1637
 2635TIP3    H129396   4.153   0.905   4.991 -1.1558 -0.8268 -0.3844
 2635TIP3    H229397   4.160   0.945   4.845 -0.7684 -1.2797 -0.4894
 2636TIP3   OH229398   1.416   2.081  15.351  0.1868 -0.7224  0.4475
 2636TIP3    H129399   1.327   2.054  15.330  0.0310  0.3096 -0.2450
 2636TIP3    H229400   1.470   2.048  15.279 -0.0890  1.2676 -0.7081
 2637TIP3   OH229401   0.445   6.001   2.211  0.3971  0.7649  0.0064
 2637TIP3    H129402   0.508   5.931   2.194 -1.3924 -1.0908  0.9972
 2637TIP3    H229403   0.446   6.053   2.131  1.3163 -0.7072 -0.9624
 2638TIP3   OH229404   2.104   5.427  12.189  0.4266  0.2489  0.3873
 2638TIP3    H129405   2.010   5.438  12.171  0.2541  0.1624  1.2380
 2638TIP3    H229406   2.124   5.339  12.159  0.0198 -0.0889  1.0953
 2639TIP3   OH229407   0.847   5.841   1.848 -0.0148  0.0956 -0.0607
 2639TIP3    H129408   0.903   5.896   1.902  0.4843 -0.3925 -0.0768
 2639TIP3    H229409   0.759   5.878   1.859  0.5063  1.7050 -1.1068
 2640TIP3   OH229410   0.314   5.301  14.809  0.1386  0.2233 -0.0932
 2640TIP3    H129411   0.388   5.277  14.865  0.3176 -1.1032 -0.8856
 2640TIP3    H229412   0.354   5.348  14.736  0.2417 -0.7561 -0.6758
 2641TIP3   OH229413   5.513   6.046   2.254 -0.2063  0.0746 -0.3328
 2641TIP3    H129414   5.465   5.979   2.303  1.4697  0.2451  1.6501
 2641TIP3    H229415   5.482   6.129   2.291 -0.8877  0.3221 -1.4528
 2642TIP3   OH229416   4.917   2.502  12.416  0.1719  0.2159 -0.3004
 2642TIP3    H129417   4.953   2.434  12.472 -1.0014  0.9236  1.3474
 2642TIP3    H229418   4.894   2.573  12.475 -1.8061  0.6796 -1.5542
 2643TIP3   OH229419   0.736   0.174  15.035  0.1484  0.2304 -0.1011
 2643TIP3    H129420   0.789   0.230  14.979  1.2333 -0.9854 -0.3207
 2643TIP3    H229421   0.650   0.171  14.992  0.0791  1.7067 -0.0811
 2644TIP3   OH229422   1.252   4.469   5.531 -0.4549  0.2480 -0.3195
 2644TIP3    H129423   1.281   4.538   5.471  1.4547 -1.2973 -1.2337
 2644TIP3    H229424   1.160   4.488   5.546 -0.4480  1.8823 -2.0892
 2645TIP3   OH229425   0.962   3.261  16.197  0.0481  0.1254 -0.0937
 2645TIP3    H129426   0.875   3.248  16.159 -0.1314 -1.1536  0.7407
 2645TIP3    H229427   0.961   3.212  16.279  1.1926  1.0120  0.4718
 2646TIP3   OH229428   3.581   1.122  16.003  1.1161  0.1541 -0.0793
 2646TIP3    H129429   3.498   1.086  16.034  1.1202  1.8905  2.1127
 2646TIP3    H229430   3.626   1.048  15.962 -0.6994 -1.2419  0.3893
 2647TIP3   OH229431   2.201   2.615   4.236 -0.3826 -1.1226  0.0523
 2647TIP3    H129432   2.222   2.562   4.159 -0.7014 -1.3071  0.0936
 2647TIP3    H229433   2.224   2.704   4.210 -1.2423 -1.0730 -0.5328
 2648TIP3   OH229434   4.452   2.011  16.020 -0.4296 -0.3913 -0.4330
 2648TIP3    H129435   4.494   2.079  15.969 -1.0036 -0.3009 -0.7815
 2648TIP3    H229436   4.435   1.940  15.958  2.3109 -1.8472  0.3703
 2649TIP3   OH229437   4.848   1.052   3.808 -0.3527 -0.0819 -0.4439
 2649TIP3    H129438   4.862   0.992   3.881 -1.1198  1.0780  0.6727
 2649TIP3    H229439   4.933   1.093   3.794 -0.1801 -0.3805 -0.2847
 2650TIP3   OH229440   1.756   6.685   3.666  0.1102  0.1315 -0.1859
 2650TIP3    H129441   1.834   6.636   3.640 -0.4490 -1.3747  0.9015
 2650TIP3    H229442   1.784   6.777   3.666  1.5250 -0.2842 -1.0181
 2651TIP3   OH229443   3.622   0.110  12.969  0.5589  0.2128  0.6490
 2651TIP3    H129444   3.529   0.090  12.961  0.8433 -0.5162 -1.0061
 2651TIP3    H229445   3.627   0.170  13.044 -1.1280 -0.4118  1.2973
 2652TIP3   OH229446   0.879   5.536   4.101  0.2972 -0.2696 -0.2435
 2652TIP3    H129447   0.919   5.615   4.137  0.2702  0.3480 -1.5170
 2652TIP3    H229448   0.949   5.495   4.050 -0.3078  0.1568 -1.4551
 2653TIP3   OH229449   5.706   1.449   0.687  0.0289  0.4865 -0.3383
 2653TIP3    H129450   5.686   1.355   0.678 -1.5618  0.9941 -2.4316
 2653TIP3    H229451   5.650   1.479   0.758 -0.0459  0.0342 -0.2025
 2654TIP3   OH229452   5.282   2.777  14.204  0.3435  0.7262  0.7408
 2654TIP3    H129453   5.293   2.794  14.111 -0.1388 -0.0512  0.5441
 2654TIP3    H229454   5.367   2.741  14.232  0.3021  0.4300  0.4862
 2655TIP3   OH229455   1.540   0.068  10.944 -0.6650 -0.1898  0.2827
 2655TIP3    H129456   1.527   0.131  10.873 -1.6311 -0.5339  0.1585
 2655TIP3    H229457   1.461   0.074  10.998  0.0596  0.0682  1.3420
 2656TIP3   OH229458   4.393   3.520  17.264 -0.3614  0.0115 -0.0284
 2656TIP3    H129459   4.322   3.549  17.321  0.1411  0.1892  0.5092
 2656TIP3    H229460   4.350   3.467  17.197 -0.9830 -0.0023  0.3792
 2657TIP3   OH229461   1.851   3.155   1.583 -0.1635  0.4511 -0.3146
 2657TIP3    H129462   1.889   3.202   1.508 -1.0364  0.6983 -0.6102
 2657TIP3    H229463   1.845   3.221   1.652  0.8862  0.1580  0.0677
 2658TIP3   OH229464   6.126   3.185  17.220  0.3924 -0.5682  0.5901
 2658TIP3    H129465   6.115   3.203  17.313 -0.0721 -0.4593  0.5193
 2658TIP3    H229466   6.181   3.257  17.188 -0.3245 -0.0237  0.5766
 2659TIP3   OH229467   5.210   4.191   6.779 -0.1800 -0.0468  0.0373
 2659TIP3    H129468   5.272   4.210   6.708  0.4480  1.7576  1.0453
 2659TIP3    H229469   5.168   4.274   6.797 -0.8712 -0.6545  1.2965
 2660TIP3   OH229470   5.375   5.446  16.348 -0.3607  0.6091  0.3755
 2660TIP3    H129471   5.377   5.528  16.298  3.3895  0.3036 -0.1524
 2660TIP3    H229472   5.395   5.473  16.438 -0.9570  0.4666  0.5493
 2661TIP3   OH229473   3.471   5.925  11.667 -0.9018 -0.3613 -0.6986
 2661TIP3    H129474   3.565   5.925  11.647 -0.9263  1.5780 -0.9650
 2661TIP3    H229475   3.431   5.879  11.593 -0.1244 -1.6553 -0.3253
 2662TIP3   OH229476   5.134   0.441   5.263 -0.3233 -0.7277  0.1835
 2662TIP3    H129477   5.207   0.456   5.204 -1.1009 -1.5487 -1.0085
 2662TIP3    H229478   5.126   0.522   5.314  1.8324 -0.8885  0.8094
 2663TIP3   OH229479   1.274   6.327   5.164  0.4586  0.1188 -0.1002
 2663TIP3    H129480   1.211   6.344   5.094  0.9750  1.1340 -0.3160
 2663TIP3    H229481   1.225   6.345   5.245  0.7772  1.9175 -0.3002
 2664TIP3   OH229482   0.760   3.607   1.685 -0.4118  0.4817 -0.1672
 2664TIP3    H129483   0.852   3.617   1.710 -0.5042  0.5727  0.1426
 2664TIP3    H229484   0.762   3.584   1.592 -0.1243  1.6870 -0.4651
 2665TIP3   OH229485   5.149   3.741  11.924 -0.2318  0.0859  0.1413
 2665TIP3    H129486   5.068   3.695  11.946  0.0862 -0.5199  0.0386
 2665TIP3    H229487   5.219   3.682  11.952  0.1821 -0.5298 -2.0892
 2666TIP3   OH229488   3.560   6.097  14.444  0.3422 -0.3053 -0.1531
 2666TIP3    H129489   3.483   6.041  14.435 -0.6623  0.7643  1.4933
 2666TIP3    H229490   3.610   6.059  14.515  0.7853 -0.3812 -0.5056
 2667TIP3   OH229491   4.809   0.740   5.184  0.3276  0.2705  0.4243
 2667TIP3    H129492   4.837   0.803   5.118 -0.0450  0.8227  0.7931
 2667TIP3    H229493   4.825   0.783   5.268 -1.2970  0.4519  0.6466
 2668TIP3   OH229494   5.870   3.399  11.238  0.3529 -0.4731  0.1056
 2668TIP3    H129495   5.820   3.473  11.272  0.2032 -0.1709 -0.7657
 2668TIP3    H229496   5.804   3.335  11.213  0.3278  0.3099 -1.9476
 2669TIP3   OH229497   1.158   3.141  15.003 -0.3312 -1.0211 -0.6409
 2669TIP3    H129498   1.204   3.195  15.067  0.6597 -1.8847 -0.6116
 2669TIP3    H229499   1.065   3.154  15.023 -0.0864  0.0740 -0.1607
 2670TIP3   OH229500   5.148   4.126   0.274  0.2551 -0.5036 -0.5448
 2670TIP3    H129501   5.079   4.075   0.231 -0.2169  0.2625 -0.7040
 2670TIP3    H229502   5.156   4.087   0.361 -1.7600  0.6502  0.1783
 2671TIP3   OH229503   2.374   4.731  11.761  0.1627 -0.0213  0.2240
 2671TIP3    H129504   2.456   4.717  11.714  0.5253  2.0581  0.1735
 2671TIP3    H229505   2.398   4.726  11.853  0.5975  1.7283  0.2273
 2672TIP3   OH229506   2.968   5.333   3.769 -0.3037 -0.4148  0.5080
 2672TIP3    H129507   3.011   5.353   3.686  0.8105 -1.9700  0.6842
 2672TIP3    H229508   2.947   5.418   3.806 -0.1408  0.3142 -1.0283
 2673TIP3   OH229509   6.727   5.716   2.075 -0.1137  0.1057  0.0727
 2673TIP3    H129510   6.777   5.792   2.103  1.9113  0.2855 -3.7816
 2673TIP3    H229511   6.780   5.641   2.101  1.3129  0.2467 -2.3358
 2674TIP3   OH229512   4.575   0.234  11.269 -0.1894  0.0516 -0.3896
 2674TIP3    H129513   4.518   0.300  11.309  0.6183 -0.0607  0.9728
 2674TIP3    H229514   4.601   0.272  11.186 -0.8245  0.8769 -0.2167
 2675TIP3   OH229515   0.447   2.356  13.732  0.7112  0.5450  0.3282
 2675TIP3    H129516   0.448   2.294  13.805  1.5214 -0.3901 -0.4773
 2675TIP3    H229517   0.355   2.359  13.705  0.5048  0.4539  0.9984
 2676TIP3   OH229518   5.874   4.310  10.912  0.2926  0.4894  0.7818
 2676TIP3    H129519   5.820   4.264  10.849  0.1394  1.0325  0.5153
 2676TIP3    H229520   5.888   4.397  10.874 -1.3867  1.5048  2.3429
 2677TIP3   OH229521   6.153   6.619   3.060  0.2044 -0.3323  0.3308
 2677TIP3    H129522   6.193   6.571   2.987 -0.9681  0.1694 -0.6602
 2677TIP3    H229523   6.222   6.625   3.126  1.6540  0.2170 -1.2064
 2678TIP3   OH229524   0.101   6.056  12.882 -0.7547  0.4819  0.1129
 2678TIP3    H129525   0.100   6.103  12.799 -0.7624  0.2186 -0.0380
 2678TIP3    H229526   0.175   5.996  12.874  0.2510  1.6017  0.9454
 2679TIP3   OH229527   1.748   6.458   1.241  0.5224  0.7871 -0.0068
 2679TIP3    H129528   1.808   6.465   1.166 -0.9540 -0.6424 -1.3615
 2679TIP3    H229529   1.674   6.513   1.217  0.0208  0.2889  0.3800
 2680TIP3   OH229530   5.933   4.126  17.045 -0.1478  0.1972 -0.0259
 2680TIP3    H129531   5.951   4.156  17.134 -0.8100 -0.5920  0.3804
 2680TIP3    H229532   6.003   4.063  17.026  0.4931  0.9984 -0.4003
 2681TIP3   OH229533   4.099   3.347   4.247 -0.8178 -0.7107  0.4744
 2681TIP3    H129534   4.054   3.430   4.230 -0.5076 -0.6976 -0.3136
 2681TIP3    H229535   4.032   3.292   4.289 -1.0362 -0.0858  0.9528
 2682TIP3   OH229536   5.149   1.780  12.959  0.2604 -0.2472  0.1280
 2682TIP3    H129537   5.177   1.772  12.867  2.8729  2.3537  0.6412
 2682TIP3    H229538   5.097   1.860  12.961  0.4661 -0.1307  0.9641
 2683TIP3   OH229539   0.347   5.175   2.098 -0.2695 -0.3631 -0.2120
 2683TIP3    H129540   0.374   5.090   2.134  0.4175 -0.9213 -1.9833
 2683TIP3    H229541   0.255   5.183   2.124 -1.0776 -2.8047 -2.0010
 2684TIP3   OH229542   3.270   4.887   3.272 -0.0689  0.5365  0.2783
 2684TIP3    H129543   3.290   4.828   3.345 -1.3597 -2.2741 -1.5641
 2684TIP3    H229544   3.346   4.882   3.215 -0.8238 -0.6003 -0.6508
 2685TIP3   OH229545   2.304   3.456   3.465 -0.4397  0.0906 -0.4425
 2685TIP3    H129546   2.245   3.487   3.534  1.1002  1.0664  0.4451
 2685TIP3    H229547   2.256   3.472   3.384 -1.3147  1.0432  0.2506
 2686TIP3   OH229548   6.015   3.753  12.686  0.2647 -0.4385 -0.7603
 2686TIP3    H129549   5.962   3.739  12.764 -0.1681  1.9684 -0.5668
 2686TIP3    H229550   6.105   3.746  12.716  0.0831 -2.0089 -0.5634
 2687TIP3   OH229551   0.637   4.353   3.792  0.3889  0.2791 -0.2024
 2687TIP3    H129552   0.626   4.262   3.821  1.5951  0.1106 -0.2809
 2687TIP3    H229553   0.596   4.354   3.705  0.1604 -0.1257 -0.1047
 2688TIP3   OH229554   1.838   1.661  12.206  0.9040  0.4997 -0.7401
 2688TIP3    H129555   1.933   1.648  12.203  1.1150  1.8244  0.3166
 2688TIP3    H229556   1.820   1.688  12.296 -0.5540 -0.3179 -0.7830
 2689TIP3   OH229557   0.885   4.103   5.853 -0.0891 -0.2363 -0.7608
 2689TIP3    H129558   0.963   4.128   5.805 -0.8772  1.7344 -1.0761
 2689TIP3    H229559   0.815   4.106   5.788 -0.3746 -2.4101 -0.5828
 2690TIP3   OH229560   4.497   0.741   0.265  0.0038  0.0372  0.3609
 2690TIP3    H129561   4.577   0.791   0.250 -0.0848  0.8817  2.4533
 2690TIP3    H229562   4.526   0.656   0.297  0.1234 -0.8067 -1.9322
 2691TIP3   OH229563   2.157   1.094   0.428  0.1147  0.3594 -0.0495
 2691TIP3    H129564   2.194   1.011   0.456 -0.9677 -0.1160 -0.0061
 2691TIP3    H229565   2.193   1.108   0.340 -0.8858 -0.9073 -0.6752
 2692TIP3   OH229566   0.847   0.526  14.209 -0.7054 -0.2299  0.0690
 2692TIP3    H129567   0.757   0.496  14.206 -0.8914  0.0473  2.2927
 2692TIP3    H229568   0.897   0.451  14.241 -0.5856  0.5043  1.6465
 2693TIP3   OH229569   5.142   5.522  11.895 -0.4100  0.2779  0.6408
 2693TIP3    H129570   5.172   5.438  11.860 -0.5176  1.0683 -1.4063
 2693TIP3    H229571   5.135   5.579  11.818 -1.5543  1.7965  1.8420
 2694TIP3   OH229572   3.286   1.378   1.781  0.0058  0.1309  0.4820
 2694TIP3    H129573   3.215   1.440   1.791  1.1365  1.2420  1.7653
 2694TIP3    H229574   3.327   1.401   1.698 -0.7250 -0.1021  0.0549
 2695TIP3   OH229575   5.924   5.276   5.341 -0.1833 -0.8171  0.4862
 2695TIP3    H129576   5.949   5.252   5.431  2.9447 -1.6739 -0.5520
 2695TIP3    H229577   5.873   5.202   5.310  2.2934 -2.4440  0.1713
 2696TIP3   OH229578   5.468   6.081   0.286 -0.0845 -0.0640 -0.0994
 2696TIP3    H129579   5.509   6.004   0.326 -1.3603 -0.2390  0.9147
 2696TIP3    H229580   5.503   6.084   0.197 -0.0649 -1.8491 -0.1671
 2697TIP3   OH229581   6.038   0.644   3.694 -0.4134 -0.4667  0.7498
 2697TIP3    H129582   6.013   0.708   3.627  1.2475  0.5523  1.0821
 2697TIP3    H229583   5.963   0.585   3.700 -0.7050 -0.4010 -1.7988
 2698TIP3   OH229584   6.235   5.290  11.434 -0.4563  0.0756 -0.2233
 2698TIP3    H129585   6.205   5.375  11.402  0.3514  0.5750  0.3255
 2698TIP3    H229586   6.297   5.260  11.368 -0.5059  0.0515 -0.2594
 2699TIP3   OH229587   4.853   1.713  14.204 -0.3495 -0.3831  0.0101
 2699TIP3    H129588   4.877   1.798  14.241 -1.3170 -0.6925  1.3691
 2699TIP3    H229589   4.925   1.655  14.226 -0.2277 -0.2005  0.0914
 2700TIP3   OH229590   5.809   5.005   5.500 -0.1247  0.1781 -0.4525
 2700TIP3    H129591   5.801   4.912   5.521  3.3357 -0.4969 -1.8100
 2700TIP3    H229592   5.775   5.013   5.411 -1.6609  0.4798  0.1485
 2701TIP3   OH229593   6.061   4.555  17.189  0.3044  0.2726 -0.4600
 2701TIP3    H129594   6.054   4.585  17.098 -0.3304 -0.3467 -0.6186
 2701TIP3    H229595   5.974   4.571  17.226  1.1599  2.5398  0.6790
 2702TIP3   OH229596   4.531   4.308   2.828 -0.0018  0.3627  0.2040
 2702TIP3    H129597   4.482   4.389   2.811 -1.1466 -0.2796  0.4440
 2702TIP3    H229598   4.467   4.238   2.816  0.9938 -0.5182 -0.0083
 2703TIP3   OH229599   4.308   3.234  15.512  0.2630 -0.2615  0.7964
 2703TIP3    H129600   4.223   3.253  15.552  0.1067 -3.7199  2.2535
 2703TIP3    H229601   4.291   3.158  15.455  1.6098  1.3423 -1.8731
 2704TIP3   OH229602   4.256   4.704  12.507  0.6005 -0.1804 -0.2602
 2704TIP3    H129603   4.338   4.667  12.474  1.0057  0.3323  0.1526
 2704TIP3    H229604   4.190   4.636  12.491  1.2603 -0.9289  0.1584
 2705TIP3   OH229605   0.216   6.309   1.162 -0.2796  0.0351  0.0623
 2705TIP3    H129606   0.300   6.264   1.154  0.3065  1.3357 -1.2596
 2705TIP3    H229607   0.154   6.255   1.112  0.0035 -0.3431  0.1218
 2706TIP3   OH229608   2.409   1.137  13.961 -0.4528 -0.4471  0.1756
 2706TIP3    H129609   2.460   1.075  13.909  1.0020  1.8332 -1.2393
 2706TIP3    H229610   2.465   1.160  14.034 -0.2604  0.4719 -0.2424
 2707TIP3   OH229611   6.021   0.093  11.949 -0.1690 -0.3164 -0.0210
 2707TIP3    H129612   5.986   0.164  11.895 -1.0234 -0.3241  0.5097
 2707TIP3    H229613   5.998   0.013  11.900 -0.3182 -0.2901  0.0076
 2708TIP3   OH229614   4.961   1.947  13.738  0.6797  0.5281 -0.3871
 2708TIP3    H129615   4.946   1.878  13.803 -0.5232  2.1677  1.1025
 2708TIP3    H229616   5.050   1.976  13.755  0.7075  0.2870 -0.1059
 2709TIP3   OH229617   3.023   6.330   0.011 -0.0967 -0.0486  0.6260
 2709TIP3    H129618   3.069   6.378  -0.057 -1.1621 -0.2648 -0.2628
 2709TIP3    H229619   3.036   6.238  -0.010 -1.6176 -0.1168 -0.1372
 2710TIP3   OH229620   1.137   3.223  13.350 -0.0804  0.1970  0.2284
 2710TIP3    H129621   1.227   3.246  13.331  0.2100 -0.5728  0.6476
 2710TIP3    H229622   1.108   3.288  13.414  0.0391  0.6944 -0.2174
 2711TIP3   OH229623   1.009   1.524   3.418  0.0333 -0.8055  0.6939
 2711TIP3    H129624   1.059   1.443   3.405 -0.5207 -0.9902 -0.3704
 2711TIP3    H229625   0.963   1.511   3.501  0.0018 -1.5598  0.5633
 2712TIP3   OH229626   0.080   2.501   1.822 -0.1668 -0.2284 -0.3714
 2712TIP3    H129627   0.129   2.579   1.848 -0.8841  0.0585  0.1376
 2712TIP3    H229628   0.060   2.515   1.729  2.1165 -1.1036 -1.0258
 2713TIP3   OH229629   3.077   1.091   1.775 -0.1424 -0.1272  0.5543
 2713TIP3    H129630   3.111   1.001   1.782  1.6232  0.5293  0.8107
 2713TIP3    H229631   3.121   1.138   1.846  0.0726  1.2744 -0.4863
 2714TIP3   OH229632   1.001   3.322  12.136 -0.6383 -0.0299 -0.0533
 2714TIP3    H129633   1.006   3.251  12.072 -1.0105  0.3716 -0.5403
 2714TIP3    H229634   0.935   3.381  12.100  1.8478  2.1264 -1.2658
 2715TIP3   OH229635   4.972   0.693  13.040  0.8521  0.0838 -0.0234
 2715TIP3    H129636   4.938   0.645  13.116  1.3813 -0.7890 -0.3233
 2715TIP3    H229637   4.906   0.681  12.973  0.4588  0.7195  0.2479
 2716TIP3   OH229638   1.376   3.670  15.135 -0.0403 -0.1466  0.1384
 2716TIP3    H129639   1.319   3.729  15.184  1.8026 -0.0034  2.2064
 2716TIP3    H229640   1.464   3.691  15.166  0.8807 -2.3146 -0.9021
 2717TIP3   OH229641   4.976   6.526  13.959  0.3321  0.2842 -0.4516
 2717TIP3    H129642   4.886   6.547  13.987  0.5928  1.1885 -0.2726
 2717TIP3    H229643   4.977   6.548  13.866  0.6024  1.0715 -0.2665
 2718TIP3   OH229644   0.988   6.367  14.263  0.2847  0.6001  0.0795
 2718TIP3    H129645   1.040   6.404  14.192  1.9729 -3.3807 -0.8767
 2718TIP3    H229646   1.038   6.385  14.342 -0.1310  2.4411 -0.0606
 2719TIP3   OH229647   6.117   0.338  14.079  0.0395  0.3154 -0.2409
 2719TIP3    H129648   6.154   0.377  14.158 -0.0056  1.9204 -0.9943
 2719TIP3    H229649   6.030   0.309  14.106  0.5482 -0.3934  0.6510
 2720TIP3   OH229650   3.538   4.539   6.123  0.1442  0.1650  0.3394
 2720TIP3    H129651   3.497   4.622   6.147  0.5569 -0.1179  2.0881
 2720TIP3    H229652   3.591   4.516   6.199  1.8029 -0.5840 -1.0126
 2721TIP3   OH229653   4.744   6.688  16.299 -0.3965 -0.0669 -0.4851
 2721TIP3    H129654   4.656   6.677  16.336 -0.5763  2.2536 -0.1386
 2721TIP3    H229655   4.803   6.674  16.372 -0.5675  0.1713 -0.2994
 2722TIP3   OH229656   1.880   4.623  16.808 -0.4120 -0.7947  0.3009
 2722TIP3    H129657   1.824   4.584  16.740  1.1713  0.5513 -1.8289
 2722TIP3    H229658   1.969   4.605  16.780  0.2871 -1.5362  2.8500
 2723TIP3   OH229659   1.558   4.121  14.996 -0.2557  0.5408  0.1536
 2723TIP3    H129660   1.563   4.142  15.090 -0.2101  1.7031 -0.0930
 2723TIP3    H229661   1.621   4.051  14.983 -0.9082 -0.2484  1.1555
 2724TIP3   OH229662   5.435   0.273  16.155 -0.0547 -0.2763  0.7774
 2724TIP3    H129663   5.488   0.244  16.081 -2.6515 -0.3884 -1.1096
 2724TIP3    H229664   5.495   0.325  16.209  1.4889  1.1941 -2.2585
 2725TIP3   OH229665   1.676   2.637  11.709  0.1959  0.1879 -0.4533
 2725TIP3    H129666   1.595   2.667  11.669  0.2484  1.0499  0.0630
 2725TIP3    H229667   1.662   2.648  11.803  0.4856 -0.7380 -0.2985
 2726TIP3   OH229668   3.116   6.268  16.177  0.4498  0.6545 -0.2719
 2726TIP3    H129669   3.085   6.310  16.098 -2.3276 -1.2026 -0.2496
 2726TIP3    H229670   3.069   6.185  16.180  1.7324 -0.0375  2.4626
 2727TIP3   OH229671   4.469   1.517   1.955  0.2763 -0.5994  0.5743
 2727TIP3    H129672   4.468   1.423   1.939  0.7771 -0.7610  1.4905
 2727TIP3    H229673   4.561   1.538   1.971 -0.0908 -0.2890  2.3451
 2728TIP3   OH229674   6.731   3.417  16.821 -0.2527 -0.3323 -0.4685
 2728TIP3    H129675   6.792   3.348  16.797 -1.7878 -1.7259 -0.4417
 2728TIP3    H229676   6.734   3.419  16.917  0.0024 -0.1768 -0.4811
 2729TIP3   OH229677   3.644   5.730   0.416  0.0688  0.5617  0.9276
 2729TIP3    H129678   3.668   5.814   0.456 -0.6216  1.6201 -0.7746
 2729TIP3    H229679   3.712   5.714   0.351  0.1793 -0.1782  1.2282
 2730TIP3   OH229680   1.772   5.303   2.307  0.0118 -0.5351  0.0794
 2730TIP3    H129681   1.806   5.213   2.307  0.5870 -0.3318 -1.2195
 2730TIP3    H229682   1.797   5.337   2.221 -3.7383 -0.4586 -1.0675
 2731TIP3   OH229683   0.216   4.479   3.722 -0.2221  0.0465  0.3632
 2731TIP3    H129684   0.210   4.449   3.631  3.9923  1.0060 -0.3435
 2731TIP3    H229685   0.253   4.567   3.716 -1.5835  0.8759  2.9885
 2732TIP3   OH229686   1.215   2.410  12.946  0.3348  0.2123 -0.0784
 2732TIP3    H129687   1.215   2.447  12.858  0.5182  0.9168  0.2147
 2732TIP3    H229688   1.235   2.484  13.003 -2.2103  0.2731  0.7816
 2733TIP3   OH229689   5.661   1.006   4.423 -0.0505 -0.1081  0.4350
 2733TIP3    H129690   5.745   0.978   4.461 -1.4987 -3.9269  0.9993
 2733TIP3    H229691   5.600   1.004   4.497 -1.4705 -1.1000 -0.7625
 2734TIP3   OH229692   6.326   3.562   2.507  0.0991  0.7541 -0.1882
 2734TIP3    H129693   6.364   3.559   2.420 -1.2032  0.0385 -0.7506
 2734TIP3    H229694   6.303   3.654   2.520 -0.5757  0.7057 -0.9930
 2735TIP3   OH229695   4.179   2.850   6.029 -0.8607 -0.5526  0.6034
 2735TIP3    H129696   4.114   2.819   5.966 -1.9196 -1.9570  2.3316
 2735TIP3    H229697   4.190   2.777   6.091  1.9276 -0.1145  0.6961
 2736TIP3   OH229698   1.181   1.930  13.086 -0.0531 -0.1555 -0.9943
 2736TIP3    H129699   1.272   1.928  13.115 -0.3096  1.2517 -0.0462
 2736TIP3    H229700   1.175   2.007  13.030 -0.7386 -0.0372 -0.7660
 2737TIP3   OH229701   3.054   5.461  14.991 -0.3375 -0.4042 -0.7723
 2737TIP3    H129702   3.052   5.395  14.921  0.7802 -1.0406 -0.1948
 2737TIP3    H229703   3.084   5.414  15.068  1.3895  0.9906 -0.5767
 2738TIP3   OH229704   0.883   5.919  13.139  0.0245  0.4979  0.1634
 2738TIP3    H129705   0.915   5.959  13.058 -1.2347  1.0537 -0.0718
 2738TIP3    H229706   0.789   5.935  13.138  0.2214  2.1306  2.6477
 2739TIP3   OH229707   1.914   4.226   2.112  0.2937 -0.5896 -0.0949
 2739TIP3    H129708   1.824   4.228   2.145  0.1475  1.0588 -0.5329
 2739TIP3    H229709   1.917   4.299   2.049  0.4510 -3.7559 -3.9621
 2740TIP3   OH229710   4.533   1.088   2.257  0.3522  0.0719  0.7852
 2740TIP3    H129711   4.478   1.075   2.333  1.1354 -1.1328  1.1579
 2740TIP3    H229712   4.622   1.095   2.293  0.9163 -2.1097 -0.1296
 2741TIP3   OH229713   5.269   3.059   2.822  0.2831 -0.4161 -0.2371
 2741TIP3    H129714   5.277   3.057   2.917  0.2152  0.4502 -0.2029
 2741TIP3    H229715   5.288   3.150   2.799  0.9609 -0.7767 -1.1145
 2742TIP3   OH229716   3.122   1.418  15.629 -0.3879  0.3762 -0.0211
 2742TIP3    H129717   3.148   1.371  15.549  1.0941 -2.1473  1.8622
 2742TIP3    H229718   3.032   1.445  15.612 -1.4485 -3.4919 -1.1204
 2743TIP3   OH229719   3.639   6.167  11.428  0.8535 -0.2512 -0.2116
 2743TIP3    H129720   3.545   6.164  11.411  0.6967  1.5344  0.3215
 2743TIP3    H229721   3.657   6.085  11.475 -0.1679 -1.2545 -1.5092
 2744TIP3   OH229722   2.918   5.981  13.355 -0.4212  0.3648 -0.1568
 2744TIP3    H129723   2.881   6.064  13.324  0.5958  0.4598 -1.1764
 2744TIP3    H229724   2.842   5.926  13.373 -1.0983  1.4129  0.2360
 2745TIP3   OH229725   2.098   3.237   4.854 -0.1262 -0.1537 -0.4500
 2745TIP3    H129726   2.057   3.222   4.939 -0.2108  1.3531 -0.2071
 2745TIP3    H229727   2.026   3.261   4.796 -0.1400 -1.7403 -1.0916
 2746TIP3   OH229728   1.334   2.723   3.493 -0.2482 -0.2483 -0.5989
 2746TIP3    H129729   1.308   2.680   3.411  0.8673  1.3897 -1.8495
 2746TIP3    H229730   1.378   2.803   3.465 -1.4211  1.2373  1.6653
 2747TIP3   OH229731   0.880   0.709   3.338 -0.0358 -0.0836  0.0928
 2747TIP3    H129732   0.942   0.732   3.268  0.6218 -1.4818  0.1918
 2747TIP3    H229733   0.860   0.792   3.380  1.5126  0.4443 -0.1630
 2748TIP3   OH229734   0.591   5.625  11.719 -0.3769  0.1480  0.3867
 2748TIP3    H129735   0.516   5.585  11.763 -0.7526 -0.6884 -0.9705
 2748TIP3    H229736   0.653   5.553  11.706 -0.3812  0.3139 -0.6549
 2749TIP3   OH229737   3.080   0.154  11.443  0.3904 -0.1433  0.8470
 2749TIP3    H129738   3.085   0.217  11.371  2.7130 -0.5449  0.6126
 2749TIP3    H229739   3.001   0.179  11.491 -0.0830  1.3911 -0.6720
 2750TIP3   OH229740   3.606   6.402   3.992 -0.5183 -0.6031 -0.0959
 2750TIP3    H129741   3.642   6.470   3.935 -2.5515 -0.2847 -1.0317
 2750TIP3    H229742   3.657   6.324   3.971 -0.8236 -0.3303 -1.9247
 2751TIP3   OH229743   3.581   1.894  16.703 -0.0565 -0.6041  0.1677
 2751TIP3    H129744   3.507   1.897  16.764  0.5920  0.6750  0.9089
 2751TIP3    H229745   3.565   1.968  16.644  0.6435 -0.3053  0.3497
 2752TIP3   OH229746   6.242   5.236  15.849 -0.3953  0.4070  0.0845
 2752TIP3    H129747   6.237   5.323  15.809 -2.3805  0.6104  0.6954
 2752TIP3    H229748   6.151   5.205  15.850  0.0688 -0.9911  1.3492
 2753TIP3   OH229749   0.888   0.973   4.118  0.4785  0.2141  0.4807
 2753TIP3    H129750   0.809   1.024   4.105  0.2187 -0.2791  0.0724
 2753TIP3    H229751   0.867   0.887   4.080  0.4588 -0.6004  2.2953
 2754TIP3   OH229752   6.418   5.343   0.417 -0.1914  0.0044  0.2019
 2754TIP3    H129753   6.451   5.413   0.474 -1.4107  1.9060 -1.3786
 2754TIP3    H229754   6.495   5.312   0.370  0.2982  0.5466  0.6334
 2755TIP3   OH229755   6.251   1.912  13.720 -0.5746  0.4086 -0.2815
 2755TIP3    H129756   6.191   1.838  13.703  2.3310 -1.7328 -1.6470
 2755TIP3    H229757   6.251   1.961  13.637 -1.2274  1.0434  0.0838
 2756TIP3   OH229758   1.879   3.852   2.579  0.3132  0.1470 -0.1160
 2756TIP3    H129759   1.865   3.789   2.650  0.5784  1.6417  1.2805
 2756TIP3    H229760   1.842   3.809   2.502  0.1131 -1.5472  0.8913
 2757TIP3   OH229761   1.148   5.776   5.270 -0.3694  0.1509  0.6538
 2757TIP3    H129762   1.141   5.871   5.256  1.7640  0.5711  2.1184
 2757TIP3    H229763   1.103   5.760   5.353  2.1668  0.4358  2.1197
 2758TIP3   OH229764   0.962   0.646  12.703  0.6909 -0.2552  0.4274
 2758TIP3    H129765   0.987   0.731  12.667  0.2333  0.2871  1.3502
 2758TIP3    H229766   0.877   0.628  12.665  1.2919 -0.8308 -0.6387
 2759TIP3   OH229767   6.021   3.751  17.173 -0.0461 -0.5281 -0.5286
 2759TIP3    H129768   5.952   3.790  17.119  0.2007 -0.4486 -0.7831
 2759TIP3    H229769   6.100   3.801  17.152  0.5174 -1.8841 -1.6850
 2760TIP3   OH229770   0.217   1.958  11.078  0.3872 -0.6467 -0.1314
 2760TIP3    H129771   0.296   1.984  11.125  0.1378 -0.4066  0.1579
 2760TIP3    H229772   0.194   2.034  11.026 -1.6889  0.6304  2.5025
 2761TIP3   OH229773   2.902   5.142   5.427  0.0547  0.6820  0.4138
 2761TIP3    H129774   2.948   5.176   5.505  0.6439 -0.7266  0.6958
 2761TIP3    H229775   2.862   5.060   5.457 -2.3477  1.6961  0.0593
 2762TIP3   OH229776   3.781   3.679   1.900 -0.3251 -0.1106 -0.5756
 2762TIP3    H129777   3.780   3.754   1.840  0.0872  0.4762  0.1384
 2762TIP3    H229778   3.817   3.714   1.981 -2.6887 -0.3975  0.6383
 2763TIP3   OH229779   4.369   0.736   1.726 -0.3728  0.3468 -0.2496
 2763TIP3    H129780   4.449   0.705   1.769 -1.4181  0.2837  1.7256
 2763TIP3    H229781   4.356   0.675   1.654  1.2464  0.2507 -0.4945
 2764TIP3   OH229782   5.130   4.782  16.423  0.4824 -0.8129 -0.0182
 2764TIP3    H129783   5.110   4.874  16.442 -0.1685 -1.1597  0.9951
 2764TIP3    H229784   5.086   4.765  16.340 -0.1084 -0.4557  0.2237
 2765TIP3   OH229785   3.911   4.925  13.258  0.1821  0.4205 -0.0915
 2765TIP3    H129786   3.877   4.973  13.183  0.2916 -0.7896 -0.9400
 2765TIP3    H229787   3.833   4.903  13.309 -0.1112 -0.4761 -0.9049
 2766TIP3   OH229788   4.048   0.887   0.009 -0.1618 -0.4430 -0.0482
 2766TIP3    H129789   4.111   0.859  -0.058  0.6841  2.7574 -0.7010
 2766TIP3    H229790   4.088   0.966   0.047 -3.4359  1.2655 -0.0200
 2767TIP3   OH229791   3.252   3.581   0.697 -0.4744 -0.4192 -0.2511
 2767TIP3    H129792   3.209   3.519   0.639 -0.9460 -0.5868  0.2729
 2767TIP3    H229793   3.257   3.536   0.782 -0.3582  0.0571 -0.0000
 2768TIP3   OH229794   1.180   2.037   0.569  0.2126 -0.5615  0.3883
 2768TIP3    H129795   1.238   2.018   0.643  2.6635  0.1431 -1.2672
 2768TIP3    H229796   1.132   1.955   0.554 -1.0176 -0.4292  3.2939
 2769TIP3   OH229797   5.103   3.660   1.511 -0.3585 -0.1307  0.4489
 2769TIP3    H129798   5.015   3.639   1.479 -0.2813  0.0180  0.1321
 2769TIP3    H229799   5.126   3.742   1.466  0.2772 -0.6147 -0.1224
 2770TIP3   OH229800   3.273   3.843   2.189  0.0009 -0.0761 -0.2298
 2770TIP3    H129801   3.300   3.781   2.257 -2.2359 -0.1016  0.6519
 2770TIP3    H229802   3.253   3.789   2.113 -0.1790 -0.2854 -0.0338
 2771TIP3   OH229803   1.897   4.967   6.671  0.2957 -0.4205 -0.3535
 2771TIP3    H129804   1.825   4.949   6.732 -0.3477  0.2184 -0.9321
 2771TIP3    H229805   1.870   5.044   6.623  1.4880 -0.0215 -0.4021
 2772TIP3   OH229806   1.928   1.632   3.006  0.1644 -0.1262 -0.0040
 2772TIP3    H129807   1.929   1.718   2.966 -1.5482 -0.2127 -0.2859
 2772TIP3    H229808   1.934   1.571   2.932 -1.2289 -0.2622 -0.0218
 2773TIP3   OH229809   3.394   2.624   5.585 -0.0589  0.1147  0.6719
 2773TIP3    H129810   3.426   2.592   5.501 -0.8863  1.3736 -0.1314
 2773TIP3    H229811   3.389   2.546   5.640  2.3672 -0.4280  0.1831
 2774TIP3   OH229812   4.867   4.034  11.564  0.1413  0.0194 -0.6919
 2774TIP3    H129813   4.901   3.965  11.620  0.3351  2.2353  2.0087
 2774TIP3    H229814   4.772   4.028  11.574  0.2472  2.3607  2.4240
 2775TIP3   OH229815   3.062   0.022  12.591 -0.5777  0.1534  0.4144
 2775TIP3    H129816   3.101  -0.012  12.510 -3.2469 -0.9013 -0.4885
 2775TIP3    H229817   3.127   0.083  12.625  1.9335 -1.6985 -0.8854
 2776TIP3   OH229818   0.923   3.470  13.160  0.4978 -0.0238  0.2987
 2776TIP3    H129819   0.943   3.517  13.079  0.4562 -2.0334 -0.9019
 2776TIP3    H229820   0.838   3.504  13.187 -0.8933 -1.4595 -2.1339
 2777TIP3   OH229821   2.579   3.539  13.758 -0.1085 -0.7685 -0.5056
 2777TIP3    H129822   2.672   3.560  13.762 -0.1770 -0.4288 -0.6761
 2777TIP3    H229823   2.544   3.568  13.842 -0.0177 -1.1111 -0.3479
 2778TIP3   OH229824   6.480   1.246   2.968  0.1418  0.1719  0.3852
 2778TIP3    H129825   6.499   1.161   3.009 -0.0579  0.3516  0.8501
 2778TIP3    H229826   6.565   1.289   2.962  0.3368 -0.3010 -0.3999
 2779TIP3   OH229827   2.597   1.662  14.254  0.1324 -0.4349  0.0678
 2779TIP3    H129828   2.648   1.715  14.316 -0.1444  0.6105 -0.5943
 2779TIP3    H229829   2.554   1.597  14.309 -0.1357  0.5079  0.9928
 2780TIP3   OH229830   1.001   3.776  15.518 -0.5566  0.5370 -0.2374
 2780TIP3    H129831   0.930   3.804  15.576 -0.6635  2.3288 -1.2068
 2780TIP3    H229832   1.049   3.856  15.499  2.1840 -0.7653  0.9778
 2781TIP3   OH229833   6.204   0.686   2.953  0.3400  0.5242  0.2661
 2781TIP3    H129834   6.299   0.694   2.958  0.2917  0.7739  0.8236
 2781TIP3    H229835   6.182   0.620   3.019  0.0812  0.7739  0.4290
 2782TIP3   OH229836   1.056   2.664  11.488  0.4811  0.6062  0.0911
 2782TIP3    H129837   1.059   2.756  11.462  0.9240  0.5654 -0.0100
 2782TIP3    H229838   0.997   2.623  11.424 -0.4175  0.9815  0.6638
 2783TIP3   OH229839   6.746   3.725   4.000  0.2600 -0.5777  0.8666
 2783TIP3    H129840   6.805   3.675   4.056  3.0074  0.9693 -0.5560
 2783TIP3    H229841   6.738   3.810   4.044  0.1071 -0.3613  0.4267
 2784TIP3   OH229842   4.884   5.212  10.332  0.0792  0.5655 -0.3962
 2784TIP3    H129843   4.897   5.149  10.260 -2.8473  0.3336 -0.7921
 2784TIP3    H229844   4.915   5.295  10.296 -0.1240  0.1924 -1.4758
 2785TIP3   OH229845   5.437   4.793   4.346  0.6125  0.3202  0.3222
 2785TIP3    H129846   5.404   4.761   4.430 -0.8602  0.5940 -0.1242
 2785TIP3    H229847   5.384   4.747   4.281  0.8633  1.0615 -0.4151
 2786TIP3   OH229848   2.490   5.680   1.519 -0.0507 -0.4843 -0.4664
 2786TIP3    H129849   2.458   5.720   1.599  0.2675  1.4563 -1.2721
 2786TIP3    H229850   2.415   5.683   1.459  0.5424  0.6836 -1.1575
 2787TIP3   OH229851   1.617   3.347  16.578  0.1906 -0.5135 -0.0294
 2787TIP3    H129852   1.538   3.398  16.558  0.0679 -0.6700  0.0526
 2787TIP3    H229853   1.654   3.327  16.492  0.5344  0.1777 -0.0434
 2788TIP3   OH229854   1.416   6.139   5.043  0.3289 -0.3740  0.4439
 2788TIP3    H129855   1.384   6.074   5.104  0.3219 -1.1120 -0.3369
 2788TIP3    H229856   1.356   6.213   5.053 -0.9271 -1.2807 -0.1405
 2789TIP3   OH229857   2.636   5.900   5.378  0.1488  0.2381  0.6236
 2789TIP3    H129858   2.599   5.935   5.460  1.1421 -0.2003  1.2692
 2789TIP3    H229859   2.627   5.805   5.386  0.1267  0.1989  0.1548
 2790TIP3   OH229860   6.052   5.615  13.670 -0.1396  0.2714 -0.5437
 2790TIP3    H129861   6.142   5.582  13.675  0.8136  2.9068  0.3733
 2790TIP3    H229862   6.000   5.547  13.714  1.9220  0.5095  2.4091
 2791TIP3   OH229863   6.510   4.848   4.111 -0.3762 -0.5777  0.7796
 2791TIP3    H129864   6.454   4.926   4.114  0.0859  0.0882 -3.6871
 2791TIP3    H229865   6.581   4.867   4.171 -1.1337  1.7795  0.9960
 2792TIP3   OH229866   5.966   5.919  12.689 -0.1319  0.0268 -0.5677
 2792TIP3    H129867   5.887   5.923  12.635 -1.0912  0.4781  0.8234
 2792TIP3    H229868   5.933   5.913  12.779  1.4228  0.1868  0.0347
 2793TIP3   OH229869   0.894   4.802  16.133 -0.1089  0.7199 -0.1154
 2793TIP3    H129870   0.819   4.743  16.127  0.5161 -0.2003  0.9968
 2793TIP3    H229871   0.857   4.883  16.168 -0.6099  0.3337  0.2662
 2794TIP3   OH229872   5.688   1.072  15.486  0.4355 -0.0282 -0.5257
 2794TIP3    H129873   5.657   1.137  15.423 -0.3295  1.6193  1.5089
 2794TIP3    H229874   5.610   1.047  15.536  1.0217 -1.3334 -0.2277
 2795TIP3   OH229875   4.271   5.578   0.456 -0.0273  0.3669  0.2212
 2795TIP3    H129876   4.365   5.596   0.447 -0.1231  1.3337  1.0988
 2795TIP3    H229877   4.258   5.496   0.409  1.1011  0.6796 -0.6641
 2796TIP3   OH229878   6.363   3.951  16.937  0.1716 -0.0258 -0.0253
 2796TIP3    H129879   6.380   3.860  16.915 -0.4987 -0.2424  0.3263
 2796TIP3    H229880   6.307   3.947  17.014 -0.0829  0.6813 -0.1661
 2797TIP3   OH229881   1.480   3.228  14.739  0.0641  0.0718 -0.2513
 2797TIP3    H129882   1.484   3.153  14.798 -0.3539 -0.6753 -1.1575
 2797TIP3    H229883   1.410   3.282  14.773  0.0185 -0.2096  0.1042
 2798TIP3   OH229884   1.800   5.779  16.410  0.2729 -0.3153  0.1053
 2798TIP3    H129885   1.791   5.704  16.469  0.5162  1.0751  1.9690
 2798TIP3    H229886   1.868   5.833  16.451  1.7197 -0.1760 -2.4033
 2799TIP3   OH229887   5.419   5.421  14.257 -0.4771 -0.0843 -0.5731
 2799TIP3    H129888   5.485   5.457  14.199  0.0562  0.2689  0.2357
 2799TIP3    H229889   5.363   5.495  14.279 -0.8283 -0.2705 -0.8455
 2800TIP3   OH229890   6.247   5.791   4.391  0.4955 -0.0220  0.3320
 2800TIP3    H129891   6.176   5.855   4.400  1.2223  0.8588 -0.0961
 2800TIP3    H229892   6.230   5.749   4.307 -0.1809 -0.6498  0.7729
 2801TIP3   OH229893   1.811   2.599   3.544  0.4468 -0.0838  0.8297
 2801TIP3    H129894   1.824   2.601   3.449  1.2656 -0.7507  0.9187
 2801TIP3    H229895   1.732   2.650   3.559  1.2602  1.4742 -0.0569
 2802TIP3   OH229896   6.292   2.322   0.420 -1.2463 -0.0081  0.1120
 2802TIP3    H129897   6.221   2.261   0.399 -1.3412  0.9291 -2.4912
 2802TIP3    H229898   6.278   2.396   0.360  1.4714  0.5460  0.0955
 2803TIP3   OH229899   5.397   0.448   5.451 -0.4536  0.0395 -0.4799
 2803TIP3    H129900   5.303   0.440   5.468 -0.0549 -1.2126  1.1938
 2803TIP3    H229901   5.412   0.389   5.377 -0.9237 -0.0255 -0.5293
 2804TIP3   OH229902   1.274   5.812  13.296  0.3257  0.7495 -0.1383
 2804TIP3    H129903   1.179   5.799  13.290  0.2027  1.4369  0.3324
 2804TIP3    H229904   1.303   5.822  13.206 -0.0209  0.3240 -0.2992
 2805TIP3   OH229905   1.381   0.613  14.361 -0.2175  0.6539  0.0474
 2805TIP3    H129906   1.395   0.662  14.280 -2.2459  0.4607 -0.4556
 2805TIP3    H229907   1.303   0.561  14.343  0.2690 -0.6239  1.5703
 2806TIP3   OH229908   1.616   2.795  15.168  0.3856  0.4054 -0.5232
 2806TIP3    H129909   1.626   2.889  15.184 -0.3133  0.1682  1.4421
 2806TIP3    H229910   1.656   2.781  15.082 -0.8717  2.7566 -1.5494
 2807TIP3   OH229911   5.150   3.315  15.017 -0.0462  0.2426  0.0852
 2807TIP3    H129912   5.198   3.385  14.974  0.6224 -0.0902  0.2937
 2807TIP3    H229913   5.135   3.250  14.949  2.2934 -0.9558  0.6884
 2808TIP3   OH229914   5.351   2.539   5.157 -0.2231  0.1749 -0.3315
 2808TIP3    H129915   5.338   2.569   5.067  0.1936  0.3050 -0.3465
 2808TIP3    H229916   5.308   2.453   5.160  2.7406 -1.3993 -1.5918
 2809TIP3   OH229917   5.152   3.206   5.239  0.4552 -0.2897 -0.0475
 2809TIP3    H129918   5.155   3.302   5.244  0.0286 -0.1882 -1.6037
 2809TIP3    H229919   5.077   3.188   5.183 -1.0038 -1.6096  2.2362
 2810TIP3   OH229920   0.561   2.027   5.268  0.0312  0.0275  0.5247
 2810TIP3    H129921   0.472   2.061   5.269  0.2314  0.6755 -1.3414
 2810TIP3    H229922   0.559   1.952   5.327 -1.9255 -0.3747 -0.0271
 2811TIP3   OH229923   1.606   3.422   1.232 -0.1329 -0.0182 -0.2070
 2811TIP3    H129924   1.699   3.421   1.210  0.2019  0.2432  1.1380
 2811TIP3    H229925   1.588   3.335   1.268 -1.0052 -0.9382 -2.7761
 2812TIP3   OH229926   0.333   5.801   5.043 -0.2328 -0.5973  0.4008
 2812TIP3    H129927   0.403   5.745   5.075 -0.5564 -1.8755 -1.0995
 2812TIP3    H229928   0.359   5.825   4.954 -0.0836  1.6782  1.0301
 2813TIP3   OH229929   1.072   5.184   5.553  0.3855  1.0398 -0.2429
 2813TIP3    H129930   1.124   5.167   5.632  1.0146 -1.1975 -1.1069
 2813TIP3    H229931   0.983   5.198   5.586  0.7910  0.9281  0.9314
 2814TIP3   OH229932   4.777   4.978   1.523  0.0619 -0.1881 -0.2416
 2814TIP3    H129933   4.870   4.965   1.509 -0.0478 -1.1073 -0.1090
 2814TIP3    H229934   4.763   4.956   1.615 -0.1689  0.6159 -0.0754
 2815TIP3   OH229935   4.660   5.752  10.358  0.2607  0.2182  0.5245
 2815TIP3    H129936   4.564   5.749  10.353  0.2061  0.0460  1.4693
 2815TIP3    H229937   4.681   5.845  10.344  0.0978 -0.0393 -1.5737
 2816TIP3   OH229938   6.389   1.997   1.035 -0.1932 -0.6796  0.6175
 2816TIP3    H129939   6.318   2.031   1.089 -0.5194  0.5799 -0.5868
 2816TIP3    H229940   6.360   1.910   1.009 -1.9206  0.3505 -0.9850
 2817TIP3   OH229941   2.436   5.366   1.105  0.1590  0.2623  0.1768
 2817TIP3    H129942   2.378   5.358   1.181 -0.1388 -1.5187 -0.2090
 2817TIP3    H229943   2.376   5.369   1.030  0.5415 -2.1922 -0.2701
 2818TIP3   OH229944   6.101   4.125  12.333  0.1275 -0.3592  0.0560
 2818TIP3    H129945   6.191   4.101  12.354  0.0055 -1.2583 -0.4300
 2818TIP3    H229946   6.051   4.044  12.342 -0.4578 -0.0932 -0.6812
 2819TIP3   OH229947   6.395   6.459   4.719 -0.2900  0.2594 -0.1706
 2819TIP3    H129948   6.353   6.481   4.636  0.8168 -0.0619 -0.8303
 2819TIP3    H229949   6.388   6.538   4.772 -1.7217  0.1991 -0.2653
 2820TIP3   OH229950   3.238   2.782   0.207  0.7747 -0.8565 -0.3887
 2820TIP3    H129951   3.319   2.831   0.226 -0.0249 -0.0016  0.8674
 2820TIP3    H229952   3.216   2.807   0.117  0.7920  0.5073 -0.0247
 2821TIP3   OH229953   4.455   2.281  13.582  0.2079  0.5561 -0.4360
 2821TIP3    H129954   4.384   2.330  13.624 -1.2396 -1.5824 -0.3213
 2821TIP3    H229955   4.470   2.325  13.499 -1.6226  0.7154 -0.6847
 2822TIP3   OH229956   3.395   2.010   4.993  0.4173  0.1064  0.2657
 2822TIP3    H129957   3.354   1.996   4.907  1.6107 -0.5740 -0.1932
 2822TIP3    H229958   3.487   1.990   4.979  0.7483  0.7588  1.5297
 2823TIP3   OH229959   3.870   5.324  13.137  0.1542  0.5155  0.2640
 2823TIP3    H129960   3.897   5.253  13.079  0.3257 -1.4661  2.6556
 2823TIP3    H229961   3.775   5.313  13.146  0.6302 -1.6267  3.3476
 2824TIP3   OH229962   1.503   6.388  11.460 -0.0284 -0.2032  0.6743
 2824TIP3    H129963   1.520   6.307  11.508  0.4070 -0.3521  0.2588
 2824TIP3    H229964   1.450   6.361  11.385 -1.4537  0.1482  1.5334
 2825TIP3   OH229965   0.873   3.650  10.424 -0.2692  0.4502 -0.1108
 2825TIP3    H129966   0.959   3.623  10.455 -0.3885  0.7168  0.4599
 2825TIP3    H229967   0.869   3.618  10.334 -0.5182 -1.7292  0.6331
 2826TIP3   OH229968   2.910   5.502   1.055  0.4301 -0.5961 -0.2976
 2826TIP3    H129969   2.843   5.468   0.996 -0.1232 -0.2342  0.1179
 2826TIP3    H229970   2.886   5.594   1.068  2.1829  0.1033 -1.7887
 2827TIP3   OH229971   0.711   6.765  16.224 -0.3486  0.4421 -0.3990
 2827TIP3    H129972   0.673   6.691  16.270 -0.9808  0.6467 -0.5837
 2827TIP3    H229973   0.650   6.783  16.152  0.3911  0.4145 -1.0430
 2828TIP3   OH229974   1.785   3.383   0.904 -0.0100 -0.0461 -0.1191
 2828TIP3    H129975   1.722   3.337   0.960  1.0190 -0.5454  0.6615
 2828TIP3    H229976   1.821   3.314   0.848  1.0231 -0.0836  0.5676
 2829TIP3   OH229977   2.100   4.966   0.400  0.3980  0.4277 -0.0624
 2829TIP3    H129978   2.165   4.914   0.353  0.6583 -0.9592  1.7883
 2829TIP3    H229979   2.034   4.987   0.333 -0.0635 -2.8709 -0.7552
 2830TIP3   OH229980   3.870   4.450   4.521 -0.0736  0.0317 -0.5258
 2830TIP3    H129981   3.901   4.411   4.603 -0.0348  0.2512 -0.4363
 2830TIP3    H229982   3.789   4.494   4.545  0.1376  0.4215 -0.5274
 2831TIP3   OH229983   0.425   6.160   1.993  0.0500 -0.2451  0.2494
 2831TIP3    H129984   0.493   6.202   1.940 -0.9952  2.1241  0.6951
 2831TIP3    H229985   0.343   6.185   1.950 -0.6121 -1.8598  0.5550
 2832TIP3   OH229986   0.769   6.449   3.286 -0.0965  0.0185 -0.4076
 2832TIP3    H129987   0.716   6.483   3.358 -0.3737 -0.0478 -0.5786
 2832TIP3    H229988   0.859   6.461   3.314 -0.2112 -1.5213  0.6602
 2833TIP3   OH229989   2.253   6.559  15.071 -0.2907 -0.9148 -0.2189
 2833TIP3    H129990   2.245   6.618  14.996  1.8158 -1.5478 -0.9800
 2833TIP3    H229991   2.347   6.549  15.084 -0.5954 -3.7942  0.1480
 2834TIP3   OH229992   2.328   4.786   5.535 -0.6627  0.1798 -0.0801
 2834TIP3    H129993   2.378   4.705   5.530 -0.9664  0.1087 -2.4583
 2834TIP3    H229994   2.393   4.855   5.516 -0.3001  0.5698  2.3942
 2835TIP3   OH229995   1.382   4.162   4.994 -0.0514 -0.4100 -0.4434
 2835TIP3    H129996   1.392   4.136   4.903  1.4852  1.4559 -0.8465
 2835TIP3    H229997   1.358   4.255   4.990  1.5617  0.1001  1.0545
 2836TIP3   OH229998   6.259   5.215  12.601 -0.1248  0.0771 -0.0262
 2836TIP3    H129999   6.308   5.294  12.579 -0.2482 -0.3775 -2.0361
 2836TIP3    H230000   6.176   5.224  12.554  0.5594 -2.0412 -1.7608
 2837TIP3   OH230001   2.154   6.424   0.650 -0.3514  0.1831  0.2672
 2837TIP3    H130002   2.060   6.437   0.644 -0.2236  0.5847 -1.0768
 2837TIP3    H230003   2.190   6.513   0.657 -0.0705  0.0283  0.8500
 2838TIP3   OH230004   3.170   0.293  12.210  0.0197  0.0691 -0.1683
 2838TIP3    H130005   3.247   0.237  12.199  0.5325  1.1019 -2.1465
 2838TIP3    H230006   3.206   0.380  12.229 -0.6849  0.3344 -0.0266
 2839TIP3   OH230007   6.773   4.941  12.743  0.0066  0.3895 -0.1831
 2839TIP3    H130008   6.682   4.932  12.714 -0.2019  2.3315 -0.1918
 2839TIP3    H230009   6.797   4.853  12.772 -2.2184  0.0605  0.8280
 2840TIP3   OH230010   4.990   4.743  15.412 -0.2469  0.5812 -0.0181
 2840TIP3    H130011   4.973   4.711  15.323  0.4610  0.3729 -0.0842
 2840TIP3    H230012   5.086   4.751  15.416 -0.2018 -0.4628  1.0890
 2841TIP3   OH230013   5.849   0.402   3.361  0.8631  0.4310 -0.1542
 2841TIP3    H130014   5.886   0.490   3.370 -1.6105  1.4818  0.1235
 2841TIP3    H230015   5.772   0.403   3.417  0.6970 -1.8709 -0.3236
 2842TIP3   OH230016   4.056   0.425   0.782 -0.6706  0.9109 -0.4846
 2842TIP3    H130017   4.052   0.477   0.701  1.5688  1.0991 -0.5161
 2842TIP3    H230018   4.098   0.343   0.755 -0.8718  0.5525  0.2829
 2843TIP3   OH230019   3.144   4.354   1.915  0.0504  0.6734 -0.0999
 2843TIP3    H130020   3.057   4.320   1.936  0.1477  1.1552  1.1741
 2843TIP3    H230021   3.132   4.449   1.909 -0.0497  0.5326 -2.7549
 2844TIP3   OH230022   1.685   4.499   5.873 -0.1589  0.0769 -0.1989
 2844TIP3    H130023   1.611   4.487   5.813 -2.0037 -1.8876  2.3547
 2844TIP3    H230024   1.669   4.585   5.912 -1.3060 -0.4664  0.5668
 2845TIP3   OH230025   4.368   3.880   0.749  0.1491 -0.4010  0.1399
 2845TIP3    H130026   4.277   3.877   0.721  0.1363  0.9611  0.0028
 2845TIP3    H230027   4.369   3.839   0.835 -0.7176  0.2354  0.4545
 2846TIP3   OH230028   3.347   0.318   2.987  0.0151 -0.0212  0.0955
 2846TIP3    H130029   3.271   0.263   3.006  0.5960 -0.5214  1.0046
 2846TIP3    H230030   3.337   0.341   2.894 -2.7570  2.2814  0.9043
 2847TIP3   OH230031   3.448   2.337  14.986  0.0503  0.0008  0.1598
 2847TIP3    H130032   3.506   2.281  14.936 -0.7233  0.3729 -1.1831
 2847TIP3    H230033   3.407   2.279  15.051 -0.2677 -0.8602 -0.8003
 2848TIP3   OH230034   2.294   2.960   4.381 -0.2515  0.3623 -0.1361
 2848TIP3    H130035   2.276   2.935   4.472  2.4420 -0.2388  0.2803
 2848TIP3    H230036   2.285   2.879   4.331 -1.5905  0.6645 -0.4052
 2849TIP3   OH230037   5.927   4.120  11.268 -0.8011 -0.6630  0.0670
 2849TIP3    H130038   6.014   4.146  11.295 -0.5478 -0.5544 -0.8173
 2849TIP3    H230039   5.908   4.042  11.319 -0.0541 -0.8766  0.0207
 2850TIP3   OH230040   2.867   2.463   5.112  0.5717  0.7374  0.2983
 2850TIP3    H130041   2.859   2.528   5.182  0.3679 -0.0087  0.9796
 2850TIP3    H230042   2.943   2.490   5.062  1.7661  0.3156  1.8452
 2851TIP3   OH230043   2.355   2.516  11.417  0.3179 -0.0470  0.4968
 2851TIP3    H130044   2.447   2.502  11.397  0.9670  2.9619  1.2296
 2851TIP3    H230045   2.318   2.553  11.336 -0.0157 -0.2456  0.5562
 2852TIP3   OH230046   1.641   5.632  10.817  0.3867  0.1126  0.3680
 2852TIP3    H130047   1.613   5.583  10.740 -0.4841 -0.3865  0.9859
 2852TIP3    H230048   1.729   5.663  10.796 -0.2506  0.8842 -1.2464
 2853TIP3   OH230049   0.861   0.301  16.181  0.2511 -0.6881  0.2061
 2853TIP3    H130050   0.826   0.352  16.108  0.2544 -0.6395  0.2372
 2853TIP3    H230051   0.790   0.240  16.204  0.4331 -1.0436 -0.1678
 2854TIP3   OH230052   1.065   3.333  16.988  0.1401  0.5148 -0.1515
 2854TIP3    H130053   1.090   3.241  16.995  1.1186  0.8297  0.5988
 2854TIP3    H230054   1.142   3.376  16.951  0.8100  1.5202  2.3478
 2855TIP3   OH230055   0.823   4.395  10.840 -0.1603 -0.6834  0.5702
 2855TIP3    H130056   0.911   4.358  10.834 -1.0513 -2.8779  0.4836
 2855TIP3    H230057   0.765   4.320  10.827 -2.0653  1.2662 -2.9470
 2856TIP3   OH230058   0.546   5.772   4.225  0.3300  0.5271  0.1164
 2856TIP3    H130059   0.631   5.797   4.262 -0.3847  1.0800  1.4219
 2856TIP3    H230060   0.491   5.850   4.236  0.1165  0.7505 -2.2186
 2857TIP3   OH230061   5.633   6.763  11.179  1.1740 -0.0619  0.4582
 2857TIP3    H130062   5.688   6.761  11.102  0.2048 -0.2710 -0.2374
 2857TIP3    H230063   5.626   6.671  11.207  0.6343 -0.1207  0.1437
 2858TIP3   OH230064   4.142   6.036   1.526  0.3132 -0.0246  0.2097
 2858TIP3    H130065   4.161   6.120   1.483  0.6378  1.0146  2.3100
 2858TIP3    H230066   4.161   6.052   1.618 -0.3825 -2.1978  0.7487
 2859TIP3   OH230067   2.640   3.138   5.833  0.5855 -0.0061  0.0901
 2859TIP3    H130068   2.722   3.092   5.850  1.1645  1.3743  1.1568
 2859TIP3    H230069   2.625   3.127   5.739  1.5800 -0.9246  0.0330
 2860TIP3   OH230070   3.872   0.074   5.531  0.0461  0.2662 -0.0818
 2860TIP3    H130071   3.799   0.012   5.532 -0.6617  1.0765 -0.3297
 2860TIP3    H230072   3.876   0.107   5.621 -1.0506  1.5403 -0.4923
 2861TIP3   OH230073   2.573   0.071   1.538 -0.3475 -0.1668 -0.0581
 2861TIP3    H130074   2.656   0.026   1.557  0.0334  0.5396 -0.0354
 2861TIP3    H230075   2.573   0.081   1.442 -0.6662 -0.6643 -0.1100
 2862TIP3   OH230076   5.449   6.054   5.727 -0.6322  0.1745 -0.1474
 2862TIP3    H130077   5.519   6.105   5.686  0.0025 -0.4275  0.1763
 2862TIP3    H230078   5.482   5.964   5.728 -2.2946 -0.4827 -1.9183
 2863TIP3   OH230079   4.193   5.929   4.774 -1.0259 -0.2938  0.0787
 2863TIP3    H130080   4.159   6.017   4.791  0.7720  0.3609  0.4457
 2863TIP3    H230081   4.284   5.933   4.803 -0.9131 -2.2789  0.0737
 2864TIP3   OH230082   1.143   6.539   1.368 -0.3963 -0.0293 -0.2024
 2864TIP3    H130083   1.213   6.544   1.433 -0.2571 -0.5220 -0.3076
 2864TIP3    H230084   1.187   6.510   1.288 -0.7253 -0.3759 -0.2607
 2865TIP3   OH230085   2.510   5.714  12.772 -0.2528  0.7387 -0.5097
 2865TIP3    H130086   2.421   5.688  12.797 -0.1326 -0.1725 -1.0110
 2865TIP3    H230087   2.508   5.810  12.775 -0.8092  0.6990  0.9854
 2866TIP3   OH230088   0.736   3.934  13.094 -0.0378 -0.1011  0.5615
 2866TIP3    H130089   0.760   3.929  13.187 -1.0391  0.4424  0.8544
 2866TIP3    H230090   0.815   3.967  13.051  0.1920  0.3676  1.3256
 2867TIP3   OH230091   5.592   3.382  15.181  0.7622  0.3041 -0.3551
 2867TIP3    H130092   5.558   3.352  15.096 -1.6183 -0.0721  0.6859
 2867TIP3    H230093   5.522   3.437  15.216  0.4762 -1.8480  2.6086
 2868TIP3   OH230094   4.113   1.273  11.263  0.2307  0.0853 -0.3078
 2868TIP3    H130095   4.055   1.317  11.201 -0.6186  0.2794  0.6261
 2868TIP3    H230096   4.057   1.210  11.308  0.8695 -0.1204  0.2021
 2869TIP3   OH230097   1.623   6.494  11.032  0.7559 -0.1284 -0.5165
 2869TIP3    H130098   1.576   6.497  10.948 -1.1075 -1.1011  0.4593
 2869TIP3    H230099   1.571   6.550  11.090  0.3395 -1.8259  0.7971
 2870TIP3   OH230100   5.745   4.377  15.336  0.1395  0.7361  0.1283
 2870TIP3    H130101   5.735   4.443  15.405  1.2019 -0.5686  1.5474
 2870TIP3    H230102   5.839   4.376  15.318  0.2876 -1.2262  0.9540
 2871TIP3   OH230103   5.013   1.640  16.944 -0.0792  0.5746  0.1536
 2871TIP3    H130104   5.056   1.609  16.864 -1.8912 -1.4633 -0.0786
 2871TIP3    H230105   5.084   1.649  17.007  0.9839 -0.7659 -0.8154
 2872TIP3   OH230106   1.901   5.720  10.758 -0.0964  0.6515 -0.3974
 2872TIP3    H130107   1.909   5.815  10.773 -0.1218  0.8563 -1.6991
 2872TIP3    H230108   1.944   5.705  10.675 -0.2394 -0.4728 -0.2750
 2873TIP3   OH230109   3.648   6.201   0.056  0.4159  0.0753  0.0870
 2873TIP3    H130110   3.630   6.284   0.099 -0.9050 -0.0023 -0.2982
 2873TIP3    H230111   3.631   6.135   0.122 -0.3201  0.0230 -0.1514
 2874TIP3   OH230112   6.746   0.580   2.153 -0.0514 -0.2237  0.2849
 2874TIP3    H130113   6.719   0.499   2.197  1.4953 -1.1655 -0.4260
 2874TIP3    H230114   6.676   0.642   2.171 -0.9756 -1.5441  1.3668
 2875TIP3   OH230115   4.521   0.867  13.230 -0.1465 -0.4201  0.1137
 2875TIP3    H130116   4.605   0.904  13.203  0.9862 -2.1388  1.1660
 2875TIP3    H230117   4.473   0.940  13.267  1.6647  0.2088  1.2936
 2876TIP3   OH230118   2.695   1.862   4.494 -0.4357  0.2197  0.7734
 2876TIP3    H130119   2.736   1.840   4.578 -0.2781  0.5758  0.7928
 2876TIP3    H230120   2.607   1.825   4.499 -0.1507 -0.4612  0.7769
 2877TIP3   OH230121   2.782   5.584   4.786 -0.1281 -0.0771  0.1838
 2877TIP3    H130122   2.859   5.623   4.827  0.1664 -1.2077  0.7134
 2877TIP3    H230123   2.818   5.514   4.732 -0.7679 -0.4174  0.2078
 2878TIP3   OH230124   3.432   2.039   1.729 -0.3243 -0.1758 -0.3750
 2878TIP3    H130125   3.407   1.955   1.689 -0.1658 -1.3503  1.8750
 2878TIP3    H230126   3.526   2.030   1.746 -0.6233 -0.2146  1.3538
 2879TIP3   OH230127   3.152   3.148   0.265  0.0634  0.7927  0.3693
 2879TIP3    H130128   3.247   3.161   0.266  0.6308 -2.8813 -0.4617
 2879TIP3    H230129   3.131   3.121   0.354 -0.2279  1.6210  0.5568
 2880TIP3   OH230130   0.342   3.351   1.612 -0.6391  0.3525  0.5519
 2880TIP3    H130131   0.256   3.357   1.653 -0.4902  0.7057  0.8076
 2880TIP3    H230132   0.327   3.298   1.533 -1.3979  1.7492 -0.2632
 2881TIP3   OH230133   4.795   4.855  10.974 -0.4263  0.2659  0.5173
 2881TIP3    H130134   4.742   4.847  10.895  1.6747  2.7680 -1.2067
 2881TIP3    H230135   4.881   4.821  10.948  1.4026  4.6072  0.4698
 2882TIP3   OH230136   6.292   5.976   5.263  0.2761  0.3402 -0.2176
 2882TIP3    H130137   6.271   5.949   5.174  0.2680  2.4554 -0.8866
 2882TIP3    H230138   6.210   6.014   5.296 -0.0471 -1.4397  1.1092
 2883TIP3   OH230139   5.565   0.207   4.081  0.2507  0.1388 -0.1869
 2883TIP3    H130140   5.471   0.193   4.069  0.3568  0.3517 -1.3440
 2883TIP3    H230141   5.602   0.120   4.090  0.0423  0.0136 -0.5378
 2884TIP3   OH230142   0.097   4.744  13.336 -0.2842 -0.6893 -0.5738
 2884TIP3    H130143   0.099   4.747  13.432  0.1491 -1.4274 -0.5567
 2884TIP3    H230144   0.005   4.750  13.313 -0.5892 -2.8097 -0.0241
 2885TIP3   OH230145   5.072   4.423  11.326  0.0240 -0.0889  0.4515
 2885TIP3    H130146   5.124   4.473  11.389 -0.0381 -0.5934  0.9167
 2885TIP3    H230147   5.019   4.488  11.280  2.3772  0.6536 -1.3013
 2886TIP3   OH230148   4.769   1.672  11.212  0.1900 -0.1346 -0.4662
 2886TIP3    H130149   4.780   1.674  11.307 -1.9186  1.2238 -0.2092
 2886TIP3    H230150   4.709   1.744  11.193 -2.1222 -2.4606 -2.4613
 2887TIP3   OH230151   1.129   5.137   4.106 -0.2276 -0.7455  0.4704
 2887TIP3    H130152   1.204   5.141   4.164  0.1466  3.0889 -0.1947
 2887TIP3    H230153   1.059   5.183   4.152 -0.3957  0.9124 -1.3478
 2888TIP3   OH230154   3.294   2.276  10.618  0.0230  0.0559 -0.8726
 2888TIP3    H130155   3.264   2.186  10.628 -1.0654  0.6428  1.5025
 2888TIP3    H230156   3.373   2.280  10.672 -0.9480  0.9664  0.5199
 2889TIP3   OH230157   5.062   4.807  10.863  0.1514  0.2300 -0.2380
 2889TIP3    H130158   5.135   4.752  10.834  0.8201  1.7276 -1.4673
 2889TIP3    H230159   5.042   4.862  10.787 -0.7462  1.4337  0.8451
 2890TIP3   OH230160   2.296   4.041  14.466  0.1286 -0.1437 -0.2233
 2890TIP3    H130161   2.272   4.131  14.445 -1.2960  0.1653  2.5149
 2890TIP3    H230162   2.383   4.048  14.507  1.0305 -0.3023 -2.0433
 2891TIP3   OH230163   6.285   1.720   0.266 -0.1183  0.1289  0.8502
 2891TIP3    H130164   6.381   1.721   0.265 -0.0702 -1.4993 -1.7365
 2891TIP3    H230165   6.260   1.776   0.192 -1.1197 -0.8780  0.4242
 2892TIP3   OH230166   4.807   0.508  13.937  0.0584  0.5811 -0.3906
 2892TIP3    H130167   4.770   0.560  14.008  0.9640  1.7357 -0.7367
 2892TIP3    H230168   4.737   0.502  13.872 -0.5319  0.1261  0.2835
 2893TIP3   OH230169   2.420   2.820  13.575 -0.6089  0.0613 -0.0762
 2893TIP3    H130170   2.446   2.880  13.645 -0.7905  1.1022 -0.8859
 2893TIP3    H230171   2.326   2.807  13.588 -0.6121  0.1253 -0.0331
 2894TIP3   OH230172   1.253   5.348   5.904 -0.1103 -0.2133  0.6214
 2894TIP3    H130173   1.330   5.356   5.848 -1.2576 -0.7152 -1.0638
 2894TIP3    H230174   1.214   5.264   5.879 -0.6811 -0.4208  2.1428
 2895TIP3   OH230175   5.121   4.205  11.463 -0.3797 -0.0981  0.1220
 2895TIP3    H130176   5.075   4.276  11.419 -1.6176 -0.6107  0.5623
 2895TIP3    H230177   5.089   4.207  11.553 -0.0238 -0.8641  0.2732
 2896TIP3   OH230178   2.018   3.178  12.583 -0.4683 -0.3972  0.3646
 2896TIP3    H130179   2.048   3.245  12.644  0.6227  0.6967 -1.3075
 2896TIP3    H230180   1.936   3.146  12.620 -0.2647  0.8427  1.9402
 2897TIP3   OH230181   5.616   0.824   5.200  0.3305  0.3705  0.6351
 2897TIP3    H130182   5.688   0.874   5.162 -0.2895  1.5231  0.9188
 2897TIP3    H230183   5.591   0.762   5.132  0.1418  1.4804 -0.3411
 2898TIP3   OH230184   4.307   6.550  15.224  0.0520 -0.2648 -0.1988
 2898TIP3    H130185   4.377   6.494  15.192 -0.8563 -1.4928 -0.0819
 2898TIP3    H230186   4.344   6.595  15.300  1.0223 -0.1342 -0.7426
 2899TIP3   OH230187   4.660   3.279  16.552 -0.1084  0.3470  0.2330
 2899TIP3    H130188   4.667   3.321  16.467  2.7025 -1.0114 -0.2415
 2899TIP3    H230189   4.665   3.351  16.615  1.0374  1.0711 -0.6692
 2900TIP3   OH230190   5.849   0.700   1.823  0.3951  0.5370 -0.3793
 2900TIP3    H130191   5.868   0.794   1.825 -1.5151  0.9377  0.2071
 2900TIP3    H230192   5.757   0.695   1.797  1.2679 -1.3049 -3.3591
 2901TIP3   OH230193   1.181   6.226   1.247 -0.7433 -0.4397 -0.6175
 2901TIP3    H130194   1.191   6.131   1.255 -0.2755 -0.3879 -0.5582
 2901TIP3    H230195   1.112   6.248   1.310 -0.5434 -0.6841 -0.3079
 2902TIP3   OH230196   5.260   0.851  11.515 -0.0098  0.3141 -0.0683
 2902TIP3    H130197   5.176   0.865  11.559 -0.8687 -0.6345 -1.3844
 2902TIP3    H230198   5.238   0.808  11.433  1.8092 -0.3666 -0.2314
 2903TIP3   OH230199   3.132   3.198  13.059 -0.4625  0.0377  0.1746
 2903TIP3    H130200   3.103   3.111  13.031 -0.9250  0.0593  0.5948
 2903TIP3    H230201   3.191   3.226  12.989  0.8532 -1.2365  0.7415
 2904TIP3   OH230202   4.956   1.201   5.098  0.2058  0.2443 -0.3945
 2904TIP3    H130203   4.916   1.115   5.083 -0.8498  0.4877  0.9684
 2904TIP3    H230204   5.000   1.221   5.016  0.4528 -1.5978 -0.7388
 2905TIP3   OH230205   4.730   1.597   1.438 -0.2828  0.3339  0.3303
 2905TIP3    H130206   4.789   1.541   1.488  1.8340  1.3626 -0.9632
 2905TIP3    H230207   4.781   1.676   1.418 -1.0237 -0.0137 -3.4097
 2906TIP3   OH230208   4.443   1.742  10.974 -0.5480 -1.0620 -0.0172
 2906TIP3    H130209   4.522   1.790  10.947 -0.2321 -2.2503 -1.2758
 2906TIP3    H230210   4.371   1.804  10.961  0.0733 -0.2852  0.2271
 2907TIP3   OH230211   4.580   2.596  15.442  0.4923 -0.6876 -0.3115
 2907TIP3    H130212   4.609   2.617  15.530  1.3905 -0.3586 -0.6811
 2907TIP3    H230213   4.511   2.531  15.454  2.0009 -2.1735  0.5545
 2908TIP3   OH230214   4.860   0.512  15.349  0.5505  0.3912 -0.2096
 2908TIP3    H130215   4.946   0.521  15.390  0.4543 -0.0023  0.0798
 2908TIP3    H230216   4.814   0.449  15.404  0.9980 -1.4078 -1.8544
 2909TIP3   OH230217   2.320   2.931   1.859  0.4981  0.2450  0.2886
 2909TIP3    H130218   2.370   2.923   1.778  0.8080  1.9855  0.2761
 2909TIP3    H230219   2.311   2.842   1.892  2.2513 -0.2378 -0.5279
 2910TIP3   OH230220   6.573   3.472   4.897 -0.4064 -0.1026 -0.0079
 2910TIP3    H130221   6.563   3.567   4.891  1.0160  0.1582  1.6327
 2910TIP3    H230222   6.636   3.458   4.967  1.7857 -2.1381 -2.2823
 2911TIP3   OH230223   0.231   5.902   4.265  0.1360  0.3213  0.6614
 2911TIP3    H130224   0.139   5.923   4.250  0.1609  0.0378  0.0609
 2911TIP3    H230225   0.230   5.835   4.333 -0.1824 -0.4830 -0.1123
 2912TIP3   OH230226   0.040   0.948  13.571 -0.1205  0.2647  0.0150
 2912TIP3    H130227  -0.033   0.890  13.550  0.1503  0.3125 -1.1174
 2912TIP3    H230228   0.114   0.888  13.588  0.2052  0.2665 -1.3315
 2913TIP3   OH230229   3.799   1.055   2.784 -0.2822 -1.2489  0.5554
 2913TIP3    H130230   3.813   0.961   2.769 -0.0454 -1.3687  1.4807
 2913TIP3    H230231   3.885   1.087   2.813 -0.9204 -1.2028  2.4539
 2914TIP3   OH230232   4.237   3.164  15.980  0.4114 -0.3734  0.1505
 2914TIP3    H130233   4.292   3.184  15.905  2.4314  0.7237  1.8702
 2914TIP3    H230234   4.255   3.071  15.999 -0.1182 -0.6561 -0.7148
 2915TIP3   OH230235   4.053   4.572  16.571 -0.0893 -0.0452 -0.0704
 2915TIP3    H130236   4.053   4.573  16.475  0.2031 -0.1606 -0.0748
 2915TIP3    H230237   4.068   4.663  16.596  0.9017 -0.1757 -0.1535
 2916TIP3   OH230238   5.184   4.308  12.533  0.2137  0.1265  0.3626
 2916TIP3    H130239   5.116   4.293  12.467  0.6851 -2.1415  0.3393
 2916TIP3    H230240   5.136   4.334  12.612 -0.5134  0.5999 -0.2221
 2917TIP3   OH230241   3.960   2.807  11.619  0.3460 -0.2616  0.3546
 2917TIP3    H130242   3.890   2.770  11.565  0.6405 -0.0643 -0.1665
 2917TIP3    H230243   3.980   2.891  11.578  2.6762 -1.4509 -1.0609
 2918TIP3   OH230244   2.662   5.176  13.307  0.5360  0.1363 -0.1544
 2918TIP3    H130245   2.624   5.154  13.222  2.4988  0.8490 -1.2521
 2918TIP3    H230246   2.725   5.245  13.288  1.1307  0.1963  1.8688
 2919TIP3   OH230247   5.480   6.246  15.800 -0.3408  0.1080 -0.5186
 2919TIP3    H130248   5.410   6.300  15.838 -0.8505 -0.6783 -0.3389
 2919TIP3    H230249   5.526   6.211  15.877 -0.8754 -0.8366 -0.6219
 2920TIP3   OH230250   0.008   0.595  12.202 -0.6496 -0.4441  0.7635
 2920TIP3    H130251  -0.055   0.667  12.192  0.1391  0.3540  1.4544
 2920TIP3    H230252   0.032   0.572  12.112 -0.6204  0.4110  0.5483
 2921TIP3   OH230253   1.252   6.357   2.482 -0.9189 -0.3735 -0.3757
 2921TIP3    H130254   1.195   6.422   2.440 -1.0903  1.4990  2.5881
 2921TIP3    H230255   1.195   6.282   2.497 -1.3079 -0.3917 -1.8082
 2922TIP3   OH230256   6.742   4.750   0.418  0.2254 -0.2044  0.1548
 2922TIP3    H130257   6.684   4.755   0.342  0.5801  2.0013  0.0007
 2922TIP3    H230258   6.796   4.829   0.412  1.5425 -0.9743  1.6699
 2923TIP3   OH230259   4.003   0.277  13.403  0.8348 -0.5809 -0.1118
 2923TIP3    H130260   3.948   0.207  13.367 -0.9263  0.4352  0.5562
 2923TIP3    H230261   4.073   0.288  13.339  0.6915 -2.4199 -0.5998
 2924TIP3   OH230262   6.816   3.504   5.071 -0.3504 -0.1882  0.0299
 2924TIP3    H130263   6.880   3.575   5.068 -0.5394 -0.0678 -1.5164
 2924TIP3    H230264   6.855   3.434   5.017 -1.2626 -0.3320 -0.4472
 2925TIP3   OH230265   5.180   0.337  12.513  0.6248  0.3754  0.5498
 2925TIP3    H130266   5.158   0.410  12.571  1.4804  0.7107  0.4502
 2925TIP3    H230267   5.176   0.374  12.425 -1.8683 -0.4204  0.2788
 2926TIP3   OH230268   1.479   4.971   0.656  0.1304  0.7371 -0.2557
 2926TIP3    H130269   1.395   4.952   0.699  0.6161  1.9691  1.2747
 2926TIP3    H230270   1.463   4.950   0.564 -1.9446  1.1765 -0.0384
 2927TIP3   OH230271   2.661   4.850   6.178  0.2812 -0.0069  0.5149
 2927TIP3    H130272   2.641   4.779   6.116  1.8645 -1.0211  1.1315
 2927TIP3    H230273   2.756   4.848   6.187  0.3051  1.9133  0.9102
 2928TIP3   OH230274   2.967   5.711  10.674  0.5452 -0.0345  0.0933
 2928TIP3    H130275   2.907   5.649  10.633  1.2929 -1.3417  0.9571
 2928TIP3    H230276   3.052   5.691  10.635  0.8134  0.3468  0.4809
 2929TIP3   OH230277   1.610   5.597   4.296 -0.5375  0.0857  0.3900
 2929TIP3    H130278   1.590   5.626   4.385  0.0318  1.4399  0.1012
 2929TIP3    H230279   1.699   5.563   4.301 -1.3464 -1.9902  0.8077
 2930TIP3   OH230280   4.260   1.695   2.732 -0.6028  0.5712  0.1432
 2930TIP3    H130281   4.295   1.634   2.797 -0.2099  1.5550  0.8706
 2930TIP3    H230282   4.227   1.639   2.662 -2.2523 -0.5699  1.7942
 2931TIP3   OH230283   0.834   0.298  11.003 -0.7291  0.3564 -0.2352
 2931TIP3    H130284   0.807   0.252  11.082  0.7657  1.9564  1.2620
 2931TIP3    H230285   0.797   0.386  11.012  2.1779  1.5976  0.3478
 2932TIP3   OH230286   1.076   1.000  16.435 -0.0453 -0.1185 -0.0900
 2932TIP3    H130287   1.011   1.070  16.446 -0.0376  0.1198 -1.4278
 2932TIP3    H230288   1.027   0.920  16.452 -0.2441  0.1566  0.6849
 2933TIP3   OH230289   5.888   3.761   4.643  0.3898  0.1200  0.7166
 2933TIP3    H130290   5.838   3.791   4.719  1.7469 -0.9424  2.0642
 2933TIP3    H230291   5.868   3.668   4.636 -2.0931  0.7942 -2.1034
 2934TIP3   OH230292   4.828   5.742   1.251 -0.0323 -0.0542  0.4399
 2934TIP3    H130293   4.914   5.725   1.289  0.1532 -0.0648  0.0177
 2934TIP3    H230294   4.847   5.784   1.167 -0.4259 -1.0132 -0.1304
 2935TIP3   OH230295   3.643   2.697  11.740  0.3650  0.0574  0.1616
 2935TIP3    H130296   3.712   2.656  11.688 -1.9538 -3.0008 -0.7151
 2935TIP3    H230297   3.628   2.635  11.812 -1.2067  0.8249  0.5146
 2936TIP3   OH230298   3.682   3.416   2.804 -0.3416  0.2239 -0.2991
 2936TIP3    H130299   3.604   3.448   2.849 -0.2887 -2.0569  1.5549
 2936TIP3    H230300   3.671   3.320   2.804  0.4295  0.0516 -3.8025
 2937TIP3   OH230301   4.717   0.723  16.630  1.1311  0.3917 -0.0366
 2937TIP3    H130302   4.809   0.751  16.634  0.9160  1.0856 -0.0179
 2937TIP3    H230303   4.712   0.649  16.690  2.4271 -1.6923 -2.3610
 2938TIP3   OH230304   1.681   0.698   2.697  0.4380  0.0405 -0.3795
 2938TIP3    H130305   1.726   0.731   2.775  1.6275 -0.6975 -0.7348
 2938TIP3    H230306   1.746   0.642   2.654 -0.0009  0.9122 -2.2292
 2939TIP3   OH230307   0.647   5.168   0.324 -0.3956  0.1600  0.5595
 2939TIP3    H130308   0.690   5.216   0.253  0.3174 -0.0672  0.8417
 2939TIP3    H230309   0.692   5.198   0.403 -1.5998  0.8876  0.9884
 2940TIP3   OH230310   2.253   6.323  11.863 -0.7954 -0.0342  0.5877
 2940TIP3    H130311   2.325   6.303  11.924 -1.6324  0.6698  1.8165
 2940TIP3    H230312   2.287   6.296  11.777  0.6310 -0.4687  1.2670
 2941TIP3   OH230313   5.123   1.246   6.635  0.3158 -0.0989 -0.4444
 2941TIP3    H130314   5.188   1.303   6.676  0.9370  0.3324 -1.9913
 2941TIP3    H230315   5.039   1.281   6.664  0.7437 -0.6981  1.6235
 2942TIP3   OH230316   0.069   1.182  15.307 -0.3648  0.4062 -0.4368
 2942TIP3    H130317   0.133   1.142  15.249  2.0470  0.0762  2.3438
 2942TIP3    H230318   0.107   1.267  15.330 -0.9929  0.2913  1.1013
 2943TIP3   OH230319   0.700   0.692  12.946 -0.0202  0.0290  0.4505
 2943TIP3    H130320   0.755   0.758  12.988 -0.6135 -0.3226  1.7992
 2943TIP3    H230321   0.749   0.666  12.868  2.1962 -0.9667  2.1174
 2944TIP3   OH230322   2.085   5.947   6.221  0.1874  0.1701  0.6562
 2944TIP3    H130323   1.998   5.907   6.230 -0.0248  0.6108  0.5630
 2944TIP3    H230324   2.074   6.036   6.255  0.2367  0.7165 -0.7321
 2945TIP3   OH230325   1.763   2.440  12.135 -0.4608  0.2438  0.3511
 2945TIP3    H130326   1.763   2.391  12.217  1.7419  0.6649  0.6237
 2945TIP3    H230327   1.847   2.487  12.134  0.1445 -0.7606 -2.7604
 2946TIP3   OH230328   0.345   0.901   5.849  0.1001  0.6936  0.1425
 2946TIP3    H130329   0.430   0.904   5.894  0.7730 -0.4622 -1.0366
 2946TIP3    H230330   0.330   0.992   5.822  1.1239  0.8516  0.0671
 2947TIP3   OH230331   0.764   0.574  15.789 -0.1518  0.1361 -0.4427
 2947TIP3    H130332   0.820   0.512  15.837  0.3438  0.0934 -1.0688
 2947TIP3    H230333   0.776   0.657  15.836 -0.1101 -0.0303 -0.1540
 2948TIP3   OH230334   6.003   4.637   0.690 -0.8662  0.6293 -0.2083
 2948TIP3    H130335   5.934   4.646   0.756 -0.0696 -0.1078  0.7342
 2948TIP3    H230336   5.956   4.626   0.607 -1.9152 -2.2925  0.7440
 2949TIP3   OH230337   5.632   0.060  11.601  0.1942 -0.6083 -0.3267
 2949TIP3    H130338   5.609  -0.033  11.602  0.4376 -0.6729 -0.7368
 2949TIP3    H230339   5.554   0.104  11.565 -1.1444 -0.3145  2.7365
 2950TIP3   OH230340   2.079   2.492   1.492 -0.0439  0.0324  0.5988
 2950TIP3    H130341   2.000   2.541   1.516  0.7877  2.3727 -1.2438
 2950TIP3    H230342   2.140   2.508   1.565 -0.1654  0.8851  0.5270
 2951TIP3   OH230343   0.651   5.231   2.442 -0.1105 -0.8181 -0.5851
 2951TIP3    H130344   0.686   5.313   2.479  0.8858 -1.3611 -0.3070
 2951TIP3    H230345   0.571   5.215   2.492 -0.2588 -0.0577 -0.5734
 2952TIP3   OH230346   4.176   4.495  12.119  0.4188  0.5053  0.0969
 2952TIP3    H130347   4.112   4.536  12.176  0.5449  0.8804 -0.0307
 2952TIP3    H230348   4.171   4.401  12.141 -2.2454  0.1045 -1.9741
 2953TIP3   OH230349   0.721   3.817  12.118  0.1593 -0.1480 -0.7367
 2953TIP3    H130350   0.630   3.841  12.102  0.0387  0.6926  1.0685
 2953TIP3    H230351   0.720   3.721  12.122 -0.8013 -0.1034  0.1726
 2954TIP3   OH230352   5.446   0.647  11.566  0.1574  0.0583 -0.7346
 2954TIP3    H130353   5.369   0.701  11.587  0.7254  0.6505 -0.1674
 2954TIP3    H230354   5.492   0.698  11.499  2.2345  1.7068  1.8536
 2955TIP3   OH230355   0.038   6.367   4.793 -0.1892 -0.3734 -0.2897
 2955TIP3    H130356  -0.045   6.351   4.748 -1.2106  0.5383  1.2172
 2955TIP3    H230357   0.101   6.385   4.722 -1.7344  0.9571 -1.3604
 2956TIP3   OH230358   6.557   3.467  15.370 -0.1534 -0.1164  0.0522
 2956TIP3    H130359   6.494   3.402  15.401 -0.8566 -0.0924 -1.2678
 2956TIP3    H230360   6.582   3.436  15.282 -1.5318  2.0690 -1.1647
 2957TIP3   OH230361   2.179   1.324  12.284  0.3665  0.2968  0.5559
 2957TIP3    H130362   2.094   1.347  12.246  1.7070  1.4095 -1.8787
 2957TIP3    H230363   2.184   1.229  12.277 -0.3108  0.3090 -0.0912
 2958TIP3   OH230364   2.896   0.868   3.672 -0.3049  0.1740  0.4182
 2958TIP3    H130365   2.825   0.848   3.611 -0.4414 -0.4894  0.7894
 2958TIP3    H230366   2.918   0.784   3.712  1.1957  0.2232 -0.2413
 2959TIP3   OH230367   5.714   5.722  16.932  0.0369  0.4183 -0.1402
 2959TIP3    H130368   5.694   5.631  16.952  5.1920 -0.7897  0.2183
 2959TIP3    H230369   5.729   5.763  17.017 -3.8872  2.1783 -0.1687
 2960TIP3   OH230370   5.611   2.161  12.388  0.8070 -0.0751  0.0887
 2960TIP3    H130371   5.597   2.090  12.326 -1.3352  0.6238 -0.2605
 2960TIP3    H230372   5.594   2.241  12.338  0.4866  0.5570  1.1873
 2961TIP3   OH230373   2.310   2.504  11.965  0.8653  0.3650  0.3931
 2961TIP3    H130374   2.356   2.504  11.881  0.5853 -2.0391  0.1896
 2961TIP3    H230375   2.244   2.573  11.956  1.6775  1.0084 -0.8657
 2962TIP3   OH230376   2.600   0.305   1.192 -0.3214 -0.3559  0.6835
 2962TIP3    H130377   2.539   0.262   1.132 -0.0738 -1.5405  1.2518
 2962TIP3    H230378   2.575   0.397   1.191 -0.0785 -0.3022 -1.5103
 2963TIP3   OH230379   2.001   1.623  14.913  0.2863 -0.0858 -0.0571
 2963TIP3    H130380   1.985   1.635  14.819  2.1090 -1.5399 -0.5830
 2963TIP3    H230381   2.028   1.531  14.921  0.1044  0.0115  1.9075
 2964TIP3   OH230382   1.286   6.071  15.265 -0.0763  0.4495  0.3194
 2964TIP3    H130383   1.262   6.160  15.240 -0.9701 -0.0330 -0.5892
 2964TIP3    H230384   1.227   6.050  15.337 -0.2787  0.3634  0.1272
 2965TIP3   OH230385   2.398   6.373   0.520 -0.0762  0.7250 -0.0832
 2965TIP3    H130386   2.461   6.445   0.528  1.1671 -0.5069  1.4376
 2965TIP3    H230387   2.324   6.398   0.575 -0.4988  1.7132 -1.0839
 2966TIP3   OH230388   1.972   3.103   4.421  0.0414  0.0494 -0.0918
 2966TIP3    H130389   2.055   3.102   4.467 -0.0281  1.3312  0.0554
 2966TIP3    H230390   1.969   3.018   4.377  1.4896  0.0514 -0.2232
 2967TIP3   OH230391   4.208   3.493  13.371 -0.2577  0.8800  0.1753
 2967TIP3    H130392   4.118   3.480  13.341 -0.3222 -0.7797  1.0019
 2967TIP3    H230393   4.228   3.413  13.420  1.9962  0.8086 -0.8103
 2968TIP3   OH230394   2.961   5.865   3.053 -0.3772  0.2853  0.0626
 2968TIP3    H130395   3.006   5.866   2.968 -1.3655 -0.4697 -0.4898
 2968TIP3    H230396   2.972   5.775   3.084 -1.5958  0.0488 -0.1492
 2969TIP3   OH230397   5.268   4.413  16.068  0.4675 -0.3117  0.3381
 2969TIP3    H130398   5.277   4.322  16.097  0.8191 -0.2708  0.3637
 2969TIP3    H230399   5.292   4.464  16.145 -1.3941 -0.1872  0.8566
 2970TIP3   OH230400   3.339   2.856  10.930 -0.1486  0.2383  0.5887
 2970TIP3    H130401   3.245   2.869  10.936 -0.2701 -0.6378  0.6403
 2970TIP3    H230402   3.374   2.942  10.907 -0.8148  0.9492  2.1092
 2971TIP3   OH230403   1.463   5.040  15.725 -0.7840  0.3570 -0.2095
 2971TIP3    H130404   1.374   5.073  15.726 -0.3905  1.4693 -1.0623
 2971TIP3    H230405   1.511   5.096  15.787 -0.0194  1.7017 -1.9830
 2972TIP3   OH230406   6.678   1.373  12.821 -0.2382  0.7568  0.1494
 2972TIP3    H130407   6.617   1.401  12.890  0.0670 -0.2896  0.8577
 2972TIP3    H230408   6.697   1.282  12.842 -0.2548  0.3863 -1.4241
 2973TIP3   OH230409   4.773   6.241   5.580 -0.3322 -0.0677  0.0026
 2973TIP3    H130410   4.708   6.221   5.647 -0.0558  0.7497  0.5151
 2973TIP3    H230411   4.817   6.157   5.565 -0.3248 -0.2434  0.9283
 2974TIP3   OH230412   4.572   6.780  13.611  0.7085 -0.3380 -0.0075
 2974TIP3    H130413   4.481   6.750  13.613  0.7490 -0.4764 -0.3356
 2974TIP3    H230414   4.618   6.716  13.556  1.5539 -1.8229  2.3258
 2975TIP3   OH230415   5.335   6.727   0.465 -0.0779 -0.0243  0.2741
 2975TIP3    H130416   5.294   6.808   0.434  1.6512  0.2773 -1.3240
 2975TIP3    H230417   5.316   6.663   0.396 -0.8022 -0.7994  1.1788
 2976TIP3   OH230418   1.479   6.417   5.621 -0.4839  0.2337  0.0014
 2976TIP3    H130419   1.570   6.397   5.644 -0.7627 -0.4473  0.5247
 2976TIP3    H230420   1.486   6.480   5.549  0.4203 -1.1746 -1.1771
 2977TIP3   OH230421   6.565   3.196   3.527  0.2626  0.2514 -0.5011
 2977TIP3    H130422   6.601   3.126   3.473 -1.8581  0.1432 -1.8122
 2977TIP3    H230423   6.580   3.167   3.617 -0.4051 -1.8071 -1.0344
 2978TIP3   OH230424   5.559   4.724  16.116  0.2098  0.1131  0.3391
 2978TIP3    H130425   5.559   4.820  16.106  1.4594 -0.0717 -1.8599
 2978TIP3    H230426   5.538   4.692  16.028  1.3533 -1.6389  0.6886
 2979TIP3   OH230427   6.131   4.730   1.036  0.4951 -0.4177 -0.7686
 2979TIP3    H130428   6.099   4.780   0.961  2.7506 -0.6096 -1.8950
 2979TIP3    H230429   6.109   4.639   1.015  1.5522 -0.5276 -1.4594
 2980TIP3   OH230430   0.233   2.380   1.531 -0.4467  0.3491  1.0502
 2980TIP3    H130431   0.159   2.327   1.502  1.2009 -0.4441 -1.9846
 2980TIP3    H230432   0.194   2.464   1.555 -2.3276  0.0597 -0.8027
 2981TIP3   OH230433   4.574   5.609  11.195 -0.6006 -0.6801  0.8041
 2981TIP3    H130434   4.512   5.544  11.227  0.0632 -0.3859  2.7565
 2981TIP3    H230435   4.519   5.680  11.162 -1.3397 -0.2837  2.8056
 2982TIP3   OH230436   2.113   5.248   0.354  0.3134 -0.3282 -0.1767
 2982TIP3    H130437   2.202   5.259   0.388 -0.0492 -0.4427  0.8339
 2982TIP3    H230438   2.095   5.155   0.364 -0.1273 -0.2099  0.1602
 2983TIP3   OH230439   4.137   0.372   1.479  0.1372 -0.8790  0.0724
 2983TIP3    H130440   4.217   0.423   1.496 -1.1499  2.2375 -2.6122
 2983TIP3    H230441   4.168   0.297   1.428  1.5252 -0.4117  0.1841
 2984TIP3   OH230442   5.558   6.357   4.967  0.3730 -0.2134 -0.1642
 2984TIP3    H130443   5.613   6.301   4.914  0.8702 -1.5349  1.7013
 2984TIP3    H230444   5.594   6.445   4.956  1.0155 -0.6120 -1.2584
 2985TIP3   OH230445   3.874   0.868  13.005  0.6665 -0.3411  0.1505
 2985TIP3    H130446   3.807   0.926  13.040  0.8964 -0.1198  0.2244
 2985TIP3    H230447   3.954   0.893  13.051  1.1130  0.3916 -0.9880
 2986TIP3   OH230448   3.996   4.488   2.475  0.5537  0.3861  0.4373
 2986TIP3    H130449   3.984   4.559   2.411  0.1780  0.1326  0.2263
 2986TIP3    H230450   4.026   4.414   2.423 -1.8025 -0.4568  0.2284
 2987TIP3   OH230451   2.910   0.156  11.120  0.0568 -0.5823  0.5480
 2987TIP3    H130452   2.841   0.222  11.130 -0.5061 -0.6985 -2.2204
 2987TIP3    H230453   2.989   0.199  11.153 -1.4896 -0.9076  5.0007
 2988TIP3   OH230454   6.190   3.786   1.320  0.2856 -0.2081 -0.0252
 2988TIP3    H130455   6.273   3.750   1.289 -0.6997 -3.7071  1.1137
 2988TIP3    H230456   6.157   3.838   1.247  2.3952 -0.6395 -1.3232
 2989TIP3   OH230457   4.583   3.696   2.029  0.2328  0.5309  0.4453
 2989TIP3    H130458   4.499   3.660   2.057  1.0478 -1.2400  0.6584
 2989TIP3    H230459   4.575   3.703   1.934  0.2096 -0.6298  0.3523
 2990TIP3   OH230460   1.408   2.466   1.029 -1.1621  0.3075  0.0554
 2990TIP3    H130461   1.473   2.448   0.962 -2.4575 -0.4495 -1.0231
 2990TIP3    H230462   1.344   2.395   1.021 -3.2378  2.1573 -0.3115
 2991TIP3   OH230463   1.816   4.093   4.068  0.2595 -0.4004 -0.2467
 2991TIP3    H130464   1.785   4.060   3.983  1.0031 -0.4052 -0.5227
 2991TIP3    H230465   1.909   4.112   4.053  0.2998 -0.0405  0.4633
 2992TIP3   OH230466   1.701   4.988  12.975 -0.0626 -0.7496 -0.3516
 2992TIP3    H130467   1.753   4.909  12.983 -0.4586 -0.9052  0.7483
 2992TIP3    H230468   1.617   4.967  13.017  0.2644  0.6392  1.0536
 2993TIP3   OH230469   0.246   0.647  13.007 -0.0941 -0.0592 -0.2653
 2993TIP3    H130470   0.218   0.732  12.971  0.1402 -0.4574 -1.4042
 2993TIP3    H230471   0.186   0.631  13.080  0.0535  1.2289  0.1579
 2994TIP3   OH230472   2.212   2.562  14.571 -0.6059  0.0775  0.0455
 2994TIP3    H130473   2.305   2.542  14.562 -0.6880 -0.1423 -0.3253
 2994TIP3    H230474   2.187   2.526  14.656 -0.4917 -0.3821 -0.1150
 2995TIP3   OH230475   3.640   1.392  17.256  0.4244 -0.5363  0.1759
 2995TIP3    H130476   3.694   1.315  17.270  0.1143 -1.0631 -1.3632
 2995TIP3    H230477   3.550   1.360  17.259  0.1880  0.2210  2.0556
 2996TIP3   OH230478   4.102   3.966  12.816 -0.2736  0.2940  0.1611
 2996TIP3    H130479   4.193   3.940  12.833  0.0832  1.1519 -0.3623
 2996TIP3    H230480   4.078   4.018  12.892  0.1155  1.1345 -0.2760
 2997TIP3   OH230481   0.163   5.450  11.383 -0.0026  0.0295 -0.1214
 2997TIP3    H130482   0.255   5.477  11.378  0.6196 -2.1787 -1.2069
 2997TIP3    H230483   0.115   5.518  11.336  1.3731 -0.0527 -1.6725
 2998TIP3   OH230484   3.862   6.701   3.511  0.5462  0.1790  0.0091
 2998TIP3    H130485   3.944   6.651   3.504  0.6071  0.3488 -0.5480
 2998TIP3    H230486   3.806   6.647   3.567  0.3784 -0.8465 -1.1055
 2999TIP3   OH230487   0.899   5.568  11.177  0.0520  0.2006  0.0355
 2999TIP3    H130488   0.947   5.499  11.223  0.9876  1.4987  1.0485
 2999TIP3    H230489   0.919   5.554  11.085  0.9541 -0.3609  0.3061
 3000TIP3   OH230490   5.601   3.000  11.178 -0.3002 -0.4198 -0.2151
 3000TIP3    H130491   5.608   2.985  11.272 -0.5603  0.1100 -0.1129
 3000TIP3    H230492   5.603   3.095  11.168 -0.9685 -0.4509 -0.6803
 3001TIP3   OH230493   3.917   4.004  15.572 -0.2049  0.2673 -0.2568
 3001TIP3    H130494   3.981   3.948  15.617 -1.1643 -0.7059 -0.0839
 3001TIP3    H230495   3.917   3.974  15.482 -1.3911 -0.6349  0.0359
 3002TIP3   OH230496   3.148   6.639  16.309 -0.5317  0.2932  0.1625
 3002TIP3    H130497   3.061   6.601  16.328 -1.4996  1.2169 -2.3311
 3002TIP3    H230498   3.206   6.563  16.307 -1.7944 -0.6733 -1.0182
 3003TIP3   OH230499   3.683   2.450   4.111 -0.1517  0.0908 -0.1304
 3003TIP3    H130500   3.718   2.513   4.047 -0.8402 -0.8003 -1.4076
 3003TIP3    H230501   3.743   2.376   4.108  0.2300  0.3595  0.8081
 3004TIP3   OH230502   2.843   3.562  15.555 -0.0586  0.2292  0.7931
 3004TIP3    H130503   2.935   3.541  15.573  1.5191  2.8207 -3.5297
 3004TIP3    H230504   2.814   3.493  15.496  0.5399  1.8451 -1.4369
 3005TIP3   OH230505   1.318   3.301  11.796 -0.0978  0.8262  0.2340
 3005TIP3    H130506   1.330   3.384  11.750  1.7759  1.3515  1.5750
 3005TIP3    H230507   1.387   3.301  11.863  0.1139 -1.9381  0.0888
 3006TIP3   OH230508   6.475   6.233  15.293 -0.9207  0.1807 -0.5990
 3006TIP3    H130509   6.517   6.243  15.378 -1.9392  3.7436 -0.4577
 3006TIP3    H230510   6.406   6.169  15.308 -0.8738  0.5148  1.1907
 3007TIP3   OH230511   5.377   5.908  10.622  0.6564 -0.1380 -0.2303
 3007TIP3    H130512   5.389   5.911  10.527  2.7371 -2.2836 -0.0790
 3007TIP3    H230513   5.311   5.840  10.635  1.8136 -1.2454 -0.0550
 3008TIP3   OH230514   0.313   1.545  14.656 -0.2098  0.0007  0.4643
 3008TIP3    H130515   0.313   1.587  14.742  1.7081 -0.8282  0.8800
 3008TIP3    H230516   0.316   1.618  14.594 -0.7965  0.5769  1.1007
 3009TIP3   OH230517   5.845   3.551   5.389 -1.3195 -0.2786  0.2935
 3009TIP3    H130518   5.821   3.469   5.432 -1.9768 -0.2752 -0.0738
 3009TIP3    H230519   5.932   3.572   5.425 -2.5966  0.6300  2.9629
 3010TIP3   OH230520   2.388   4.425  10.580  0.2406 -0.3749  0.9113
 3010TIP3    H130521   2.342   4.342  10.594 -1.5125  0.6037  0.9938
 3010TIP3    H230522   2.321   4.486  10.550  1.7643  0.6866 -0.4508
 3011TIP3   OH230523   0.494   2.357   1.627 -0.4016 -0.1861 -0.2072
 3011TIP3    H130524   0.464   2.447   1.620 -0.7151 -0.2575  0.2178
 3011TIP3    H230525   0.418   2.304   1.604 -1.9482 -0.4821  4.9654
 3012TIP3   OH230526   3.501   5.586  16.235  0.4437 -0.2502 -0.8212
 3012TIP3    H130527   3.525   5.569  16.327 -0.8045 -0.4095 -0.5149
 3012TIP3    H230528   3.407   5.569  16.232 -0.0713  2.5795 -1.4921
 3013TIP3   OH230529   6.114   2.502  11.458  0.2956  0.1442 -0.0045
 3013TIP3    H130530   6.158   2.557  11.394 -0.7061  0.4491 -0.4511
 3013TIP3    H230531   6.038   2.554  11.485  0.5231 -0.1350  1.1628
 3014TIP3   OH230532   5.686   1.739  15.993 -0.3007 -0.3684  0.1215
 3014TIP3    H130533   5.637   1.812  15.954 -0.0546  0.3429  1.1420
 3014TIP3    H230534   5.751   1.716  15.926 -0.3593  0.3622 -0.1944
 3015TIP3   OH230535   0.093   4.198   0.058  0.1283 -0.2473  0.2946
 3015TIP3    H130536   0.164   4.176   0.120  2.8543  0.9674 -2.2545
 3015TIP3    H230537   0.055   4.278   0.094 -0.7645 -1.5517  2.3251
 3016TIP3   OH230538   2.050   0.263   3.617  0.0150  0.6531 -0.1606
 3016TIP3    H130539   2.112   0.219   3.560 -0.2407 -0.1795  0.1921
 3016TIP3    H230540   2.056   0.355   3.593  0.6212  0.4379 -0.8460
 3017TIP3   OH230541   1.154   1.264  15.271 -0.1142  0.4991  0.3613
 3017TIP3    H130542   1.230   1.225  15.228  1.3193  3.1897  0.3308
 3017TIP3    H230543   1.164   1.242  15.363  0.9144  1.1255  0.4046
 3018TIP3   OH230544   3.222   2.107   1.045 -0.3935 -0.2106 -0.8360
 3018TIP3    H130545   3.286   2.177   1.043 -0.6696  0.1175  0.8731
 3018TIP3    H230546   3.269   2.029   1.016  0.1823  0.4710 -1.7295
 3019TIP3   OH230547   4.800   2.265  15.625  0.5105 -0.3977 -0.2960
 3019TIP3    H130548   4.753   2.238  15.704  0.6288 -2.2485 -0.8487
 3019TIP3    H230549   4.741   2.327  15.582 -0.4242 -0.9458  0.1939
 3020TIP3   OH230550   6.136   6.605  11.945  0.0637 -0.7842 -0.7411
 3020TIP3    H130551   6.198   6.677  11.932 -0.1152 -0.8738 -2.1814
 3020TIP3    H230552   6.140   6.587  12.039 -0.1383  1.3435 -0.2933
 3021TIP3   OH230553   2.100   4.531   3.685 -0.0398 -0.3898  0.4554
 3021TIP3    H130554   2.086   4.535   3.780  0.5727 -1.3650  0.5915
 3021TIP3    H230555   2.188   4.494   3.675 -0.2277 -0.5950 -0.4929
 3022TIP3   OH230556   5.530   1.063  13.283  1.3345 -0.3792  0.4675
 3022TIP3    H130557   5.572   1.095  13.204  2.0385  0.1318  1.0387
 3022TIP3    H230558   5.570   1.115  13.354 -3.1704  3.0896  0.6834
 3023TIP3   OH230559   5.422   4.621   2.450 -0.4052  0.2422 -0.0805
 3023TIP3    H130560   5.342   4.590   2.408  1.1354 -0.5800 -2.4862
 3023TIP3    H230561   5.493   4.578   2.403  1.5869  3.1269  0.1368
 3024TIP3   OH230562   4.655   3.139  16.240  0.2321  0.2050 -0.2063
 3024TIP3    H130563   4.641   3.064  16.298  0.1033 -1.3020 -2.1490
 3024TIP3    H230564   4.741   3.123  16.201 -0.3774  0.3713 -1.6474
 3025TIP3   OH230565   4.829   0.815  15.960 -0.4967  0.0488 -0.2155
 3025TIP3    H130566   4.854   0.901  15.925  1.6966 -0.3878  0.2155
 3025TIP3    H230567   4.908   0.761  15.951 -0.5721 -0.7515  3.1706
 3026TIP3   OH230568   2.148   4.055   4.954 -0.1526 -0.7294 -0.5227
 3026TIP3    H130569   2.060   4.046   4.990 -0.0496  0.2940 -0.0047
 3026TIP3    H230570   2.205   4.015   5.020  0.0303  1.0966  0.4649
 3027TIP3   OH230571   1.652   4.369   3.680  0.0330 -0.1814  0.1152
 3027TIP3    H130572   1.667   4.454   3.721 -2.3470  0.4944 -0.3400
 3027TIP3    H230573   1.629   4.390   3.590 -0.8391 -1.2854  0.0700
 3028TIP3   OH230574   2.660   4.350  15.489 -0.3882  0.2042  0.1178
 3028TIP3    H130575   2.631   4.330  15.578 -1.8868 -2.5359 -0.9370
 3028TIP3    H230576   2.581   4.380  15.444 -0.1383 -0.6234 -0.9017
 3029TIP3   OH230577   6.374   3.560  13.564 -0.3829 -0.1964 -0.2646
 3029TIP3    H130578   6.416   3.480  13.598 -0.6201 -0.4552 -0.5762
 3029TIP3    H230579   6.444   3.625  13.562 -0.0011 -0.6178 -0.7503
 3030TIP3   OH230580   5.817   1.070  15.086 -0.7005  0.5868  0.3250
 3030TIP3    H130581   5.810   0.989  15.136 -0.5749 -0.3860 -1.1976
 3030TIP3    H230582   5.867   1.046  15.007 -2.7140  1.5502 -1.3099
 3031TIP3   OH230583   2.860   1.661  13.933  0.4305  0.3976 -0.2285
 3031TIP3    H130584   2.827   1.742  13.897 -0.4186 -0.5854 -1.7136
 3031TIP3    H230585   2.955   1.675  13.941  0.4652  1.0604 -1.7129
 3032TIP3   OH230586   1.044   4.241  16.941 -0.6898  0.2420  0.3904
 3032TIP3    H130587   1.044   4.271  16.850 -1.3099  0.8483  0.5909
 3032TIP3    H230588   1.084   4.312  16.991 -0.7768  0.1080  0.6556
 3033TIP3   OH230589   0.835   1.827   4.280 -0.0260 -0.2100 -0.1188
 3033TIP3    H130590   0.901   1.855   4.217  0.3552 -0.3220  0.2337
 3033TIP3    H230591   0.883   1.776   4.345  0.1299  2.6362  2.0697
 3034TIP3   OH230592   5.506   4.173  12.603  0.4822  0.2217  0.3879
 3034TIP3    H130593   5.429   4.116  12.604  1.1381 -0.6712  0.4258
 3034TIP3    H230594   5.576   4.120  12.641  1.6029  0.3195 -1.4552
 3035TIP3   OH230595   1.890   5.538   5.543 -0.4320  0.2052  0.1149
 3035TIP3    H130596   1.813   5.577   5.500 -1.0364 -0.5849  0.4649
 3035TIP3    H230597   1.960   5.602   5.529 -1.6581  1.8961  1.5606
 3036TIP3   OH230598   3.117   1.822  10.735  0.3082 -0.3530 -0.9077
 3036TIP3    H130599   3.113   1.894  10.672  1.2656 -0.6795 -1.3589
 3036TIP3    H230600   3.204   1.784  10.722  0.5881 -0.3081  0.7582
 3037TIP3   OH230601   5.976   3.001  15.278 -0.5570 -0.2771  0.0651
 3037TIP3    H130602   5.890   3.042  15.291 -0.1452  0.5171  0.3059
 3037TIP3    H230603   5.986   2.997  15.183 -1.0579 -0.7948  0.0282
 3038TIP3   OH230604   0.455   0.443  16.981  0.2986  0.5473  0.1513
 3038TIP3    H130605   0.550   0.449  16.984  0.5480 -1.8733 -1.5267
 3038TIP3    H230606   0.432   0.389  17.056  0.2461  0.9740  0.4486
 3039TIP3   OH230607   1.926   2.324  12.977 -0.3716 -0.0463 -0.1851
 3039TIP3    H130608   1.876   2.281  13.046  0.2783 -0.9223 -0.2477
 3039TIP3    H230609   2.017   2.321  13.009 -0.3429  1.5332 -0.0582
 3040TIP3   OH230610   5.004   2.089   0.481  0.2570  0.1716  0.5569
 3040TIP3    H130611   5.018   2.003   0.519 -0.0059  0.4236  1.2294
 3040TIP3    H230612   4.934   2.128   0.533  0.3271  0.7662  0.2193
 3041TIP3   OH230613   1.352   1.572  12.016 -0.4315 -0.3083  0.6897
 3041TIP3    H130614   1.285   1.601  11.954 -1.3925 -2.2371  0.7854
 3041TIP3    H230615   1.320   1.602  12.101  0.7489  2.0973  0.3162
 3042TIP3   OH230616   6.022   0.239   4.899  0.2082  0.1976 -0.5690
 3042TIP3    H130617   5.937   0.197   4.910  0.0350  0.4259 -1.0018
 3042TIP3    H230618   6.003   0.320   4.852  0.6442  0.3331 -0.5170
 3043TIP3   OH230619   2.573   0.950  15.079  0.4977 -0.6107  0.2421
 3043TIP3    H130620   2.514   0.914  15.013  0.0285  1.4474 -0.4983
 3043TIP3    H230621   2.525   1.025  15.115  1.1182 -1.1785  2.3075
 3044TIP3   OH230622   4.236   6.712  12.012 -0.2453  0.0276  0.3774
 3044TIP3    H130623   4.228   6.620  12.036  3.2395 -0.1787  0.9150
 3044TIP3    H230624   4.216   6.759  12.093  0.2135 -0.3328  0.7063
 3045TIP3   OH230625   3.561   4.997  13.028  0.0660  0.1995 -0.4072
 3045TIP3    H130626   3.542   4.928  13.091 -0.6336  0.8234  0.0795
 3045TIP3    H230627   3.504   4.979  12.953  0.4476 -0.1855 -0.6091
 3046TIP3   OH230628   4.423   3.490  13.217 -0.6993 -0.4393 -0.1477
 3046TIP3    H130629   4.491   3.543  13.258  0.2844 -0.6385 -1.4853
 3046TIP3    H230630   4.346   3.503  13.273 -0.1786  1.5038  0.1819
 3047TIP3   OH230631   5.012   0.777  11.332  0.3094 -0.0968 -0.1084
 3047TIP3    H130632   5.013   0.682  11.345  0.8732 -0.0413  0.2960
 3047TIP3    H230633   5.099   0.797  11.299  0.1786  0.2746 -0.2290
 3048TIP3   OH230634   4.276   1.559  17.053 -0.2208  0.1180 -0.1289
 3048TIP3    H130635   4.359   1.526  17.086  0.2767  0.4562 -1.0025
 3048TIP3    H230636   4.258   1.637  17.106 -1.4948 -1.6252  2.0570
 3049TIP3   OH230637   0.246   1.318  12.724 -0.0724 -0.1840 -0.5074
 3049TIP3    H130638   0.232   1.326  12.819 -1.3170 -1.2652 -0.5915
 3049TIP3    H230639   0.284   1.231  12.713  0.7761  0.2304 -0.9480
 3050TIP3   OH230640   3.467   0.742   0.560 -0.8367 -0.3046  0.1292
 3050TIP3    H130641   3.544   0.713   0.609 -0.5719 -1.5425 -0.9895
 3050TIP3    H230642   3.503   0.782   0.481 -1.3456 -0.5200 -0.2058
 3051TIP3   OH230643   0.661   2.673  16.848  0.3468 -0.3957 -0.0841
 3051TIP3    H130644   0.689   2.758  16.881  1.1237 -0.5396 -0.3553
 3051TIP3    H230645   0.571   2.663  16.880 -0.0757  0.9217 -0.8471
 3052TIP3   OH230646   0.212   0.930   2.097 -0.1641  0.5872 -0.4617
 3052TIP3    H130647   0.189   0.850   2.051  2.7056 -0.8825  0.5965
 3052TIP3    H230648   0.301   0.950   2.069 -0.3193  2.6145  0.3730
 3053TIP3   OH230649   5.342   1.601  14.928  0.4735  0.1965  0.5366
 3053TIP3    H130650   5.371   1.515  14.898 -0.2050 -0.3078  1.3139
 3053TIP3    H230651   5.250   1.589  14.953  0.2233  1.2600  0.1878
 3054TIP3   OH230652   5.219   0.618   1.895 -0.0447  1.1015  0.2048
 3054TIP3    H130653   5.297   0.572   1.866  0.9206  2.3076  0.8621
 3054TIP3    H230654   5.224   0.617   1.990 -2.0698 -0.9070  0.3233
 3055TIP3   OH230655   6.556   0.434  14.612 -0.1210 -0.1368 -0.0946
 3055TIP3    H130656   6.505   0.435  14.694 -0.1108  1.2860 -0.0905
 3055TIP3    H230657   6.646   0.450  14.640 -0.3543  2.0812 -0.5120
 3056TIP3   OH230658   2.296   0.348  11.026 -0.5710 -0.3725  0.2251
 3056TIP3    H130659   2.271   0.440  11.025  0.2626 -0.1404 -0.1370
 3056TIP3    H230660   2.213   0.301  11.029 -1.0343  0.3809 -0.2873
 3057TIP3   OH230661   5.491   2.114   1.101  0.3194  0.1225 -0.4981
 3057TIP3    H130662   5.545   2.088   1.027  0.1170  0.2844 -0.7009
 3057TIP3    H230663   5.519   2.203   1.122  0.0321  0.2618 -0.6967
 3058TIP3   OH230664   0.642   4.701   6.269  0.4113 -0.4698 -0.0754
 3058TIP3    H130665   0.692   4.748   6.203  1.2237 -0.4003  0.5830
 3058TIP3    H230666   0.594   4.770   6.316  0.8002 -0.3983  0.2171
 3059TIP3   OH230667   6.605   1.770   5.300 -0.2869 -0.1291  0.3858
 3059TIP3    H130668   6.685   1.782   5.352 -0.2961 -1.7043  0.7797
 3059TIP3    H230669   6.637   1.755   5.211  0.0654 -3.9198  1.0552
 3060TIP3   OH230670   3.399   5.514   4.033 -0.0061  0.3231 -0.1035
 3060TIP3    H130671   3.329   5.454   4.060 -0.3718 -0.2323 -2.1702
 3060TIP3    H230672   3.479   5.474   4.068 -0.2855 -1.2043 -1.1636
 3061TIP3   OH230673   6.253   6.030  11.722  0.4050 -0.0260 -0.1393
 3061TIP3    H130674   6.205   5.949  11.703 -0.0767  0.1736  0.2029
 3061TIP3    H230675   6.340   6.015  11.687  0.2852 -0.6546 -0.1795
 3062TIP3   OH230676   1.255   6.304  15.878  0.1769 -0.6387  0.3583
 3062TIP3    H130677   1.317   6.360  15.832 -1.3735  0.2468 -0.6996
 3062TIP3    H230678   1.239   6.232  15.817  0.3799 -1.0052  0.7406
 3063TIP3   OH230679   6.410   5.071  15.682 -0.6885  0.2409  0.2360
 3063TIP3    H130680   6.348   5.111  15.743 -0.9816 -1.5655  1.1550
 3063TIP3    H230681   6.363   4.996  15.645  0.1752  0.1563 -0.7187
 3064TIP3   OH230682   2.633   1.268  15.593 -0.7551  0.5820 -0.1159
 3064TIP3    H130683   2.704   1.239  15.535 -0.5977  0.1451  0.2907
 3064TIP3    H230684   2.647   1.362  15.603  0.1890  0.3760  0.5424
 3065TIP3   OH230685   2.876   1.807  13.147  0.2848  0.5599 -0.2717
 3065TIP3    H130686   2.875   1.850  13.232 -1.3491 -0.2638  0.1492
 3065TIP3    H230687   2.927   1.727  13.161 -0.0267  0.3993 -0.0480
 3066TIP3   OH230688   5.173   4.764  12.789  0.0402 -0.5303 -0.5613
 3066TIP3    H130689   5.202   4.851  12.762  2.0226 -1.3429 -1.1996
 3066TIP3    H230690   5.080   4.761  12.767  0.6738  0.2855 -3.5935
 3067TIP3   OH230691   5.042   5.123  15.397 -0.4147 -0.2749  0.7312
 3067TIP3    H130692   5.019   5.042  15.443 -2.3801 -0.7935 -1.0694
 3067TIP3    H230693   4.992   5.119  15.315 -0.4164  2.6797  0.5244
 3068TIP3   OH230694   3.135   1.414  15.917  0.0953  0.0601 -0.0439
 3068TIP3    H130695   3.119   1.403  15.824 -1.1487 -1.8843  0.3759
 3068TIP3    H230696   3.202   1.349  15.938  1.4225  1.4601  0.1610
 3069TIP3   OH230697   3.987   4.940  13.856  0.5906 -0.1852  0.3035
 3069TIP3    H130698   3.953   4.853  13.877 -1.6817  0.3424 -0.9371
 3069TIP3    H230699   3.997   4.983  13.940 -1.3809 -0.5788  0.7728
 3070TIP3   OH230700   1.418   0.038   3.546 -0.4845 -0.5499  0.6016
 3070TIP3    H130701   1.479   0.102   3.581 -0.4985 -0.3427  0.2463
 3070TIP3    H230702   1.332   0.078   3.557 -0.6115 -1.1026  1.6696
 3071TIP3   OH230703   3.146   2.196   2.963  0.2341  0.1263  0.2539
 3071TIP3    H130704   3.221   2.215   3.019 -0.1602  1.2667  0.4061
 3071TIP3    H230705   3.131   2.102   2.975 -0.5433  0.5446  2.9476
 3072TIP3   OH230706   0.374   3.787   6.125 -0.5773 -0.0168 -0.3454
 3072TIP3    H130707   0.412   3.874   6.128 -0.6118  0.0258 -1.0876
 3072TIP3    H230708   0.330   3.777   6.209  2.1646 -0.5789  1.0776
 3073TIP3   OH230709   2.798   0.474   0.513 -0.6213 -0.2443  0.1659
 3073TIP3    H130710   2.797   0.382   0.485  0.6261 -0.6412  1.3727
 3073TIP3    H230711   2.706   0.495   0.529 -0.9540 -1.1515 -0.4953
 3074TIP3   OH230712   6.157   2.433  12.740 -1.0087 -0.3819  0.4051
 3074TIP3    H130713   6.215   2.357  12.734 -1.0621 -0.3159 -1.1711
 3074TIP3    H230714   6.170   2.466  12.829  0.8517 -0.7952  0.3107
 3075TIP3   OH230715   4.971   5.395  16.365  0.0048  0.3007 -0.1058
 3075TIP3    H130716   5.043   5.417  16.424 -0.9599  2.5770  0.2667
 3075TIP3    H230717   5.014   5.355  16.290  1.9236  3.4423 -0.7906
 3076TIP3   OH230718   1.598   6.635  13.204 -0.6739  0.3456 -0.3058
 3076TIP3    H130719   1.637   6.721  13.191 -4.4706  2.0499 -0.9244
 3076TIP3    H230720   1.588   6.626  13.298  1.2159 -0.1666 -0.1284
 3077TIP3   OH230721   2.997   4.364  12.119  0.8126  0.0514 -0.5115
 3077TIP3    H130722   2.971   4.366  12.211 -1.1719  1.4076 -1.0716
 3077TIP3    H230723   3.049   4.443  12.107  1.6819 -0.4972 -0.3936
 3078TIP3   OH230724   5.924   6.199   3.634 -0.2767 -0.0672  0.3026
 3078TIP3    H130725   5.882   6.193   3.719 -2.4416 -2.6625 -0.8725
 3078TIP3    H230726   5.994   6.133   3.636 -0.7319 -0.5668 -0.1420
 3079TIP3   OH230727   5.237   2.405   4.899  0.7369 -0.7700 -0.5107
 3079TIP3    H130728   5.198   2.478   4.851  1.8451 -0.2757 -0.6622
 3079TIP3    H230729   5.329   2.405   4.873  1.2036 -0.9228  1.0849
 3080TIP3   OH230730   3.699   2.539   0.694  0.3371  0.2087  0.6174
 3080TIP3    H130731   3.625   2.488   0.660  0.7743 -0.5378  0.7640
 3080TIP3    H230732   3.700   2.618   0.641  0.4953 -0.5639 -0.5563
 3081TIP3   OH230733   3.936   2.331  11.376  0.2259  0.0132 -0.3687
 3081TIP3    H130734   3.941   2.415  11.421 -2.3296 -0.0754  0.2018
 3081TIP3    H230735   3.885   2.275  11.436  0.1570 -1.3005 -1.6241
 3082TIP3   OH230736   2.952   2.093  12.406  0.8378  0.4331  0.0942
 3082TIP3    H130737   3.027   2.102  12.463 -0.0878 -1.2853  1.6137
 3082TIP3    H230738   2.976   2.141  12.326  3.4014  0.1015  0.6598
 3083TIP3   OH230739   6.623   6.574  13.585  0.4985  0.7016 -0.6384
 3083TIP3    H130740   6.660   6.589  13.498  1.1398 -1.1530 -0.7043
 3083TIP3    H230741   6.620   6.479  13.594 -1.0182  0.8489  0.7568
 3084TIP3   OH230742   3.890   0.764   4.221 -0.1096 -0.4212  0.4456
 3084TIP3    H130743   3.857   0.696   4.280 -1.5882 -0.6647 -0.6251
 3084TIP3    H230744   3.953   0.718   4.166 -0.9248 -0.8812 -0.1138
 3085TIP3   OH230745   0.726   1.060   2.237 -0.2349  0.2766 -0.5942
 3085TIP3    H130746   0.812   1.022   2.221  0.1056  1.5458 -1.8847
 3085TIP3    H230747   0.713   1.122   2.165 -2.7355 -0.7295 -1.0649
 3086TIP3   OH230748   0.365   2.850  16.413  0.3752  0.4237 -0.0917
 3086TIP3    H130749   0.452   2.824  16.443  0.3274  1.4356  0.9647
 3086TIP3    H230750   0.333   2.909  16.481 -1.3271 -0.2909 -0.2421
 3087TIP3   OH230751   1.616   2.191   2.361 -0.2045 -0.7017 -0.4043
 3087TIP3    H130752   1.685   2.128   2.381 -1.0143 -1.2001  0.9171
 3087TIP3    H230753   1.538   2.138   2.349 -0.4595 -0.1038 -1.4598
 3088TIP3   OH230754   4.071   4.134  14.748  0.1640  0.0748  0.1725
 3088TIP3    H130755   4.124   4.126  14.669 -2.6607  0.4886 -1.8534
 3088TIP3    H230756   4.098   4.060  14.803  1.6832 -0.6273 -1.4716
 3089TIP3   OH230757   1.589   5.169  15.335  0.1017  0.4151  0.1129
 3089TIP3    H130758   1.609   5.146  15.244 -0.8554 -0.3277  0.0811
 3089TIP3    H230759   1.582   5.084  15.380  0.4510  0.7751  0.8537
 3090TIP3   OH230760   1.722   2.453   1.950  0.2131  0.1736 -0.1483
 3090TIP3    H130761   1.630   2.441   1.926  0.0608 -0.0430  0.5253
 3090TIP3    H230762   1.721   2.455   2.046  0.9716 -0.3595 -0.1287
 3091TIP3   OH230763   1.874   0.844  16.320 -0.0752  0.2173 -0.2632
 3091TIP3    H130764   1.909   0.791  16.249  4.0473  2.6868 -0.2247
 3091TIP3    H230765   1.845   0.925  16.278 -1.0086  0.2332  0.4018
 3092TIP3   OH230766   2.195   4.136   1.386 -0.0085 -0.1927 -0.2965
 3092TIP3    H130767   2.176   4.207   1.448  2.4981  0.8220 -0.6383
 3092TIP3    H230768   2.290   4.132   1.383 -0.1160 -2.1092 -1.9802
 3093TIP3   OH230769   4.973   6.416  15.482 -0.1082 -0.8592  0.1334
 3093TIP3    H130770   5.018   6.496  15.455 -1.4900  0.5184  1.7997
 3093TIP3    H230771   4.924   6.441  15.560 -1.2653 -3.1223  0.1798
 3094TIP3   OH230772   4.025   4.527   0.931 -0.7325  0.2043  0.0339
 3094TIP3    H130773   4.072   4.489   0.856  2.0820 -1.1295  2.3844
 3094TIP3    H230774   4.049   4.619   0.929 -1.4223  0.3725 -1.2178
 3095TIP3   OH230775   4.789   0.015  15.003 -0.1468 -0.3174 -0.0107
 3095TIP3    H130776   4.811  -0.026  14.919 -1.0546  0.4445 -0.6295
 3095TIP3    H230777   4.718  -0.039  15.038 -0.8267  0.2632 -0.4722
 3096TIP3   OH230778   1.873   6.785  15.568 -0.8192 -0.4335 -0.0736
 3096TIP3    H130779   1.789   6.806  15.528 -0.9954 -1.9851 -0.5428
 3096TIP3    H230780   1.930   6.765  15.493  0.4205  2.1201  0.1356
 3097TIP3   OH230781   3.312   2.004   0.618  0.1227 -0.1188  0.2459
 3097TIP3    H130782   3.260   1.925   0.634 -0.6454 -0.2274 -2.4784
 3097TIP3    H230783   3.395   1.988   0.662 -1.1781 -1.0826  2.4183
 3098TIP3   OH230784   1.656   4.743   3.435  0.8324 -0.4560  0.1733
 3098TIP3    H130785   1.667   4.762   3.342  0.8075 -1.3743 -0.0218
 3098TIP3    H230786   1.740   4.764   3.474  0.6147  0.6545  0.0751
 3099TIP3   OH230787   5.764   0.807   0.115  0.3135 -0.5367 -0.7592
 3099TIP3    H130788   5.692   0.864   0.144  0.1150 -0.8173 -0.7003
 3099TIP3    H230789   5.778   0.747   0.188  0.7140 -0.3869 -0.7064
 3100TIP3   OH230790   4.944   4.259   3.295  0.0245 -0.1734 -0.0360
 3100TIP3    H130791   4.932   4.350   3.268 -1.9932 -0.0037  1.2395
 3100TIP3    H230792   4.946   4.209   3.214 -0.1267  0.8837 -0.6953
 3101TIP3   OH230793   2.710   4.889  15.794  0.3517  0.1930  0.7326
 3101TIP3    H130794   2.768   4.815  15.810  0.2070 -0.5401 -1.8262
 3101TIP3    H230795   2.625   4.861  15.827  0.1899 -0.9968 -0.6510
 3102TIP3   OH230796   2.967   1.150   0.006 -0.5109  0.0322 -0.6636
 3102TIP3    H130797   3.057   1.125   0.028 -1.0670 -1.4950 -0.0090
 3102TIP3    H230798   2.958   1.129  -0.087  0.0357  0.8857 -0.9085
 3103TIP3   OH230799   1.915   6.076   1.791  0.4303 -0.1460  0.0449
 3103TIP3    H130800   1.822   6.077   1.770  0.2174  1.2447  0.9709
 3103TIP3    H230801   1.942   6.168   1.789  1.6673 -0.4820  0.2841
 3104TIP3   OH230802   4.822   2.741  14.478  0.8945 -0.2711 -0.0556
 3104TIP3    H130803   4.748   2.802  14.485  0.7054 -0.4376 -0.5373
 3104TIP3    H230804   4.813   2.684  14.554  1.6452  0.9173  0.9344
 3105TIP3   OH230805   0.060   5.095   2.335  0.3367 -0.3181 -0.1790
 3105TIP3    H130806  -0.026   5.058   2.356 -0.0997  0.1363 -1.1425
 3105TIP3    H230807   0.072   5.164   2.400 -0.5642  0.4082 -0.7685
 3106TIP3   OH230808   0.237   2.394  15.531 -0.1741 -0.0065 -0.1723
 3106TIP3    H130809   0.266   2.443  15.609  0.2418 -0.4525 -0.0455
 3106TIP3    H230810   0.153   2.356  15.557  0.9896 -2.0023  0.8632
 3107TIP3   OH230811   4.082   3.630  12.443 -0.5180 -0.0934  0.2127
 3107TIP3    H130812   4.154   3.567  12.453 -0.6027 -0.2745 -0.2907
 3107TIP3    H230813   4.097   3.695  12.512  0.4051  0.1338 -0.1941
 3108TIP3   OH230814   6.521   4.564   3.471 -0.2931  0.5881  0.1952
 3108TIP3    H130815   6.462   4.512   3.526 -1.4018  2.1540  0.5060
 3108TIP3    H230816   6.466   4.636   3.438  0.3605 -0.2248 -2.8583
 3109TIP3   OH230817   5.353   2.642   4.116  0.2744  0.2958  0.1812
 3109TIP3    H130818   5.391   2.612   4.199  1.0577  2.0538  0.4821
 3109TIP3    H230819   5.414   2.708   4.084 -1.6697  2.0188 -0.1482
 3110TIP3   OH230820   0.409   4.289  11.620 -0.4750 -0.1171  0.2496
 3110TIP3    H130821   0.439   4.351  11.553  0.4510  0.2755  1.0257
 3110TIP3    H230822   0.318   4.269  11.595  0.2512 -0.9648 -1.8493
 3111TIP3   OH230823   1.655   1.037  15.724  0.6509 -0.1451 -0.2284
 3111TIP3    H130824   1.739   1.047  15.768  0.0464 -0.1671  0.9385
 3111TIP3    H230825   1.661   0.953  15.679  1.7081  0.4211 -1.1680
 3112TIP3   OH230826   1.243   0.951  13.877 -0.1102  0.4436  0.1142
 3112TIP3    H130827   1.212   0.877  13.825 -1.6519  0.4633  0.9587
 3112TIP3    H230828   1.198   0.941  13.961  2.2545  0.4545  1.4181
 3113TIP3   OH230829   2.114   0.554   3.985 -0.0181 -0.2989 -0.4564
 3113TIP3    H130830   2.185   0.611   4.016  0.3405  0.2276 -2.1530
 3113TIP3    H230831   2.158   0.472   3.963 -0.2540 -0.6368  0.3153
 3114TIP3   OH230832   5.824   6.694  12.066  0.0424  0.7263 -0.6451
 3114TIP3    H130833   5.812   6.638  11.989 -2.6797 -0.8895  0.8934
 3114TIP3    H230834   5.912   6.672  12.097  0.4745  0.0726 -2.2349
 3115TIP3   OH230835   0.203   4.369   4.708 -0.0027  0.2389 -0.0420
 3115TIP3    H130836   0.243   4.434   4.766  1.6057 -2.4415  1.9748
 3115TIP3    H230837   0.276   4.337   4.655 -0.4337 -1.0674  0.1310
 3116TIP3   OH230838   0.316   4.723   3.656  0.1235  0.4833  0.5764
 3116TIP3    H130839   0.312   4.794   3.720 -0.2066  0.9999 -0.0148
 3116TIP3    H230840   0.373   4.756   3.587 -0.3552  0.3304  0.1084
 3117TIP3   OH230841   5.406   1.672  12.931  0.5461  0.2010 -0.0513
 3117TIP3    H130842   5.415   1.595  12.875  0.4940  0.0056  0.2078
 3117TIP3    H230843   5.311   1.680  12.944  0.5470  0.3559 -0.1466
 3118TIP3   OH230844   1.225   2.521  16.166 -0.2208 -0.1455 -0.0696
 3118TIP3    H130845   1.226   2.432  16.201  1.8347 -0.2177 -0.2428
 3118TIP3    H230846   1.199   2.575  16.241  0.4905 -0.6873  0.5787
 3119TIP3   OH230847   1.679   6.770  15.840 -0.9416  0.0291 -0.3066
 3119TIP3    H130848   1.683   6.696  15.779 -0.1640  0.1531 -0.4177
 3119TIP3    H230849   1.771   6.794  15.854 -1.1343  0.1604  0.7250
 3120TIP3   OH230850   2.448   5.650   4.544  0.7367  0.2630  0.1846
 3120TIP3    H130851   2.457   5.745   4.540  1.1338  0.2659  1.0993
 3120TIP3    H230852   2.412   5.626   4.458  1.1650  1.1720 -0.2576
 3121TIP3   OH230853   1.449   2.366  11.859 -0.4271 -0.0167  0.6257
 3121TIP3    H130854   1.482   2.285  11.820  3.0870  1.5341  0.1329
 3121TIP3    H230855   1.441   2.426  11.785 -2.7774  0.1878  1.0190
 3122TIP3   OH230856   1.457   1.069  12.615  0.4719 -0.1390  0.1038
 3122TIP3    H130857   1.522   0.999  12.613 -0.4723 -1.0146 -0.3166
 3122TIP3    H230858   1.383   1.032  12.664  0.2901  0.8520  0.6006
 3123TIP3   OH230859   6.230   5.844  15.237  0.2790  0.3900 -0.2202
 3123TIP3    H130860   6.224   5.931  15.277 -0.2783 -0.2524  1.1280
 3123TIP3    H230861   6.321   5.819  15.251  0.4885  0.8274 -0.7727
 3124TIP3   OH230862   5.853   2.930   1.012  0.1382  0.4095  0.3513
 3124TIP3    H130863   5.932   2.976   1.040  0.9677 -0.7006 -0.1056
 3124TIP3    H230864   5.861   2.843   1.053  0.7102 -0.7805 -2.1643
 3125TIP3   OH230865   4.050   3.684  12.152  0.2502 -0.0063  0.4323
 3125TIP3    H130866   4.119   3.618  12.153  0.9490  0.7074  0.1022
 3125TIP3    H230867   4.029   3.699  12.244  1.9722  1.2340  0.6487
 3126TIP3   OH230868   0.413   0.355   0.297  0.2310  0.3957  0.2504
 3126TIP3    H130869   0.385   0.346   0.206  0.9277  1.2412 -0.0584
 3126TIP3    H230870   0.509   0.349   0.293  0.4282  2.8763  0.6201
 3127TIP3   OH230871   1.398   6.001   0.802  0.2851 -0.0444 -0.1388
 3127TIP3    H130872   1.333   5.995   0.872  0.6875 -0.5788  0.1886
 3127TIP3    H230873   1.415   5.911   0.777  2.7357 -0.0550  1.4644
 3128TIP3   OH230874   3.300   3.074   0.730  0.4945 -0.2973 -0.2444
 3128TIP3    H130875   3.261   3.148   0.778  2.4618  0.7881 -0.2701
 3128TIP3    H230876   3.231   3.044   0.672  0.0261  2.3080 -1.0949
 3129TIP3   OH230877   1.690   6.045   2.566  0.2676 -0.5301  0.3093
 3129TIP3    H130878   1.732   6.084   2.490  0.0692 -0.3064  0.3147
 3129TIP3    H230879   1.618   5.993   2.530  0.1636 -0.4110  0.3454
 3130TIP3   OH230880   3.043   6.143   1.123 -0.1750 -0.1652  0.1501
 3130TIP3    H130881   3.079   6.070   1.073 -0.7403  0.5178 -1.2583
 3130TIP3    H230882   2.991   6.102   1.191 -1.9151 -1.0651 -1.6966
 3131TIP3   OH230883   2.867   4.511   3.013 -0.3092  0.3063  0.2818
 3131TIP3    H130884   2.888   4.448   2.944 -2.1450 -0.3386  0.2823
 3131TIP3    H230885   2.773   4.501   3.026 -0.6875  3.3019  0.0560
 3132TIP3   OH230886   4.599   6.730  12.107  0.5437 -0.4417  0.1000
 3132TIP3    H130887   4.664   6.667  12.138  1.0790 -0.4562 -1.0479
 3132TIP3    H230888   4.625   6.749  12.017 -0.7899 -0.1198 -0.2206
 3133TIP3   OH230889   2.570   2.266  11.214 -0.0313  0.9822 -0.2645
 3133TIP3    H130890   2.571   2.275  11.118  1.2530  0.5093 -0.2979
 3133TIP3    H230891   2.661   2.249  11.237 -0.0462  2.8455  1.2217
 3134TIP3   OH230892   3.426   3.112   2.098  0.6031 -0.1567  0.2135
 3134TIP3    H130893   3.356   3.147   2.153  0.9376  0.0233  0.5258
 3134TIP3    H230894   3.411   3.152   2.012  1.4234  1.3392  0.7509
 3135TIP3   OH230895   5.975   3.038  14.988  0.6030 -0.8666 -0.3772
 3135TIP3    H130896   6.016   3.121  15.012 -0.9255  0.3940 -2.0715
 3135TIP3    H230897   6.012   3.016  14.903 -1.2924 -0.3192 -1.3743
 3136TIP3   OH230898   0.097   4.667   1.992 -0.0189  0.2459  0.3457
 3136TIP3    H130899   0.132   4.710   1.915 -1.0590 -0.4461 -0.5307
 3136TIP3    H230900   0.084   4.737   2.056  4.3392  0.3535  1.2874
 3137TIP3   OH230901   1.466   4.071   4.060  0.0527  0.2162 -0.5379
 3137TIP3    H130902   1.522   4.119   3.999 -0.3236  0.4470 -0.7023
 3137TIP3    H230903   1.485   3.979   4.044 -0.2297  0.2696 -1.1791
 3138TIP3   OH230904   0.915   6.242  16.153 -0.4669 -0.3925 -0.0160
 3138TIP3    H130905   0.895   6.316  16.096 -2.3992  0.7999  2.1254
 3138TIP3    H230906   0.944   6.282  16.236 -0.1366 -2.0490  0.6956
 3139TIP3   OH230907   1.972   2.571  17.037  0.2499 -0.3717  0.2773
 3139TIP3    H130908   1.931   2.487  17.016  0.7906  0.3058 -3.8398
 3139TIP3    H230909   1.899   2.630  17.057 -0.3867 -0.7954 -0.7796
 3140TIP3   OH230910   5.663   1.000   1.812 -0.3101 -0.1737  0.0424
 3140TIP3    H130911   5.748   1.005   1.767 -0.7520 -1.0892 -0.9134
 3140TIP3    H230912   5.625   1.087   1.801  1.3311  0.8597  2.1702
 3141TIP3   OH230913   0.186   2.033   1.823 -0.6301  0.0245  0.6631
 3141TIP3    H130914   0.281   2.039   1.810 -0.6652  0.2513  0.5028
 3141TIP3    H230915   0.168   1.939   1.831 -0.5381 -0.0775 -0.3565
 3142TIP3   OH230916   4.010   6.273   4.271  0.2707 -0.5258 -0.4965
 3142TIP3    H130917   3.958   6.346   4.237 -1.1585 -1.1482  0.3160
 3142TIP3    H230918   4.089   6.272   4.216  0.6594  2.0563 -0.0716
 3143TIP3   OH230919   3.160   4.571  16.807  0.0878  0.5031  0.5520
 3143TIP3    H130920   3.187   4.642  16.865  1.9646 -0.3757  0.7928
 3143TIP3    H230921   3.143   4.497  16.865 -1.1598  0.5273  0.2386
 3144TIP3   OH230922   0.060   3.715   5.933  0.1611 -0.3080  0.1927
 3144TIP3    H130923   0.115   3.658   5.986  1.6481  0.1245 -0.8757
 3144TIP3    H230924  -0.002   3.753   5.996  1.2819 -0.5512  1.4621
 3145TIP3   OH230925   1.057   0.630   2.902 -0.1679  0.5458  0.9961
 3145TIP3    H130926   1.042   0.536   2.915 -0.1955  0.6007  1.3516
 3145TIP3    H230927   1.080   0.637   2.809 -1.9164  0.3951  0.5311
 3146TIP3   OH230928   1.358   4.868  12.115  0.1201  0.3893  0.4095
 3146TIP3    H130929   1.450   4.864  12.088 -0.4466  0.1110 -1.5676
 3146TIP3    H230930   1.325   4.779  12.101 -0.5587  0.5823  0.7530
 3147TIP3   OH230931   6.018   1.766   6.227 -0.4928  0.3131 -0.1446
 3147TIP3    H130932   5.990   1.840   6.281 -1.3575 -1.9052  2.5327
 3147TIP3    H230933   6.101   1.796   6.189 -0.3975  2.3556  1.5331
 3148TIP3   OH230934   3.883   2.894   5.007  0.2216  0.4103 -0.1834
 3148TIP3    H130935   3.877   2.983   4.974  0.4705  0.1647 -0.8973
 3148TIP3    H230936   3.937   2.848   4.943 -0.3614 -0.3893 -0.1099
 3149TIP3   OH230937   5.540   0.044  14.215  0.4414  0.2308  0.2134
 3149TIP3    H130938   5.562   0.117  14.272 -1.9180  1.2210 -0.0987
 3149TIP3    H230939   5.561   0.074  14.127  1.4339 -0.2556  0.2777
 3150TIP3   OH230940   5.553   6.715  13.709  0.0062 -0.2799 -0.4955
 3150TIP3    H130941   5.472   6.761  13.688  1.6678  2.3481 -1.3420
 3150TIP3    H230942   5.600   6.709  13.626  2.2419  1.3841  0.5998
 3151TIP3   OH230943   6.702   1.538  15.606 -0.3325  0.4338  0.2384
 3151TIP3    H130944   6.650   1.494  15.540  1.8230  0.2429 -1.3791
 3151TIP3    H230945   6.689   1.632  15.588 -1.2105  0.4129  0.7343
 3152TIP3   OH230946   2.017   1.373  11.724 -0.3531  0.0386  0.3432
 3152TIP3    H130947   2.027   1.432  11.799 -2.1741  1.5056 -0.5229
 3152TIP3    H230948   1.929   1.390  11.692  0.3046 -0.7339 -1.9747
 3153TIP3   OH230949   1.915   6.579   0.658 -0.0105 -0.3534  0.2900
 3153TIP3    H130950   1.866   6.637   0.716 -0.6453 -1.0553  0.4677
 3153TIP3    H230951   1.884   6.601   0.570 -1.4118 -1.4900  0.4769
 3154TIP3   OH230952   5.456   1.290   2.760  1.1014  0.1957  0.2061
 3154TIP3    H130953   5.484   1.228   2.692 -0.5028  2.4679 -2.6406
 3154TIP3    H230954   5.370   1.258   2.788  0.6737  0.5988 -0.6220
 3155TIP3   OH230955   5.007   2.218   2.993  0.5096  0.1542  0.2407
 3155TIP3    H130956   4.965   2.270   2.925  1.9684  0.3867 -0.5096
 3155TIP3    H230957   4.972   2.252   3.075 -1.4709 -0.3040 -0.3751
 3156TIP3   OH230958   6.455   2.277  12.497 -0.0353 -0.0905  0.2432
 3156TIP3    H130959   6.373   2.235  12.521  0.2248 -1.2879 -0.8626
 3156TIP3    H230960   6.431   2.340  12.429 -0.0457 -0.3870 -0.0269
 3157TIP3   OH230961   0.954   6.717   6.607 -0.0339  0.4094  0.2769
 3157TIP3    H130962   0.959   6.636   6.556 -0.6813  1.1877 -1.0477
 3157TIP3    H230963   1.008   6.700   6.684  2.1768 -0.2841 -1.3649
 3158TIP3   OH230964   3.254   6.112   1.964  0.3311 -0.5743  0.2493
 3158TIP3    H130965   3.278   6.204   1.956 -1.5092 -0.1369 -0.5777
 3158TIP3    H230966   3.250   6.080   1.874 -0.6206 -1.0141  0.4372
 3159TIP3   OH230967   6.802   4.253  14.289 -0.0754  1.0288  0.2146
 3159TIP3    H130968   6.858   4.202  14.230  0.5257 -0.8401  2.3357
 3159TIP3    H230969   6.719   4.262  14.242  0.0288 -1.3678 -0.5175
 3160TIP3   OH230970   4.348   3.551   6.227  0.5059 -0.2204  0.3127
 3160TIP3    H130971   4.393   3.593   6.153  1.1715 -0.4446  0.5857
 3160TIP3    H230972   4.418   3.529   6.288  0.1375 -1.5184  0.2729
 3161TIP3   OH230973   5.790   2.463   1.929  0.2245 -0.8109  0.8243
 3161TIP3    H130974   5.802   2.375   1.965 -0.8172 -0.7670  1.2934
 3161TIP3    H230975   5.697   2.481   1.942  0.2099 -0.0757 -0.2547
 3162TIP3   OH230976   0.859   3.101  11.329  0.3381 -0.1578  0.3584
 3162TIP3    H130977   0.847   3.109  11.234  1.0903  1.9206  0.4295
 3162TIP3    H230978   0.836   3.186  11.364 -1.7688 -1.4614  2.2875
 3163TIP3   OH230979   4.088   2.618  15.451 -0.0199 -0.1959  0.2575
 3163TIP3    H130980   4.110   2.660  15.368  0.4468 -0.0397  0.4567
 3163TIP3    H230981   4.039   2.684  15.500 -0.5351 -0.3836 -0.0027
 3164TIP3   OH230982   1.387   4.349  16.008 -0.0070  0.3721 -0.5673
 3164TIP3    H130983   1.330   4.424  15.992  0.0708  0.6757  0.5340
 3164TIP3    H230984   1.455   4.356  15.941 -0.4856  0.7984 -1.0076
 3165TIP3   OH230985   0.995   1.193  13.074 -0.1990  0.4217 -0.1806
 3165TIP3    H130986   0.958   1.109  13.100  0.2730  0.2425 -0.0849
 3165TIP3    H230987   1.074   1.170  13.025  0.9435  0.8487  1.4211
 3166TIP3   OH230988   2.181   0.853   4.992  0.2280 -0.2382 -0.1002
 3166TIP3    H130989   2.277   0.854   4.984  0.2985 -3.2332 -0.3930
 3166TIP3    H230990   2.164   0.783   5.056 -1.7215  1.2810  1.0711
 3167TIP3   OH230991   3.147   6.403   3.617 -0.1265 -0.4192 -0.3514
 3167TIP3    H130992   3.194   6.446   3.688  0.7561  1.1081 -1.8364
 3167TIP3    H230993   3.188   6.317   3.609  0.6445 -0.0987  0.1378
 3168TIP3   OH230994   6.421   5.411  12.521 -0.1761  0.6457  0.1416
 3168TIP3    H130995   6.491   5.420  12.586 -1.6445 -1.1253  2.0366
 3168TIP3    H230996   6.417   5.496  12.478  2.3922  1.1246  0.7657
 3169TIP3   OH230997   6.544   1.402  16.988  0.1913  0.3410 -0.3222
 3169TIP3    H130998   6.601   1.338  16.944 -0.1969 -0.0489 -0.2561
 3169TIP3    H230999   6.474   1.418  16.924 -0.1360  0.1063 -0.0243
 3170TIP3   OH231000   5.516   5.425   0.092 -0.3409  0.4777 -0.7888
 3170TIP3    H131001   5.557   5.442   0.177  1.3542 -2.3009 -1.0105
 3170TIP3    H231002   5.459   5.501   0.078  1.5528  2.4011  1.4746
 3171TIP3   OH231003   1.915   5.892  15.737  0.5869  0.3854 -0.1836
 3171TIP3    H131004   1.872   5.875  15.653  2.2628 -0.2057 -0.9525
 3171TIP3    H231005   1.948   5.806  15.765  2.3193  1.0017 -0.2437
 3172TIP3   OH231006   4.668   2.351   1.422 -0.0308 -0.3336  0.5904
 3172TIP3    H131007   4.641   2.433   1.382  2.5933  0.2996  0.0132
 3172TIP3    H231008   4.701   2.299   1.349  0.2396 -1.0869  1.2385
 3173TIP3   OH231009   0.340   6.670  11.421 -0.7714 -0.4255 -0.3076
 3173TIP3    H131010   0.299   6.617  11.490 -2.1853 -0.2653 -0.9867
 3173TIP3    H231011   0.266   6.712  11.377  0.3301  2.5573  0.5490
 3174TIP3   OH231012   5.856   6.205   3.908 -0.2241  0.3339 -0.9689
 3174TIP3    H131013   5.882   6.113   3.920  2.0724  0.5815 -3.5527
 3174TIP3    H231014   5.934   6.255   3.928 -1.3543  1.7537  0.0098
 3175TIP3   OH231015   4.157   0.009   5.399  0.1301 -0.6280  0.3366
 3175TIP3    H131016   4.177  -0.064   5.459 -1.9920 -0.6332  1.0765
 3175TIP3    H231017   4.109   0.071   5.453 -0.3382  0.1422 -0.9586
 3176TIP3   OH231018   4.050   5.215   5.979  0.3254 -0.6769  0.1384
 3176TIP3    H131019   4.006   5.136   6.012 -0.6120 -0.1535  0.1683
 3176TIP3    H231020   4.029   5.282   6.044 -1.0556  0.2176 -1.1890
 3177TIP3   OH231021   6.521   2.121  16.861  0.0367  0.3242  0.3296
 3177TIP3    H131022   6.570   2.175  16.799 -2.5523  1.0329 -1.1793
 3177TIP3    H231023   6.559   2.034  16.852  0.5892  0.7192 -1.3095
 3178TIP3   OH231024   1.965   4.744   0.031 -0.5385 -0.3356 -0.3756
 3178TIP3    H131025   1.944   4.791   0.111 -0.1072  0.7269 -0.8720
 3178TIP3    H231026   1.991   4.657   0.060  2.2229  0.8425  0.8637
 3179TIP3   OH231027   4.836   1.630  13.137 -0.1022  0.0152 -0.3418
 3179TIP3    H131028   4.893   1.688  13.186  0.5675 -0.5318 -0.4674
 3179TIP3    H231029   4.855   1.542  13.170 -1.3905 -0.0978  0.1249
 3180TIP3   OH231030   4.028   3.734   6.195 -0.1814  0.4092  0.0692
 3180TIP3    H131031   3.989   3.762   6.278  0.1620 -1.4842  0.9117
 3180TIP3    H231032   4.122   3.733   6.212 -0.2227 -1.8245  0.2791
 3181TIP3   OH231033   6.404   1.255   4.720  0.3338  0.0375 -0.0781
 3181TIP3    H131034   6.469   1.200   4.765 -1.0659 -3.6865 -2.4103
 3181TIP3    H231035   6.373   1.314   4.789  1.8630 -2.1111  2.6107
 3182TIP3   OH231036   4.743   1.686  17.163  0.6475  0.2115 -0.1930
 3182TIP3    H131037   4.672   1.735  17.203  0.3665 -0.2644 -0.1051
 3182TIP3    H231038   4.758   1.730  17.079 -0.0395  0.0576 -0.4027
 3183TIP3   OH231039   5.747   3.631  11.328 -0.1831 -0.1457  0.6373
 3183TIP3    H131040   5.709   3.651  11.243  1.6365  0.6856 -0.0080
 3183TIP3    H231041   5.696   3.682  11.390  0.2125  1.3934 -0.2776
 3184TIP3   OH231042   5.097   5.371   2.429 -0.2446 -0.5776 -0.3691
 3184TIP3    H131043   5.163   5.441   2.433 -1.1788  0.2980 -0.1971
 3184TIP3    H231044   5.096   5.334   2.517 -0.8697  0.2350 -0.0308
 3185TIP3   OH231045   5.231   5.609  14.317 -0.1433 -0.2946 -0.5069
 3185TIP3    H131046   5.171   5.541  14.350 -0.9638  0.8665  0.4622
 3185TIP3    H231047   5.173   5.677  14.282  0.6376  0.3454 -0.5784
 3186TIP3   OH231048   1.525   2.352   3.592 -0.1086  0.0189 -0.2212
 3186TIP3    H131049   1.550   2.283   3.531 -0.1215 -0.2959  0.1288
 3186TIP3    H231050   1.433   2.371   3.571 -0.1954 -0.2846 -0.1078
 3187TIP3   OH231051   2.590   6.276  16.738  0.3811  0.7397  0.0989
 3187TIP3    H131052   2.547   6.301  16.819  0.2807  3.0847 -0.6293
 3187TIP3    H231053   2.655   6.210  16.763 -2.3463 -1.5412  1.4683
 3188TIP3   OH231054   4.126   5.793   5.178 -0.2677  0.1095 -0.0617
 3188TIP3    H131055   4.189   5.851   5.221 -0.5882  0.6361 -0.3066
 3188TIP3    H231056   4.067   5.852   5.131 -0.5645 -0.4155 -0.3497
 3189TIP3   OH231057   3.596   2.144  17.019  0.5408  0.2055 -0.2132
 3189TIP3    H131058   3.558   2.083  16.956  0.9299 -0.7159  0.4337
 3189TIP3    H231059   3.523   2.203  17.042 -0.3631 -1.1977  0.5900
 3190TIP3   OH231060   3.542   6.329   2.927 -0.8224  0.6329 -0.2551
 3190TIP3    H131061   3.611   6.343   2.991 -0.0302  0.2239 -1.0137
 3190TIP3    H231062   3.463   6.315   2.980 -0.3593  1.2282  0.6077
 3191TIP3   OH231063   1.945   5.250   5.545  0.5786  0.2615  0.2132
 3191TIP3    H131064   1.905   5.334   5.564  1.8801  1.4448 -2.1053
 3191TIP3    H231065   1.879   5.202   5.495  0.7268  0.8085 -0.4986
 3192TIP3   OH231066   1.992   4.458   3.020 -0.4724  0.2998  0.0591
 3192TIP3    H131067   2.028   4.499   2.942  1.4595 -0.5617  0.4694
 3192TIP3    H231068   1.898   4.453   3.004 -0.4181  2.5147 -1.0775
 3193TIP3   OH231069   5.006   2.034  13.002  0.0911 -0.1982 -0.4673
 3193TIP3    H131070   4.960   2.074  12.928 -1.2919 -0.2098  0.3650
 3193TIP3    H231071   5.053   2.107  13.043  2.4237 -0.5479 -2.4788
 3194TIP3   OH231072   4.143   5.515  16.634 -0.2177 -0.2655 -0.0432
 3194TIP3    H131073   4.128   5.502  16.728  1.4642 -0.6186  0.1896
 3194TIP3    H231074   4.217   5.458  16.614  0.1010  0.6159 -1.3665
 3195TIP3   OH231075   1.251   3.849  12.956  0.3609  0.0480 -0.3366
 3195TIP3    H131076   1.306   3.925  12.936  0.6510 -0.3518 -1.0879
 3195TIP3    H231077   1.188   3.847  12.884 -0.1418  0.0394  0.1034
 3196TIP3   OH231078   0.428   1.707   4.075  0.3918  0.6059 -0.2934
 3196TIP3    H131079   0.347   1.699   4.126  0.1674  1.9178 -0.4367
 3196TIP3    H231080   0.463   1.792   4.100  1.9703 -0.1400  0.1051
 3197TIP3   OH231081   2.076   1.027  12.387 -0.0855  0.7001 -0.2502
 3197TIP3    H131082   2.013   1.073  12.441  0.5601  0.6793  0.5236
 3197TIP3    H231083   2.023   0.980  12.323 -0.9794 -0.8478  1.5846
 3198TIP3   OH231084   2.815   2.704  16.762 -0.5798  0.0269 -0.3577
 3198TIP3    H131085   2.743   2.659  16.806 -0.7605 -0.0745 -0.7528
 3198TIP3    H231086   2.776   2.738  16.681 -0.4786  1.0163  0.0101
 3199TIP3   OH231087   3.731   2.672   5.230  0.1221 -0.3832  0.0228
 3199TIP3    H131088   3.717   2.645   5.139  1.2419  0.6494 -0.4743
 3199TIP3    H231089   3.749   2.766   5.225  1.3492 -0.5396  1.1872
 3200TIP3   OH231090   2.795   5.650  13.277 -0.3544 -0.4433  0.3009
 3200TIP3    H131091   2.800   5.690  13.190  0.0903 -1.4302 -0.1370
 3200TIP3    H231092   2.738   5.708  13.327  1.9797  1.9279  0.3303
 3201TIP3   OH231093   6.494   2.854   4.240 -0.1771  0.5989  0.3384
 3201TIP3    H131094   6.552   2.805   4.298 -1.0030  0.9153  1.4511
 3201TIP3    H231095   6.464   2.789   4.176 -0.3182 -0.0825  1.0872
 3202TIP3   OH231096   5.037   0.282  17.153  0.0572  0.4836  0.2165
 3202TIP3    H131097   4.991   0.364  17.134 -0.7862  0.2064  0.9947
 3202TIP3    H231098   5.082   0.260  17.072  0.3573  1.7614  0.0287
 3203TIP3   OH231099   3.694   2.169  15.517  0.1025  0.1873 -0.4902
 3203TIP3    H131100   3.661   2.227  15.449  1.0521  1.1729 -0.1330
 3203TIP3    H231101   3.618   2.118  15.545 -0.5773  0.7283 -1.3445
 3204TIP3   OH231102   5.827   3.911   1.877  0.3193 -0.8444 -0.6774
 3204TIP3    H131103   5.831   3.941   1.787  1.2659 -0.2827 -0.4523
 3204TIP3    H231104   5.796   3.821   1.872 -0.9442 -0.3798 -1.4696
 3205TIP3   OH231105   2.635   1.017   5.835 -0.2292 -0.3337 -0.1079
 3205TIP3    H131106   2.604   1.099   5.872 -1.8790  0.5697 -3.2740
 3205TIP3    H231107   2.728   1.033   5.816 -0.1373  0.2145  0.7549
 3206TIP3   OH231108   2.370   2.835   0.581  0.1147  0.4426 -0.0496
 3206TIP3    H131109   2.276   2.821   0.565  0.2064  0.3312 -0.4990
 3206TIP3    H231110   2.384   2.803   0.670 -0.2654  0.4066 -0.0003
 3207TIP3   OH231111   0.483   5.659  13.690 -1.0924  0.3124 -0.0677
 3207TIP3    H131112   0.535   5.655  13.770 -0.2916  0.7905 -0.5455
 3207TIP3    H231113   0.540   5.705  13.627 -2.3853  1.5298 -0.3791
 3208TIP3   OH231114   2.513   5.505   1.953 -0.6034 -0.0428 -0.3015
 3208TIP3    H131115   2.432   5.546   1.983 -1.4094 -1.5159 -0.4194
 3208TIP3    H231116   2.582   5.548   2.004 -1.2733  2.3534 -1.3146
 3209TIP3   OH231117   6.488   5.203  16.023 -0.3135 -0.2062  0.3436
 3209TIP3    H131118   6.565   5.242  15.982  0.3411  1.0859  2.6961
 3209TIP3    H231119   6.414   5.239  15.975  0.4831  0.2487 -0.5523
 3210TIP3   OH231120   3.598   6.063  13.670  0.0414  0.1859  0.1899
 3210TIP3    H131121   3.619   5.982  13.717  0.4533 -0.3076 -0.8220
 3210TIP3    H231122   3.532   6.036  13.605 -0.3593  0.8073  0.3426
 3211TIP3   OH231123   0.814   1.157   0.549 -0.3764 -0.5647  0.0118
 3211TIP3    H131124   0.804   1.213   0.473 -1.3390 -0.4115  0.2450
 3211TIP3    H231125   0.862   1.210   0.612 -2.0820  0.3479  0.5771
 3212TIP3   OH231126   0.208   5.894  14.297  1.1508  0.4075  0.1923
 3212TIP3    H131127   0.211   5.858  14.208 -1.2573  1.1080 -0.2074
 3212TIP3    H231128   0.181   5.985  14.285  2.3261  0.9485  1.5472
 3213TIP3   OH231129   2.457   1.795  12.173 -0.1106 -0.3855 -0.1351
 3213TIP3    H131130   2.410   1.780  12.091 -0.3672 -0.5270  0.0356
 3213TIP3    H231131   2.499   1.711  12.192  0.0236 -0.3254 -0.1703
 3214TIP3   OH231132   6.537   6.627   3.172  0.2838 -0.3355 -0.1808
 3214TIP3    H131133   6.623   6.669   3.174 -0.2382  0.7638 -0.5048
 3214TIP3    H231134   6.520   6.603   3.263  0.6276  0.0650 -0.0081
 3215TIP3   OH231135   5.172   1.691   2.876  0.1238 -0.2394 -0.1071
 3215TIP3    H131136   5.136   1.707   2.789  0.7955 -1.2866 -0.5960
 3215TIP3    H231137   5.162   1.774   2.922 -1.7277 -0.1410 -0.6468
 3216TIP3   OH231138   4.579   4.729   4.019 -0.3067 -0.5365  0.0541
 3216TIP3    H131139   4.580   4.773   3.934  1.5036 -1.7349 -0.5636
 3216TIP3    H231140   4.491   4.747   4.054 -0.7810  0.6706 -1.6779
 3217TIP3   OH231141   1.009   3.409   3.194 -0.2888 -0.4493 -0.3380
 3217TIP3    H131142   0.948   3.404   3.120  0.1707 -0.2304 -0.7355
 3217TIP3    H231143   1.095   3.395   3.155  0.1336  1.4182 -0.1188
 3218TIP3   OH231144   6.706   0.074   5.564  1.1136 -0.0371  0.1550
 3218TIP3    H131145   6.770   0.007   5.586 -0.2871 -0.9883  1.4138
 3218TIP3    H231146   6.622   0.039   5.595  0.0623  1.4238 -0.9613
 3219TIP3   OH231147   6.522   4.416   5.949 -0.2470  0.6028  0.2083
 3219TIP3    H131148   6.525   4.507   5.920  1.2268  0.0986 -1.2514
 3219TIP3    H231149   6.610   4.382   5.932 -1.0647 -1.3844 -0.1832
 3220TIP3   OH231150   0.689   6.611  13.054 -0.3935  0.3649  0.8046
 3220TIP3    H131151   0.659   6.562  12.977 -1.1049  2.0313 -0.0069
 3220TIP3    H231152   0.778   6.639  13.031  0.3620 -1.2952  1.6407
 3221TIP3   OH231153   3.087   3.330   4.525  0.0278  0.2330 -0.4330
 3221TIP3    H131154   3.036   3.370   4.454  0.7609  1.6913 -0.1575
 3221TIP3    H231155   3.177   3.356   4.508  0.2049  0.6530  1.0482
 3222TIP3   OH231156   6.396   4.801  13.120 -0.6003 -0.1810  0.0515
 3222TIP3    H131157   6.486   4.832  13.112  0.2098 -2.6232 -0.8912
 3222TIP3    H231158   6.345   4.879  13.141  1.7334  1.2355  0.5987
 3223TIP3   OH231159   2.543   6.286  15.087 -0.1115 -0.6301 -0.5745
 3223TIP3    H131160   2.627   6.265  15.045 -0.0196 -0.6979 -0.3563
 3223TIP3    H231161   2.567   6.336  15.165 -0.2909 -0.3656 -0.6865
 3224TIP3   OH231162   2.479   5.141   4.556  0.5888  0.0704  0.4547
 3224TIP3    H131163   2.437   5.086   4.491 -0.6965  0.9932  0.4718
 3224TIP3    H231164   2.523   5.080   4.615  0.9890 -0.8136 -0.7403
 3225TIP3   OH231165   1.065   4.124   3.632  0.2586  0.6744  0.9501
 3225TIP3    H131166   1.028   4.209   3.656 -1.3565 -0.2870  2.0003
 3225TIP3    H231167   1.151   4.122   3.674  0.3708  1.8484  0.7844
 3226TIP3   OH231168   4.160   6.027   0.684 -0.2273  0.4619 -0.4559
 3226TIP3    H131169   4.230   6.036   0.619  0.0488  1.3824 -0.0382
 3226TIP3    H231170   4.123   5.940   0.667  0.9674 -0.0104 -0.7314
 3227TIP3   OH231171   2.820   4.881  14.875 -0.5737  0.3636 -0.3876
 3227TIP3    H131172   2.741   4.922  14.909  0.1687  0.2316  1.5714
 3227TIP3    H231173   2.881   4.954  14.862 -0.2019  0.1887  0.4009
 3228TIP3   OH231174   3.390   1.024  12.137 -0.2781 -0.2365  0.4008
 3228TIP3    H131175   3.294   1.020  12.134 -0.3032 -0.8414  1.7843
 3228TIP3    H231176   3.419   0.945  12.092 -0.4129  0.3728 -0.7693
 3229TIP3   OH231177   5.171   2.648  11.907 -0.1684 -0.2727  0.2040
 3229TIP3    H131178   5.209   2.718  11.853  0.4235  0.8220  2.0195
 3229TIP3    H231179   5.191   2.568  11.859 -0.9399  0.7633 -1.9710
 3230TIP3   OH231180   3.904   3.608   0.717 -0.1056 -0.1276 -0.1913
 3230TIP3    H131181   3.842   3.539   0.692 -0.9012  1.1704 -1.8597
 3230TIP3    H231182   3.985   3.585   0.672  0.6404 -1.7184  1.8369
 3231TIP3   OH231183   2.073   0.051  12.502 -0.1186 -0.5561 -0.0872
 3231TIP3    H131184   2.120   0.086  12.578  0.9788 -2.6409  0.2416
 3231TIP3    H231185   2.050   0.128  12.451  1.4624  0.7112  1.0315
 3232TIP3   OH231186   3.699   2.289   1.918  0.2854  0.0852 -0.4110
 3232TIP3    H131187   3.750   2.360   1.957 -0.2334  0.5267 -0.5259
 3232TIP3    H231188   3.607   2.313   1.935  0.0355  0.5017 -2.2265
 3233TIP3   OH231189   6.469   6.028   3.519 -0.1509 -0.0356  1.0590
 3233TIP3    H131190   6.429   5.949   3.484 -1.1696  0.3712  1.3060
 3233TIP3    H231191   6.399   6.071   3.568 -0.2377  2.1433 -0.9019
 3234TIP3   OH231192   1.914   4.218  14.619 -0.2912 -0.6058 -0.5149
 3234TIP3    H131193   2.001   4.254  14.600 -0.0918 -1.3297 -1.0072
 3234TIP3    H231194   1.919   4.128  14.588 -1.4316 -0.4511 -1.1585
 3235TIP3   OH231195   3.930   5.935  14.865  0.1626 -0.3300  0.0511
 3235TIP3    H131196   4.000   5.998  14.881 -0.2478  0.4002 -0.9291
 3235TIP3    H231197   3.882   5.931  14.947  0.8760 -0.2249  0.4750
 3236TIP3   OH231198   6.141   1.867   0.069  0.5045 -0.7471  0.1983
 3236TIP3    H131199   6.091   1.900  -0.006  1.0546 -0.4272 -0.0307
 3236TIP3    H231200   6.088   1.891   0.145  1.2297  1.3191  0.0903
 3237TIP3   OH231201   3.944   5.952  13.026 -0.3390  0.3283  0.4140
 3237TIP3    H131202   3.849   5.953  13.033 -0.5630 -1.9794 -1.5310
 3237TIP3    H231203   3.974   5.921  13.111 -1.3246  0.6820  0.9069
 3238TIP3   OH231204   5.223   4.193   4.955 -0.0289  0.4631  0.7951
 3238TIP3    H131205   5.170   4.139   4.896  0.0239  0.1357  1.0488
 3238TIP3    H231206   5.245   4.135   5.028  1.8429  0.2035  0.0380
 3239TIP3   OH231207   0.988   5.135  14.020 -0.3370 -0.5250  0.1594
 3239TIP3    H131208   1.072   5.114  13.978 -0.0750  0.2999  0.2502
 3239TIP3    H231209   1.005   5.217  14.067 -1.6338  0.5530 -1.1911
 3240TIP3   OH231210   6.795   4.674  11.900  0.2296 -0.7517 -0.5052
 3240TIP3    H131211   6.792   4.745  11.836 -0.8393  0.8004  1.2126
 3240TIP3    H231212   6.705   4.639  11.900  0.1758 -0.6067  0.2948
 3241TIP3   OH231213   6.042   2.370  12.492 -0.6085  0.8427 -0.4948
 3241TIP3    H131214   6.111   2.321  12.449  0.4363 -0.0967  2.1372
 3241TIP3    H231215   6.078   2.392  12.578 -3.8510 -0.3852  1.2510
 3242TIP3   OH231216   1.806   2.912  13.378 -0.1901 -0.1844 -0.0756
 3242TIP3    H131217   1.830   2.844  13.440 -1.8089 -0.2525  0.5129
 3242TIP3    H231218   1.849   2.887  13.297 -0.1583 -1.5039  0.3321
 3243TIP3   OH231219   1.136   5.204   0.256  0.3818  0.3625 -0.1503
 3243TIP3    H131220   1.134   5.289   0.212 -0.5994 -0.4594 -1.7311
 3243TIP3    H231221   1.209   5.157   0.216 -1.0462 -0.7129 -1.6004
 3244TIP3   OH231222   3.654   4.351   2.306  0.4098 -0.3555 -0.0278
 3244TIP3    H131223   3.574   4.300   2.294  0.7337 -0.7056 -0.7057
 3244TIP3    H231224   3.712   4.294   2.356  0.2115 -0.0670  0.5445
 3245TIP3   OH231225   0.902   3.012   6.130  0.5357 -0.3872 -0.1172
 3245TIP3    H131226   0.847   3.001   6.052  0.8835  0.2840 -0.4623
 3245TIP3    H231227   0.845   2.985   6.202  0.3496 -1.4054 -0.6354
 3246TIP3   OH231228   1.954   2.867   4.271  0.4478 -0.2219  0.1029
 3246TIP3    H131229   1.938   2.781   4.311 -3.5233  1.0134  1.4342
 3246TIP3    H231230   1.916   2.861   4.184  0.2915  0.1328  0.1444
 3247TIP3   OH231231   1.237   3.972  15.540  0.0576 -0.2561  0.4875
 3247TIP3    H131232   1.262   4.055  15.581 -1.0197 -0.1016  0.8230
 3247TIP3    H231233   1.297   3.964  15.465  1.1717  0.0824  1.3343
 3248TIP3   OH231234   6.326   0.060   2.305 -1.1241 -0.4841 -0.4609
 3248TIP3    H131235   6.408   0.072   2.353 -1.5572  0.0951  0.1470
 3248TIP3    H231236   6.331  -0.029   2.270 -0.8210 -0.9406  0.7092
 3249TIP3   OH231237   5.789   5.677   5.582  0.5284 -0.2616  0.7609
 3249TIP3    H131238   5.774   5.592   5.622 -1.8982 -0.4635 -0.5224
 3249TIP3    H231239   5.814   5.658   5.492  2.8378  0.3151  1.2316
 3250TIP3   OH231240   0.137   0.970  14.418  0.1173  0.0798  0.2336
 3250TIP3    H131241   0.210   0.924  14.460  0.1517  0.8604  1.0291
 3250TIP3    H231242   0.134   1.055  14.461 -0.9962  0.2093 -0.0902
 3251TIP3   OH231243   1.019   6.358  14.531 -0.3969  1.2662  0.4789
 3251TIP3    H131244   0.988   6.269  14.518  2.0445  0.7025 -1.6437
 3251TIP3    H231245   1.044   6.361  14.624 -2.0444  0.2984  0.9846
 3252TIP3   OH231246   1.277   0.647  14.888 -0.2227 -0.0025  0.6711
 3252TIP3    H131247   1.318   0.661  14.803  1.3208  0.3519  1.4500
 3252TIP3    H231248   1.209   0.713  14.894 -0.3873 -0.0785 -0.3190
 3253TIP3   OH231249   6.009   6.563  15.748  0.1842 -0.2496 -0.0896
 3253TIP3    H131250   5.945   6.492  15.756 -0.3118  0.4603  2.6993
 3253TIP3    H231251   5.987   6.605  15.664 -1.8669 -1.1143 -0.0246
 3254TIP3   OH231252   6.548   0.102  11.255  0.2795  0.5000 -0.6546
 3254TIP3    H131253   6.614   0.091  11.322  0.0129 -1.3656 -0.6687
 3254TIP3    H231254   6.499   0.180  11.281 -0.8772 -1.1075  2.2291
 3255TIP3   OH231255   0.639   5.874  13.837 -0.0150 -0.1102  0.7373
 3255TIP3    H131256   0.730   5.893  13.857 -0.3276 -0.3692  2.5214
 3255TIP3    H231257   0.589   5.934  13.894 -0.9615  0.0582 -0.2394
 3256TIP3   OH231258   3.403   6.615  16.677  0.3132 -0.0155 -0.2144
 3256TIP3    H131259   3.349   6.690  16.651 -0.7668 -1.0230 -0.8964
 3256TIP3    H231260   3.350   6.538  16.655  1.1043 -0.9703  1.1884
 3257TIP3   OH231261   5.532   5.384  11.994 -0.1374 -0.2195 -0.4952
 3257TIP3    H131262   5.614   5.425  12.021  0.2817  2.8206 -5.6808
 3257TIP3    H231263   5.464   5.439  12.032  0.2203 -0.8590  1.1259
 3258TIP3   OH231264   0.672   1.940  11.052  0.0595 -0.2567 -0.3074
 3258TIP3    H131265   0.606   1.934  10.983  0.4112  0.8478 -0.7488
 3258TIP3    H231266   0.754   1.956  11.005  0.1252  1.6531  0.4168
 3259TIP3   OH231267   4.765   1.225  13.333 -0.2519 -0.2619  0.7037
 3259TIP3    H131268   4.707   1.237  13.408 -2.2759  0.8665 -1.0053
 3259TIP3    H231269   4.815   1.306  13.328 -0.1624 -0.3113  0.8044
 3260TIP3   OH231270   2.928   3.188   2.732  0.0828 -0.1708 -0.3075
 3260TIP3    H131271   2.894   3.269   2.693  0.7975  0.4326  0.3011
 3260TIP3    H231272   2.917   3.200   2.827  0.4955 -0.6395 -0.1944
 3261TIP3   OH231273   5.651   2.171   4.557  0.2792 -0.5831 -0.0265
 3261TIP3    H131274   5.589   2.133   4.620  0.5620  0.1869  0.7268
 3261TIP3    H231275   5.725   2.110   4.558  0.3574 -0.4835  0.5167
 3262TIP3   OH231276   0.475   5.441  14.054 -0.0550  0.3861 -0.4233
 3262TIP3    H131277   0.479   5.359  14.004 -0.2205 -0.6178  1.1642
 3262TIP3    H231278   0.558   5.444  14.101 -0.1029  1.0774 -0.3779
 3263TIP3   OH231279   3.992   1.765   1.718  0.2907  0.1262 -0.0837
 3263TIP3    H131280   4.064   1.741   1.660  0.9611  0.5368  0.5841
 3263TIP3    H231281   3.941   1.828   1.667  0.3914 -0.1633 -0.5557
 3264TIP3   OH231282   1.966   0.518   6.495  0.2245  0.2808  0.4687
 3264TIP3    H131283   2.043   0.552   6.450 -0.1399  0.0997 -0.3115
 3264TIP3    H231284   1.893   0.537   6.435  0.0332 -2.0606 -0.0998
 3265TIP3   OH231285   3.592   1.815   2.927 -0.0732  0.5270  0.1656
 3265TIP3    H131286   3.552   1.899   2.908  0.3187  0.6464 -0.1439
 3265TIP3    H231287   3.547   1.784   3.006 -0.2007  1.0350  0.2928
 3266TIP3   OH231288   0.665   4.804  15.708 -0.5452 -0.1017  0.3420
 3266TIP3    H131289   0.732   4.738  15.692 -2.0685 -1.9559  1.3169
 3266TIP3    H231290   0.658   4.853  15.626  2.4248  0.5823  0.4368
 3267TIP3   OH231291   3.418   2.982  15.951  0.4482 -0.7134  0.3954
 3267TIP3    H131292   3.366   3.053  15.990 -0.4696 -1.6893  0.9489
 3267TIP3    H231293   3.488   3.028  15.904 -0.9146  0.6290 -0.3878
 3268TIP3   OH231294   0.607   5.558   6.811  0.4306  0.0510 -0.2143
 3268TIP3    H131295   0.621   5.543   6.718 -2.2209  0.8605 -0.7802
 3268TIP3    H231296   0.664   5.633   6.832 -0.6359  1.3114 -1.7065
 3269TIP3   OH231297   4.876   4.845  12.722  0.1474 -0.1774 -0.1979
 3269TIP3    H131298   4.844   4.912  12.662  1.7801  1.5072  0.7475
 3269TIP3    H231299   4.851   4.876  12.808 -0.6232 -1.6851  0.1295
 3270TIP3   OH231300   1.590   3.956  11.239  0.1714 -0.2184  0.6499
 3270TIP3    H131301   1.617   3.916  11.156  0.7249 -0.5536  0.9928
 3270TIP3    H231302   1.671   3.970  11.287 -0.1324  0.1507  1.0661
 3271TIP3   OH231303   3.768   1.383  16.013 -0.4742 -0.3422 -0.1464
 3271TIP3    H131304   3.698   1.447  15.998  0.1027 -0.1947 -2.4402
 3271TIP3    H231305   3.726   1.298  16.003 -1.1239 -0.3434  2.3511
 3272TIP3   OH231306   0.976   5.764   0.064 -0.4468 -0.0048  0.9247
 3272TIP3    H131307   0.901   5.781   0.007 -1.3563 -0.0321  2.1004
 3272TIP3    H231308   0.980   5.669   0.071 -0.5582  0.0115  1.2055
 3273TIP3   OH231309   4.607   3.603   5.413 -0.1837  0.4028 -0.2917
 3273TIP3    H131310   4.532   3.661   5.428 -0.1062  0.7460 -1.1573
 3273TIP3    H231311   4.682   3.663   5.406 -0.3196  0.3600 -2.7262
 3274TIP3   OH231312   3.496   5.338  11.249 -0.4412  0.0754 -0.3905
 3274TIP3    H131313   3.415   5.307  11.208 -1.3290  0.6510  0.9116
 3274TIP3    H231314   3.563   5.276  11.219 -1.7581 -1.7085  0.2874
 3275TIP3   OH231315   3.758   5.058  10.760 -0.5259 -0.0168  0.2855
 3275TIP3    H131316   3.761   4.968  10.727  3.3000  0.0735  0.1718
 3275TIP3    H231317   3.847   5.091  10.748 -1.9827  3.9846 -0.1369
 3276TIP3   OH231318   4.555   0.654  10.985  0.6611  0.0679  0.0992
 3276TIP3    H131319   4.559   0.627  10.893  0.3079 -2.2300  0.7296
 3276TIP3    H231320   4.475   0.707  10.991  1.5781  1.6654 -1.2480
 3277TIP3   OH231321   1.650   1.889   0.756  0.0708 -0.3110 -0.4299
 3277TIP3    H131322   1.732   1.886   0.804 -0.6554  1.7831  1.0101
 3277TIP3    H231323   1.632   1.982   0.743 -2.0536 -0.7206 -0.7499
 3278TIP3   OH231324   3.232   4.569   6.742  0.3254 -0.2820 -0.4934
 3278TIP3    H131325   3.181   4.488   6.733  1.1461 -1.1491  2.3144
 3278TIP3    H231326   3.169   4.634   6.774  0.6509 -1.0137  1.6937
 3279TIP3   OH231327   1.614   0.328   3.294  0.3817 -0.0158 -0.2331
 3279TIP3    H131328   1.583   0.290   3.212 -1.2827 -0.5819  0.6391
 3279TIP3    H231329   1.636   0.418   3.271  0.3230 -0.2851 -1.3911
 3280TIP3   OH231330   2.705   3.471   1.616 -0.4062 -0.5696  0.2889
 3280TIP3    H131331   2.639   3.501   1.679 -1.8113 -0.7959 -1.0637
 3280TIP3    H231332   2.771   3.541   1.617 -0.7147 -0.2656  1.5363
 3281TIP3   OH231333   3.879   0.563   1.562  0.8631 -0.2338 -0.7358
 3281TIP3    H131334   3.848   0.546   1.473 -0.0701 -0.5946 -0.3476
 3281TIP3    H231335   3.830   0.501   1.616  0.9792  0.4071  0.1005
 3282TIP3   OH231336   1.142   5.249   0.654  0.1625 -0.0681 -0.4635
 3282TIP3    H131337   1.230   5.270   0.622  0.1736  0.3035 -0.1991
 3282TIP3    H231338   1.090   5.236   0.575 -0.3661  3.0910 -0.7286
 3283TIP3   OH231339   3.018   0.624   0.967 -0.5870  0.5426 -0.4415
 3283TIP3    H131340   2.988   0.634   0.876 -0.2427 -0.5836 -0.6903
 3283TIP3    H231341   2.938   0.632   1.019 -0.8597  0.6985 -0.8756
 3284TIP3   OH231342   5.824   4.092  13.533 -0.1931 -0.5595 -0.2384
 3284TIP3    H131343   5.847   4.072  13.443 -1.7218  0.6703 -0.9102
 3284TIP3    H231344   5.739   4.135  13.528  0.3223  0.7647  1.6761
 3285TIP3   OH231345   2.349   4.992  13.573  0.0261 -0.3292 -0.4031
 3285TIP3    H131346   2.369   5.063  13.635 -0.1191 -1.7211  1.2641
 3285TIP3    H231347   2.435   4.958  13.548  0.0822  0.1873 -0.9291
 3286TIP3   OH231348   2.290   3.172   3.518  0.0199  0.1512  0.0119
 3286TIP3    H131349   2.221   3.225   3.558  0.8838  1.2387  0.0707
 3286TIP3    H231350   2.342   3.234   3.467  0.4436 -0.8117 -0.7364
 3287TIP3   OH231351   3.959   5.358   0.241 -0.4352  0.1512  0.1834
 3287TIP3    H131352   3.968   5.413   0.163 -0.5566  1.2251  0.9102
 3287TIP3    H231353   3.966   5.268   0.209  0.9930  0.6301 -0.8579
 3288TIP3   OH231354   5.875   6.572   1.789  0.3485 -0.3026 -0.4160
 3288TIP3    H131355   5.916   6.652   1.822  0.8942 -0.3667 -0.9332
 3288TIP3    H231356   5.933   6.543   1.718 -0.9953  0.0241 -1.6686
 3289TIP3   OH231357   0.460   6.171  15.540  0.3338 -0.4451  0.0633
 3289TIP3    H131358   0.373   6.134  15.528 -0.3319  1.4489 -1.0098
 3289TIP3    H231359   0.445   6.253  15.587  1.7131 -0.9621  1.4756
 3290TIP3   OH231360   5.649   6.055  13.742 -0.0406 -0.4324 -0.2824
 3290TIP3    H131361   5.618   6.113  13.811 -0.2054 -1.9541  0.9440
 3290TIP3    H231362   5.689   6.114  13.678 -2.1592  1.2233 -0.1428
 3291TIP3   OH231363   3.388   0.541  11.679 -0.2842 -0.3029 -0.4200
 3291TIP3    H131364   3.387   0.603  11.606  0.1713 -0.6822 -0.7496
 3291TIP3    H231365   3.351   0.461  11.644 -0.3074 -0.4095 -0.1572
 3292TIP3   OH231366   4.350   2.632   4.537  0.2204  0.5613 -0.3381
 3292TIP3    H131367   4.362   2.725   4.557 -0.2475  0.8701 -1.4420
 3292TIP3    H231368   4.437   2.601   4.512  0.4619  0.5970  0.4661
 3293TIP3   OH231369   0.601   3.022  15.815  0.3154 -0.8720  0.2528
 3293TIP3    H131370   0.674   3.077  15.844  0.0680 -0.3571 -0.0930
 3293TIP3    H231371   0.638   2.934  15.810  1.0318 -0.5390 -0.3536
 3294TIP3   OH231372   6.248   5.330   4.937  0.1876 -0.2739 -0.0179
 3294TIP3    H131373   6.180   5.305   5.000  0.1078  1.5501  0.6673
 3294TIP3    H231374   6.289   5.408   4.976  0.4598  0.6027 -1.9899
 3295TIP3   OH231375   0.717   1.453   0.775  0.4443  0.6323  0.6404
 3295TIP3    H131376   0.624   1.456   0.795  0.6343  0.4569  1.6213
 3295TIP3    H231377   0.748   1.374   0.819  1.2856  1.3717  1.4088
 3296TIP3   OH231378   5.013   2.173   3.403  0.1491  0.4644  0.5493
 3296TIP3    H131379   4.939   2.232   3.412 -0.9367 -0.6999 -0.6174
 3296TIP3    H231380   5.073   2.218   3.344 -2.0372 -0.8460 -2.8306
 3297TIP3   OH231381   5.905   1.354   5.840  0.4302 -0.3357 -0.6083
 3297TIP3    H131382   5.948   1.429   5.880 -0.8042  0.8001 -1.3705
 3297TIP3    H231383   5.969   1.319   5.778  0.5086  0.9368 -1.2590
 3298TIP3   OH231384   0.035   2.870  11.425  0.4363  0.8551 -0.2208
 3298TIP3    H131385   0.130   2.862  11.433  0.3747  1.0738  0.8065
 3298TIP3    H231386   0.010   2.933  11.494 -0.7074 -0.9241  1.0238
 3299TIP3   OH231387   3.829   2.255   5.509 -0.0977 -0.2349  0.8220
 3299TIP3    H131388   3.862   2.328   5.457 -0.3529 -0.8812 -0.2472
 3299TIP3    H231389   3.908   2.207   5.535 -0.1271 -1.4252 -1.2097
 3300TIP3   OH231390   1.240   0.343  14.232  0.6161  0.2711 -0.0367
 3300TIP3    H131391   1.192   0.296  14.164  0.4345  0.1446  0.1808
 3300TIP3    H231392   1.174   0.366  14.297  0.4442  2.0143 -0.7873
 3301TIP3   OH231393   4.971   4.903   4.202  0.1836 -0.5456  0.4680
 3301TIP3    H131394   4.905   4.971   4.216 -2.6333 -3.5509  2.8149
 3301TIP3    H231395   4.931   4.844   4.138  1.3565 -1.4816  0.5756
 3302TIP3   OH231396   4.931   2.813  11.849 -0.0846 -0.0200 -0.1101
 3302TIP3    H131397   5.000   2.781  11.906 -0.9674 -2.2472 -0.2556
 3302TIP3    H231398   4.885   2.879  11.901  1.9460  1.3093  0.0768
 3303TIP3   OH231399   6.227   6.516  11.063  0.0368  0.4157  0.5475
 3303TIP3    H131400   6.175   6.596  11.058 -0.5587  0.0369  0.5991
 3303TIP3    H231401   6.288   6.531  11.136 -0.0512  0.8343  0.5334
 3304TIP3   OH231402   2.221   3.810   5.187  0.0236  1.1378 -0.0785
 3304TIP3    H131403   2.286   3.847   5.127  1.2895 -0.1217  0.4951
 3304TIP3    H231404   2.245   3.718   5.194 -1.7876  0.6723  0.2069
 3305TIP3   OH231405   5.251   3.991  12.716  0.2702  0.0120 -0.1584
 3305TIP3    H131406   5.287   3.929  12.653 -0.8159  0.6767 -1.4280
 3305TIP3    H231407   5.288   3.962  12.800  2.0254 -0.6437 -1.1139
 3306TIP3   OH231408   3.354   2.881   5.105  0.1608 -0.6306 -0.1382
 3306TIP3    H131409   3.326   2.792   5.082 -0.3181  0.2631 -3.3695
 3306TIP3    H231410   3.446   2.884   5.079  0.4600 -0.4917  0.9391
 3307TIP3   OH231411   4.572   0.981  10.524 -0.2651 -0.0040 -0.0730
 3307TIP3    H131412   4.547   1.060  10.572  2.4152  0.3962  0.7682
 3307TIP3    H231413   4.514   0.913  10.557 -1.0974  1.1282  0.8543
 3308TIP3   OH231414   6.273   2.000  14.612  0.6300  0.0264  0.2099
 3308TIP3    H131415   6.204   1.936  14.631 -1.8729  2.7598  0.6539
 3308TIP3    H231416   6.342   1.981  14.675 -0.6653 -1.3615  1.2398
 3309TIP3   OH231417   3.665   3.036  14.629  0.4870  0.1793  0.2483
 3309TIP3    H131418   3.650   3.086  14.549 -0.5749 -0.6989 -0.1082
 3309TIP3    H231419   3.680   2.946  14.599  0.6705 -0.0458  1.0003
 3310TIP3   OH231420   1.560   4.936   3.898  0.0325  0.1148 -0.0620
 3310TIP3    H131421   1.507   4.868   3.941  1.0409 -0.0141  0.9888
 3310TIP3    H231422   1.511   5.017   3.913  0.2243  0.0273  1.0688
 3311TIP3   OH231423   0.566   5.058  12.976  0.0782  0.6556  0.4592
 3311TIP3    H131424   0.591   5.062  13.068  0.4980  1.5203  0.3060
 3311TIP3    H231425   0.554   4.964  12.959  0.6403  0.4451  1.2188
 3312TIP3   OH231426   2.513   2.764   0.357 -0.7771 -0.0003 -0.3708
 3312TIP3    H131427   2.475   2.822   0.423 -0.5412 -0.2668  0.0020
 3312TIP3    H231428   2.438   2.729   0.309 -0.9484  0.1840 -0.2366
 3313TIP3   OH231429   6.001   3.868   5.266  0.3299 -0.3012  0.2963
 3313TIP3    H131430   5.918   3.834   5.232 -0.0038 -0.3951  1.1800
 3313TIP3    H231431   6.060   3.793   5.267  1.0915  0.2382 -2.3605
 3314TIP3   OH231432   4.717   5.227  13.083  0.1415  0.0828  0.0373
 3314TIP3    H131433   4.657   5.218  13.157  0.9175  1.6056  0.8637
 3314TIP3    H231434   4.726   5.321  13.070 -0.0955 -0.1533 -2.1079
 3315TIP3   OH231435   0.421   0.083   1.988 -0.4139  0.7074  0.1272
 3315TIP3    H131436   0.390   0.004   1.943  1.4722 -0.9172  1.5953
 3315TIP3    H231437   0.508   0.098   1.951  0.0045  0.9832  1.2203
 3316TIP3   OH231438   1.456   2.832   0.287 -0.2821 -0.2341 -0.7950
 3316TIP3    H131439   1.541   2.793   0.306 -0.4845 -0.5842 -0.6047
 3316TIP3    H231440   1.398   2.757   0.273 -0.8739 -0.0233  0.4325
 3317TIP3   OH231441   1.104   0.757  15.991 -0.2907 -0.0244 -0.5375
 3317TIP3    H131442   1.197   0.773  15.976 -0.1466 -1.4115 -1.1733
 3317TIP3    H231443   1.102   0.686  16.054 -0.9230 -0.6769 -1.2941
 3318TIP3   OH231444   2.798   0.498   1.386  0.1680 -0.0221 -0.0834
 3318TIP3    H131445   2.825   0.409   1.408  1.7824  0.9529  2.1032
 3318TIP3    H231446   2.858   0.554   1.436 -2.1643  2.2760  0.2095
 3319TIP3   OH231447   0.531   1.594   3.134  0.3757 -0.0743  0.4375
 3319TIP3    H131448   0.581   1.675   3.149  1.6692 -0.7923  0.1054
 3319TIP3    H231449   0.527   1.586   3.038 -0.8556  0.2590  0.4568
 3320TIP3   OH231450   2.372   5.753   6.365 -0.0095  0.1460 -0.2063
 3320TIP3    H131451   2.388   5.745   6.459  1.1961  0.3688 -0.3879
 3320TIP3    H231452   2.392   5.666   6.330  4.0001  1.2170 -0.8677
 3321TIP3   OH231453   2.742   2.819   5.415 -0.4163 -0.3259 -0.2314
 3321TIP3    H131454   2.665   2.871   5.392 -0.3345 -0.8812 -1.8180
 3321TIP3    H231455   2.727   2.794   5.506 -0.5460  2.2790  0.4947
 3322TIP3   OH231456   4.392   0.807   3.600 -0.1453  0.0760  0.0055
 3322TIP3    H131457   4.391   0.898   3.630  1.9739  0.3678 -0.7653
 3322TIP3    H231458   4.476   0.772   3.630 -0.1272 -1.0832 -1.3520
 3323TIP3   OH231459   5.881   3.518   5.128 -0.0876  0.3495  0.0784
 3323TIP3    H131460   5.884   3.533   5.223  0.5805 -1.8514  0.4332
 3323TIP3    H231461   5.812   3.577   5.097 -0.0751  1.3513  1.8713
 3324TIP3   OH231462   6.302   1.366   1.015 -0.3562  0.4583  0.5294
 3324TIP3    H131463   6.347   1.406   1.089 -0.9032 -0.0494  1.1410
 3324TIP3    H231464   6.301   1.272   1.035  1.5154  0.0121 -1.2038
 3325TIP3   OH231465   0.772   2.871  11.506  0.3652 -0.5402  0.0371
 3325TIP3    H131466   0.842   2.881  11.571 -0.1363 -0.2902  0.5440
 3325TIP3    H231467   0.797   2.928  11.434 -0.9710  2.2069  1.6380
 3326TIP3   OH231468   6.782   5.725   2.774 -0.9627  0.5601 -0.4265
 3326TIP3    H131469   6.750   5.732   2.864 -0.6212  1.0183 -0.3379
 3326TIP3    H231470   6.750   5.805   2.732  0.8446  1.4837 -0.0908
 3327TIP3   OH231471   4.010   5.321   3.714  0.1924 -0.1708 -0.2055
 3327TIP3    H131472   4.084   5.271   3.749  1.8161  1.6723 -0.9235
 3327TIP3    H231473   4.048   5.377   3.648 -1.9323  0.5856 -0.8301
 3328TIP3   OH231474   4.011   2.486   1.073 -0.1814 -0.2333 -0.1714
 3328TIP3    H131475   3.981   2.576   1.081  2.3449  0.4888  1.4061
 3328TIP3    H231476   3.962   2.438   1.140  1.9055  0.8779  2.1886
 3329TIP3   OH231477   5.304   3.740  15.043 -0.5352  0.3879  0.4696
 3329TIP3    H131478   5.249   3.687  14.986  0.1707  0.4183 -0.2526
 3329TIP3    H231479   5.304   3.827  15.004 -1.4530  0.8593  1.4910
 3330TIP3   OH231480   5.553   0.781  13.329  0.2724 -0.5447 -0.3301
 3330TIP3    H131481   5.566   0.723  13.254 -1.4335 -0.4471 -0.7197
 3330TIP3    H231482   5.533   0.866  13.290 -1.3585 -0.6610  0.2313
 3331TIP3   OH231483   2.120   6.300  10.811  0.4010  0.1556 -0.1525
 3331TIP3    H131484   2.157   6.386  10.790  1.3168  0.2486  1.7558
 3331TIP3    H231485   2.178   6.238  10.767 -0.1303  0.4714 -1.3452
 3332TIP3   OH231486   1.039   3.594   0.440  0.1671 -0.4766  0.6928
 3332TIP3    H131487   0.990   3.640   0.508 -0.6751 -2.0845  1.1902
 3332TIP3    H231488   1.081   3.521   0.486  0.1547 -1.1693 -0.3826
 3333TIP3   OH231489   1.032   5.968   1.994 -0.6427 -0.7046  0.3180
 3333TIP3    H131490   1.021   6.054   2.034  2.4372 -0.2714  0.3690
 3333TIP3    H231491   1.030   5.907   2.068 -0.1879 -0.4031  0.5813
 3334TIP3   OH231492   1.321   1.563  14.809 -0.1126 -0.0119 -0.2660
 3334TIP3    H131493   1.380   1.542  14.736 -0.1155 -0.2523 -0.1968
 3334TIP3    H231494   1.363   1.523  14.885 -0.2049  0.0847 -0.1664
 3335TIP3   OH231495   6.774   5.573   1.712  0.0150  0.1627 -0.1943
 3335TIP3    H131496   6.698   5.631   1.714 -0.4137 -0.4039  0.1948
 3335TIP3    H231497   6.737   5.485   1.710  0.6203 -0.2058  2.4582
 3336TIP3   OH231498   2.258   4.477   1.056  0.3691 -0.0372 -0.1062
 3336TIP3    H131499   2.324   4.462   0.988  0.4168 -1.0576  0.1485
 3336TIP3    H231500   2.305   4.460   1.138  0.3922  1.4768  0.1964
 3337TIP3   OH231501   0.001   5.277   2.532 -0.1453  0.0488  0.0279
 3337TIP3    H131502  -0.040   5.363   2.542  0.2236  0.5706 -2.5597
 3337TIP3    H231503   0.093   5.292   2.552 -0.1721  0.1613  0.0673
 3338TIP3   OH231504   2.220   6.219  13.121  0.2407 -0.2262 -0.4154
 3338TIP3    H131505   2.186   6.183  13.203 -0.1507 -0.9048 -0.8713
 3338TIP3    H231506   2.190   6.310  13.120  2.0496  0.4228  1.1961
 3339TIP3   OH231507   0.327   5.892  12.836  0.2444  0.0680 -0.2156
 3339TIP3    H131508   0.411   5.894  12.789  0.2247 -0.1868 -0.2649
 3339TIP3    H231509   0.312   5.799  12.853 -0.7809 -0.0211 -1.5633
 3340TIP3   OH231510   1.421   0.789  11.200 -0.5355  0.5543 -0.7343
 3340TIP3    H131511   1.425   0.876  11.161 -0.4665  0.2614 -1.3879
 3340TIP3    H231512   1.489   0.789  11.267 -0.9857  1.2266 -0.2780
 3341TIP3   OH231513   0.485   0.212   2.851  0.2121 -0.2184 -0.6805
 3341TIP3    H131514   0.568   0.190   2.892  0.3250  0.3567 -0.5850
 3341TIP3    H231515   0.497   0.302   2.820 -0.9167  0.4877  0.8280
 3342TIP3   OH231516   1.201   2.150   2.989  0.4312  0.1637 -0.4069
 3342TIP3    H131517   1.118   2.115   2.958  0.9525  0.2115 -1.8966
 3342TIP3    H231518   1.250   2.072   3.017  0.5008 -0.0307 -1.0550
 3343TIP3   OH231519   1.221   3.105  11.195  0.3808  0.1278  0.5976
 3343TIP3    H131520   1.303   3.100  11.146  0.6080  0.7487  0.9117
 3343TIP3    H231521   1.153   3.087  11.130  0.8992 -2.9473  0.8420
 3344TIP3   OH231522   0.446   0.963   1.318  0.0310  0.1091  0.1285
 3344TIP3    H131523   0.359   0.942   1.283  0.0824 -1.4610  0.8968
 3344TIP3    H231524   0.446   1.059   1.326 -2.0002  0.0460  1.0865
 3345TIP3   OH231525   1.666   3.012  11.933 -0.2199  0.4085 -0.4864
 3345TIP3    H131526   1.736   2.976  11.879 -0.6457 -1.2498  0.0535
 3345TIP3    H231527   1.682   2.976  12.021 -2.6432 -1.2636 -0.6958
 3346TIP3   OH231528   2.590   0.014   5.563  0.0146 -0.0099  0.0458
 3346TIP3    H131529   2.535   0.018   5.485 -1.5850 -1.3030  1.0819
 3346TIP3    H231530   2.611   0.106   5.582  0.0819  0.3310 -1.6578
 3347TIP3   OH231531   1.100   5.795  17.079 -0.2917  0.0612 -0.0135
 3347TIP3    H131532   1.008   5.800  17.055 -0.0994 -0.0256 -0.7657
 3347TIP3    H231533   1.118   5.878  17.123 -0.5691  0.3275 -0.4081
 3348TIP3   OH231534   4.362   0.774   2.388  0.6756 -0.8293 -0.2287
 3348TIP3    H131535   4.458   0.777   2.396  0.6571  0.9076 -0.4053
 3348TIP3    H231536   4.340   0.851   2.335 -0.9093 -0.6326  0.6851
 3349TIP3   OH231537   0.021   5.141  13.813  0.0641  0.8738  0.0935
 3349TIP3    H131538   0.025   5.062  13.758  0.1491  0.6621  0.4041
 3349TIP3    H231539   0.015   5.213  13.750  0.2877  0.6383 -0.1987
 3350TIP3   OH231540   1.676   0.834   2.425  0.0402 -0.0027 -0.6409
 3350TIP3    H131541   1.657   0.776   2.499  0.4467  1.5094  0.6504
 3350TIP3    H231542   1.729   0.904   2.462 -0.6994  1.3692 -2.1448
 3351TIP3   OH231543   2.501   4.532  10.792 -0.1733 -0.3363 -0.0412
 3351TIP3    H131544   2.469   4.475  10.722 -1.5367 -0.3628  0.5717
 3351TIP3    H231545   2.551   4.600  10.748 -0.8430 -0.4684 -1.0166
 3352TIP3   OH231546   4.112   4.999   1.553 -0.4543 -0.0105  0.1605
 3352TIP3    H131547   4.027   5.034   1.526 -1.1300 -1.3794  0.4552
 3352TIP3    H231548   4.099   4.905   1.557  1.3053 -0.3057 -0.5176
 3353TIP3   OH231549   1.216   1.605  11.637  0.2666 -0.0426  1.1810
 3353TIP3    H131550   1.184   1.515  11.632 -0.1035  0.1542 -0.0059
 3353TIP3    H231551   1.307   1.599  11.608 -0.4018  0.2984 -1.0792
 3354TIP3   OH231552   5.130   5.078  13.011  0.3188 -0.7880 -0.4374
 3354TIP3    H131553   5.217   5.119  13.014 -0.0762 -0.0275  0.8967
 3354TIP3    H231554   5.123   5.043  12.922  1.5468  0.1252 -0.9060
 3355TIP3   OH231555   2.191   5.838  13.696  0.6322 -0.0186 -0.2048
 3355TIP3    H131556   2.219   5.855  13.606 -0.5015  1.2547 -0.3369
 3355TIP3    H231557   2.193   5.743  13.704  1.2182 -0.1182 -1.4263
 3356TIP3   OH231558   6.298   5.571   3.277 -0.1116 -0.0294 -0.3740
 3356TIP3    H131559   6.284   5.480   3.252 -0.1134 -0.9600  2.8000
 3356TIP3    H231560   6.210   5.609   3.277 -0.7392 -1.3098  2.7475
 3357TIP3   OH231561   2.161   1.038  13.684 -0.3595  0.6165  0.0656
 3357TIP3    H131562   2.147   1.036  13.778 -1.6211 -0.0608 -0.1159
 3357TIP3    H231563   2.154   0.946  13.657  0.1823  0.7808 -0.6657
 3358TIP3   OH231564   3.768   3.512  15.767 -0.1988 -0.8484 -0.3703
 3358TIP3    H131565   3.773   3.562  15.849 -1.9244 -0.2706 -0.5998
 3358TIP3    H231566   3.779   3.421  15.794  2.3580 -0.4344  0.1209
 3359TIP3   OH231567   4.674   1.294  15.965 -0.3926  0.1870 -0.6772
 3359TIP3    H131568   4.679   1.387  15.984  1.4916  0.2440 -1.3234
 3359TIP3    H231569   4.625   1.257  16.039  0.8169  1.3801  0.7647
 3360TIP3   OH231570   0.458   1.718   1.694 -0.4642 -0.0704 -0.6308
 3360TIP3    H131571   0.460   1.634   1.647  0.9405 -0.0049 -0.6995
 3360TIP3    H231572   0.439   1.694   1.784 -2.5118 -0.2513 -1.0824
 3361TIP3   OH231573   3.497   6.035  12.487  0.0302 -0.0159 -0.6069
 3361TIP3    H131574   3.420   5.982  12.507 -0.2807  0.1234 -1.4233
 3361TIP3    H231575   3.561   6.010  12.554 -0.8544  0.1579  0.3278
 3362TIP3   OH231576   4.027   0.965  16.368 -0.0738 -0.2728 -0.6248
 3362TIP3    H131577   3.940   0.989  16.402 -0.4628 -1.5170 -0.7137
 3362TIP3    H231578   4.084   0.969  16.444 -0.6087 -1.4018 -0.1531
 3363TIP3   OH231579   5.434   3.029   0.862  1.0023 -0.2247  0.6604
 3363TIP3    H131580   5.411   3.122   0.857  0.9570 -0.1863  1.4948
 3363TIP3    H231581   5.436   3.000   0.771  0.3628  0.4329  0.4326
 3364TIP3   OH231582   1.378   6.767   1.167  0.4470 -0.3284  0.5539
 3364TIP3    H131583   1.403   6.782   1.258 -1.9094 -0.2764  1.2156
 3364TIP3    H231584   1.378   6.854   1.127  1.1826 -0.3147  0.5826
 3365TIP3   OH231585   1.914   3.537   5.788  0.2917 -0.0205  0.0246
 3365TIP3    H131586   1.891   3.626   5.814 -0.2053  0.2076 -1.1510
 3365TIP3    H231587   1.952   3.498   5.866 -1.8177  0.4006  1.2943
 3366TIP3   OH231588   3.048   0.982  15.368  0.1215 -0.1748  0.1142
 3366TIP3    H131589   3.075   0.903  15.414 -0.7821 -0.4117  0.2534
 3366TIP3    H231590   3.000   0.950  15.292  0.9781  0.2281 -0.6097
 3367TIP3   OH231591   3.330   5.738   4.187 -0.5031 -0.6321  0.6739
 3367TIP3    H131592   3.355   5.649   4.162 -1.3128 -0.3695 -1.1396
 3367TIP3    H231593   3.304   5.779   4.105  0.6216  1.5375  1.3760
 3368TIP3   OH231594   3.417   1.473   0.419  0.0295 -0.1946  0.3056
 3368TIP3    H131595   3.366   1.491   0.497  0.1769  0.5522  0.2393
 3368TIP3    H231596   3.436   1.560   0.382 -0.4371 -0.5520 -0.8160
 3369TIP3   OH231597   2.046   3.596  17.242  0.2373 -0.7375 -0.4148
 3369TIP3    H131598   2.136   3.563  17.245  0.4091 -0.6723 -3.3548
 3369TIP3    H231599   2.049   3.678  17.290  1.3973 -1.4906  0.8363
 3370TIP3   OH231600   5.068   5.263  16.596  0.4625 -0.1587  0.1096
 3370TIP3    H131601   5.091   5.314  16.674  0.7324 -3.1436  2.0827
 3370TIP3    H231602   4.982   5.296  16.570  0.7754  1.5164  1.1252
 3371TIP3   OH231603   6.386   0.613  16.311 -0.5514 -0.5351  0.2535
 3371TIP3    H131604   6.365   0.564  16.231 -1.0850 -1.2009  0.7967
 3371TIP3    H231605   6.302   0.645  16.342 -0.2914  0.0731  0.3252
 3372TIP3   OH231606   4.059   3.683  17.034 -0.5195  0.4114  0.6300
 3372TIP3    H131607   3.992   3.643  17.089 -0.5836  2.5082  2.1769
 3372TIP3    H231608   4.014   3.752  16.987 -0.1895 -0.5694 -1.1629
 3373TIP3   OH231609   5.702   1.633  15.144  0.4636 -0.5788 -0.3160
 3373TIP3    H131610   5.753   1.575  15.087 -1.4891 -1.0426 -1.6633
 3373TIP3    H231611   5.624   1.582  15.165  0.0902  0.4765  0.8979
 3374TIP3   OH231612   4.795   1.596   4.633 -0.4005 -0.0799  0.2655
 3374TIP3    H131613   4.823   1.687   4.624 -2.9130  0.7894  0.7307
 3374TIP3    H231614   4.863   1.554   4.684  0.7204  1.5838  0.1672
 3375TIP3   OH231615   0.734   3.503   0.785  0.3114 -0.1026  0.0139
 3375TIP3    H131616   0.802   3.477   0.846 -0.0777  0.7943  0.8536
 3375TIP3    H231617   0.757   3.460   0.703  3.9649  3.0689 -0.7660
 3376TIP3   OH231618   3.073   3.907  16.056  0.0313 -0.3410 -0.0295
 3376TIP3    H131619   3.101   3.841  16.120 -0.1298  0.7338  1.1608
 3376TIP3    H231620   3.154   3.938  16.017  0.1336 -0.9752 -0.3309
 3377TIP3   OH231621   0.720   0.252  13.214  0.0667 -0.1002 -0.2617
 3377TIP3    H131622   0.643   0.268  13.268  0.7396 -1.1521  1.0241
 3377TIP3    H231623   0.693   0.185  13.152 -0.7819  1.2836 -1.4267
 3378TIP3   OH231624   5.641   1.770   2.040  0.4150 -0.0048  0.0357
 3378TIP3    H131625   5.625   1.842   1.978  0.6899 -0.0369 -0.0707
 3378TIP3    H231626   5.630   1.811   2.126 -3.3996 -0.7001 -0.0194
 3379TIP3   OH231627   2.523   2.524  13.427 -0.1790  0.6225 -0.1639
 3379TIP3    H131628   2.596   2.569  13.469  0.2662 -0.4461  0.2162
 3379TIP3    H231629   2.565   2.467  13.361 -0.5386 -1.2053  1.1556
 3380TIP3   OH231630   0.032   3.302   0.794 -0.1135  0.3564  0.0842
 3380TIP3    H131631  -0.053   3.342   0.777  0.3781  1.4406  0.1441
 3380TIP3    H231632   0.022   3.257   0.878 -0.2539  1.5508  0.7075
 3381TIP3   OH231633   4.524   6.535   5.911 -0.0665  0.1570  0.2192
 3381TIP3    H131634   4.605   6.566   5.870  0.4605  1.5360  2.2475
 3381TIP3    H231635   4.466   6.611   5.911 -0.9936 -0.5414 -0.2699
 3382TIP3   OH231636   0.631   2.236  16.704 -0.2006  0.8600 -0.8538
 3382TIP3    H131637   0.653   2.298  16.635  1.8033  0.5077 -0.5826
 3382TIP3    H231638   0.546   2.201  16.679 -0.3996  2.1751 -2.0974
 3383TIP3   OH231639   5.584   0.148  10.991  0.6947 -0.2483  0.0305
 3383TIP3    H131640   5.627   0.090  10.928  1.3425  1.4019 -1.0984
 3383TIP3    H231641   5.588   0.101  11.074  0.3437 -2.2272 -1.0388
 3384TIP3   OH231642   4.056   3.688   5.640  0.5757 -0.5249  0.0229
 3384TIP3    H131643   4.098   3.606   5.617 -2.9012 -2.6928  0.9674
 3384TIP3    H231644   4.058   3.690   5.736 -0.6528 -0.2891  0.0615
 3385TIP3   OH231645   4.642   3.692   0.149 -0.3034 -0.1927 -0.5277
 3385TIP3    H131646   4.637   3.782   0.116 -0.1707 -0.0439 -0.1464
 3385TIP3    H231647   4.559   3.680   0.197  0.7189  0.5628  1.4989
 3386TIP3   OH231648   6.683   4.764  16.742 -0.1123  0.2585 -0.3989
 3386TIP3    H131649   6.716   4.850  16.715 -0.7805  0.3212 -1.0416
 3386TIP3    H231650   6.708   4.756  16.834  0.6568  0.8019 -0.5482
 3387TIP3   OH231651   6.563   6.093  10.985  0.2130 -0.0862 -0.2170
 3387TIP3    H131652   6.605   6.178  10.999 -1.5606  0.8630 -0.5317
 3387TIP3    H231653   6.512   6.104  10.905 -0.1581 -1.4041 -0.1728
 3388TIP3   OH231654   5.138   6.311  14.739  0.2986 -0.0895 -0.0523
 3388TIP3    H131655   5.219   6.266  14.761  0.1284 -0.5661 -0.3898
 3388TIP3    H231656   5.149   6.399  14.774  0.8510 -0.2345  0.1402
 3389TIP3   OH231657   0.652   3.821  16.885 -0.5577  0.0293  0.9142
 3389TIP3    H131658   0.669   3.861  16.800 -0.8391  0.7589  1.2035
 3389TIP3    H231659   0.570   3.861  16.915 -1.1561 -1.1695  0.9490
 3390TIP3   OH231660   0.109   0.367   1.320  0.4995 -0.0402  0.6454
 3390TIP3    H131661   0.148   0.412   1.395  3.1190 -1.2440  0.0432
 3390TIP3    H231662   0.177   0.366   1.253 -0.7176 -1.7425 -0.6341
 3391TIP3   OH231663   3.659   0.396   1.227 -0.0406 -0.3627  0.1285
 3391TIP3    H131664   3.589   0.330   1.219 -0.5149 -0.1071  1.9238
 3391TIP3    H231665   3.739   0.345   1.234 -0.3568 -0.7642  0.9991
 3392TIP3   OH231666   2.765   0.211  12.500 -0.2723 -0.3327  0.3117
 3392TIP3    H131667   2.718   0.130  12.483 -1.2107  0.0673  0.9633
 3392TIP3    H231668   2.825   0.220  12.426 -0.8980 -1.0832 -0.2962
 3393TIP3   OH231669   0.278   3.703  15.837  0.0148 -0.3467  0.0361
 3393TIP3    H131670   0.215   3.714  15.767 -0.4755  3.1413  0.9162
 3393TIP3    H231671   0.349   3.764  15.816  2.1989 -2.7585  0.0891
 3394TIP3   OH231672   1.889   1.646   1.751 -0.2069 -0.7530  0.2644
 3394TIP3    H131673   1.983   1.635   1.758 -0.2507 -0.8542  0.6757
 3394TIP3    H231674   1.858   1.565   1.709 -0.1640 -0.8948  0.5114
 3395TIP3   OH231675   2.520   6.546   1.552 -0.3268 -0.4355 -0.8053
 3395TIP3    H131676   2.445   6.528   1.496 -0.4687  0.2148 -0.8198
 3395TIP3    H231677   2.484   6.596   1.625 -0.3237 -2.0814  0.3688
 3396TIP3   OH231678   5.475   1.578   5.593  0.3334 -0.3807  0.1734
 3396TIP3    H131679   5.469   1.571   5.688 -0.2763 -1.0685  0.0882
 3396TIP3    H231680   5.525   1.500   5.567  0.1465 -0.4084 -0.1058
 3397TIP3   OH231681   6.455   2.505  14.271  0.0426  0.2088 -0.1928
 3397TIP3    H131682   6.550   2.514  14.259  0.1310 -1.5309 -0.8755
 3397TIP3    H231683   6.421   2.482  14.185 -0.5618 -2.5007  0.7164
 3398TIP3   OH231684   1.792   6.727  12.381  0.5193 -0.4235 -0.3957
 3398TIP3    H131685   1.722   6.738  12.446 -2.0787  0.7521 -3.2539
 3398TIP3    H231686   1.783   6.637  12.351  0.3418 -0.3209 -0.6511
 3399TIP3   OH231687   5.561   4.754  14.505  0.4980  0.3056  0.1697
 3399TIP3    H131688   5.629   4.811  14.470 -0.5993  0.9588 -0.9213
 3399TIP3    H231689   5.596   4.724  14.589  1.9097  1.0333 -0.1469
 3400TIP3   OH231690   1.597   5.973  16.438  0.3710  0.4985 -0.4987
 3400TIP3    H131691   1.664   5.910  16.412  1.1439  0.9285  0.4227
 3400TIP3    H231692   1.612   5.987  16.531 -0.4820  1.2223 -0.4663
 3401TIP3   OH231693   4.596   3.024   3.444 -0.5115  0.5499  0.2949
 3401TIP3    H131694   4.663   2.956   3.446  0.1017  1.1585  0.9905
 3401TIP3    H231695   4.596   3.056   3.354  1.7030  2.0539  0.7885
 3402TIP3   OH231696   6.588   0.085  12.587 -0.1074  0.3331 -0.3579
 3402TIP3    H131697   6.630   0.081  12.501  2.4601 -0.7254  0.8847
 3402TIP3    H231698   6.647   0.035  12.644 -1.9490  0.7217  1.9373
 3403TIP3   OH231699   1.240   6.133  11.627 -0.1863 -0.4256 -0.8098
 3403TIP3    H131700   1.330   6.136  11.593  0.3628 -0.9254  0.5226
 3403TIP3    H231701   1.229   6.041  11.653 -0.5814 -0.0606  0.3215
 3404TIP3   OH231702   1.382   3.755   0.557  0.2826  0.3881 -0.4186
 3404TIP3    H131703   1.434   3.817   0.507  1.3826  0.0067  0.2362
 3404TIP3    H231704   1.368   3.681   0.498 -1.7762  1.5980 -1.5085
 3405TIP3   OH231705   2.980   5.813  14.906 -0.4001  0.1126  0.0521
 3405TIP3    H131706   3.066   5.801  14.947  0.0614 -0.3333 -1.0141
 3405TIP3    H231707   2.939   5.884  14.955  0.3505 -0.0519  0.9328
 3406TIP3   OH231708   6.509   5.958   4.366 -0.8129  0.6226  0.3098
 3406TIP3    H131709   6.463   6.036   4.335 -1.4512  0.8617  1.8009
 3406TIP3    H231710   6.474   5.943   4.454 -1.7838 -2.1878 -0.4905
 3407TIP3   OH231711   0.721   0.769  11.580 -0.4727 -0.1275  0.1770
 3407TIP3    H131712   0.734   0.848  11.527  1.1650  0.3372  1.2011
 3407TIP3    H231713   0.714   0.802  11.670 -0.7273 -1.0835  0.5074
 3408TIP3   OH231714   0.728   4.600   3.742 -0.0959  0.1136 -0.7455
 3408TIP3    H131715   0.817   4.594   3.778 -0.0777 -0.7702 -0.9137
 3408TIP3    H231716   0.690   4.514   3.760 -1.4158  0.9441  0.5960
 3409TIP3   OH231717   5.070   5.677   5.458  0.1353 -0.3123  0.4047
 3409TIP3    H131718   5.000   5.686   5.394 -0.6466 -0.7499  1.1944
 3409TIP3    H231719   5.026   5.656   5.540  1.1899 -0.6730  0.8959
 3410TIP3   OH231720   0.178   5.145   1.695  0.0966  0.4678  0.1507
 3410TIP3    H131721   0.215   5.154   1.607  0.2333  1.8862  0.3441
 3410TIP3    H231722   0.247   5.177   1.753 -0.0832 -0.2375  0.7570
 3411TIP3   OH231723   5.201   0.814  16.134 -0.3712 -0.0636 -0.1637
 3411TIP3    H131724   5.205   0.909  16.118  0.0762 -0.2521 -1.2118
 3411TIP3    H231725   5.220   0.805  16.228  2.4127  0.6837 -0.6159
 3412TIP3   OH231726   0.095   5.744  15.172  0.0666 -0.2374 -0.1354
 3412TIP3    H131727   0.089   5.838  15.190 -2.0003 -1.0366  3.8740
 3412TIP3    H231728   0.188   5.728  15.158  0.6600  2.1290  0.8087
 3413TIP3   OH231729   4.830   4.204  15.599  0.8318 -0.1704 -0.0374
 3413TIP3    H131730   4.832   4.197  15.504  0.0356 -0.7990 -0.0220
 3413TIP3    H231731   4.752   4.257  15.617  1.1924  0.2667  0.2527
 3414TIP3   OH231732   2.953   2.118   0.586 -0.5924  0.3316 -0.3503
 3414TIP3    H131733   2.988   2.184   0.646 -0.5977  0.3454 -0.3621
 3414TIP3    H231734   3.029   2.067   0.559 -0.7102 -0.1960  0.3028
 3415TIP3   OH231735   6.166   3.270  14.120 -0.0044 -0.1012  0.1156
 3415TIP3    H131736   6.205   3.348  14.081 -0.0355 -0.4350 -0.5923
 3415TIP3    H231737   6.075   3.293  14.136 -0.0351 -0.0248 -0.1773
 3416TIP3   OH231738   5.097   2.061   1.858 -0.3045 -0.4225  0.3211
 3416TIP3    H131739   5.067   2.020   1.777 -0.4326 -1.8908  1.0939
 3416TIP3    H231740   5.055   2.011   1.928 -2.0335  2.2867  1.2838
 3417TIP3   OH231741   1.752   1.497  13.530 -0.4915  0.4621 -0.0952
 3417TIP3    H131742   1.817   1.567  13.527  0.1979 -0.2100 -1.3867
 3417TIP3    H231743   1.692   1.516  13.459 -1.9847  1.3122  1.3589
 3418TIP3   OH231744   0.155   6.670  15.687 -0.1018  0.4867  0.0012
 3418TIP3    H131745   0.249   6.661  15.701 -0.2628 -0.2151  0.6251
 3418TIP3    H231746   0.128   6.741  15.745 -0.1797 -0.1900  0.8123
 3419TIP3   OH231747   1.842   4.732   2.909  0.4751 -0.3020 -0.0311
 3419TIP3    H131748   1.921   4.786   2.917 -0.6510  1.2275  1.3280
 3419TIP3    H231749   1.810   4.723   2.999 -1.9462  0.7575 -0.7401
 3420TIP3   OH231750   6.781   2.167   1.090  0.3600 -0.1588  0.0174
 3420TIP3    H131751   6.721   2.232   1.053 -1.2534 -1.4286  0.3488
 3420TIP3    H231752   6.724   2.103   1.133  1.9950 -0.9635  1.0509
 3421TIP3   OH231753   3.732   3.642   2.185  0.3821 -0.0160 -0.9040
 3421TIP3    H131754   3.698   3.563   2.143 -1.2666 -0.2667  0.8292
 3421TIP3    H231755   3.654   3.685   2.221  1.6299  0.6659  1.0462
 3422TIP3   OH231756   6.337   4.634   3.132 -0.3234 -0.5412  0.0666
 3422TIP3    H131757   6.413   4.579   3.153 -0.8774 -2.5625 -2.9267
 3422TIP3    H231758   6.365   4.686   3.056 -1.3633 -0.0217  0.0245
 3423TIP3   OH231759   2.198   4.226   3.494  0.2735 -0.6559 -0.0598
 3423TIP3    H131760   2.272   4.285   3.484  0.0984 -0.2306  1.0334
 3423TIP3    H231761   2.126   4.268   3.448  0.2693 -0.2272  0.3320
 3424TIP3   OH231762   1.543   4.981  16.743  0.1361 -0.3130  0.3547
 3424TIP3    H131763   1.568   5.069  16.713 -0.7042 -0.3296 -0.4303
 3424TIP3    H231764   1.621   4.947  16.786  0.5278  0.7562  0.5162
 3425TIP3   OH231765   1.905   4.637   4.629  0.5353  0.1345  0.0846
 3425TIP3    H131766   1.854   4.602   4.703  1.4279  0.2821  0.7767
 3425TIP3    H231767   1.840   4.653   4.561 -0.5556  1.7330  1.4814
 3426TIP3   OH231768   1.834   2.355  15.585  0.0014  0.0909 -0.2244
 3426TIP3    H131769   1.780   2.310  15.651  1.4961 -0.5940  0.5593
 3426TIP3    H231770   1.829   2.298  15.508 -0.5036  0.1013 -0.2043
 3427TIP3   OH231771   1.301   3.305   6.531  0.1081  0.0712 -0.4799
 3427TIP3    H131772   1.264   3.219   6.550  1.1969 -0.8028 -2.1018
 3427TIP3    H231773   1.231   3.367   6.550 -0.7210 -1.1878  0.6167
 3428TIP3   OH231774   0.661   2.399   2.841 -0.8656 -0.2218 -0.1895
 3428TIP3    H131775   0.596   2.453   2.798 -2.5621 -2.0076  0.0669
 3428TIP3    H231776   0.611   2.330   2.884  1.2279 -2.3253 -0.9560
 3429TIP3   OH231777   1.839   2.698  13.541 -0.1227 -0.1466  0.4311
 3429TIP3    H131778   1.824   2.647  13.461  1.6901  1.0979 -0.7252
 3429TIP3    H231779   1.896   2.643  13.595  1.2665  0.3263 -0.5235
 3430TIP3   OH231780   5.312   4.337   4.571  0.8306 -0.4246 -0.1331
 3430TIP3    H131781   5.401   4.301   4.569  0.7308 -0.6397 -2.4552
 3430TIP3    H231782   5.264   4.282   4.509  0.0125  2.0136 -1.7190
 3431TIP3   OH231783   2.856   5.773  13.042 -0.1611 -0.0114 -0.2549
 3431TIP3    H131784   2.863   5.731  12.956  1.7294 -1.4621  0.5748
 3431TIP3    H231785   2.888   5.862  13.027  0.2026 -0.2702 -1.0571
 3432TIP3   OH231786   3.413   0.166   3.817  0.4456 -0.5312  0.2927
 3432TIP3    H131787   3.324   0.185   3.787  0.9775  0.1099 -0.9083
 3432TIP3    H231788   3.404   0.150   3.911 -0.9433 -0.5236  0.1671
 3433TIP3   OH231789   2.437   1.180  12.437  0.1735  0.0970 -0.2656
 3433TIP3    H131790   2.446   1.088  12.460  0.1353 -0.2573 -1.6147
 3433TIP3    H231791   2.527   1.213  12.439  0.1864  0.0323  0.2314
 3434TIP3   OH231792   3.354   6.463   5.856  0.3839  0.0793 -0.4209
 3434TIP3    H131793   3.301   6.498   5.784 -0.4123  1.9101  0.9949
 3434TIP3    H231794   3.440   6.449   5.818 -0.4051 -0.3760 -2.0943
 3435TIP3   OH231795   1.789   2.682   0.625  0.2202 -0.2219  0.4761
 3435TIP3    H131796   1.822   2.593   0.631  0.6087 -0.1745 -0.9061
 3435TIP3    H231797   1.846   2.732   0.684 -0.2229 -0.9364  1.5233
 3436TIP3   OH231798   4.949   2.135   2.518 -0.3253 -0.2638 -0.2713
 3436TIP3    H131799   4.868   2.115   2.564 -0.0286 -0.8872 -0.0229
 3436TIP3    H231800   4.978   2.218   2.556 -2.3097  1.4471 -2.3131
 3437TIP3   OH231801   6.533   2.984  17.000  0.6109  0.5883 -0.5247
 3437TIP3    H131802   6.617   3.027  17.014  1.3271 -1.0074  0.0745
 3437TIP3    H231803   6.488   2.991  17.084  0.4795  0.7149 -0.6041
 3438TIP3   OH231804   6.040   2.345   4.997  0.4547  0.9322 -0.3308
 3438TIP3    H131805   6.079   2.260   5.017 -0.0536  0.3166 -1.8742
 3438TIP3    H231806   6.095   2.382   4.928 -0.1319  1.2252 -0.6490
 3439TIP3   OH231807   0.481   0.751   2.356 -0.1992 -0.0527  0.4551
 3439TIP3    H131808   0.531   0.758   2.275  1.5672  1.4785  1.6432
 3439TIP3    H231809   0.393   0.725   2.327 -0.8640  4.6729 -2.3944
 3440TIP3   OH231810   0.546   1.836  15.866  0.0783 -0.2522 -0.6967
 3440TIP3    H131811   0.466   1.853  15.917  1.3022 -0.8210  1.4678
 3440TIP3    H231812   0.599   1.782  15.924  1.1376 -1.6619 -2.9745
 3441TIP3   OH231813   0.052   3.148  15.164 -0.0733 -0.1705  0.3130
 3441TIP3    H131814   0.029   3.208  15.235 -1.0777 -0.2392  0.0473
 3441TIP3    H231815  -0.030   3.131  15.118  0.7135  0.5598 -1.4077
 3442TIP3   OH231816   5.228   2.229   0.394 -0.0692  0.1060 -0.5392
 3442TIP3    H131817   5.155   2.173   0.422  0.5620 -0.6057 -0.3236
 3442TIP3    H231818   5.306   2.176   0.409  0.5571  1.1666 -0.0056
 3443TIP3   OH231819   0.794   6.693   5.577 -0.3801  0.2726 -0.3102
 3443TIP3    H131820   0.868   6.748   5.601  0.4602 -0.3088 -1.5083
 3443TIP3    H231821   0.831   6.627   5.519 -2.0692  0.7845 -2.0295
 3444TIP3   OH231822   1.623   5.159   5.339 -0.3735 -0.2829 -0.1346
 3444TIP3    H131823   1.558   5.229   5.346  0.0181  0.1405 -0.7049
 3444TIP3    H231824   1.664   5.173   5.254 -0.1758 -1.1080 -0.1806
 3445TIP3   OH231825   6.537   5.531   5.918 -0.5087  0.5094  0.1303
 3445TIP3    H131826   6.585   5.607   5.950  1.8499 -0.6748 -0.4861
 3445TIP3    H231827   6.521   5.550   5.826 -0.3558  0.4690  0.0957
 3446TIP3   OH231828   5.449   5.573   2.570 -0.6372  0.8243  0.4705
 3446TIP3    H131829   5.437   5.539   2.658 -0.1043  0.3143  0.3579
 3446TIP3    H231830   5.488   5.660   2.582  0.4651  0.3094  0.7288
 3447TIP3   OH231831   2.270   2.936  16.209 -0.8512  0.1011  0.1556
 3447TIP3    H131832   2.344   2.952  16.268 -0.5643 -2.0736  0.4098
 3447TIP3    H231833   2.195   2.975  16.255 -0.5360 -1.1075  1.7564
 3448TIP3   OH231834   4.790   4.261   2.173  0.0664 -0.1954  0.2488
 3448TIP3    H131835   4.777   4.256   2.267 -0.6808  3.8580  0.4361
 3448TIP3    H231836   4.702   4.275   2.137  0.7638  2.0737 -0.6678
 3449TIP3   OH231837   3.749   0.769   3.791 -0.4341  0.5176 -0.7717
 3449TIP3    H131838   3.674   0.742   3.738 -1.4276  1.6066  0.0567
 3449TIP3    H231839   3.825   0.742   3.740 -1.3709  0.7965 -2.3527
 3450TIP3   OH231840   0.318   6.200  13.798 -0.6804  0.3021 -0.0406
 3450TIP3    H131841   0.236   6.177  13.841 -0.8055  1.6489  0.4918
 3450TIP3    H231842   0.322   6.296  13.804  0.8319  0.2686 -0.2171
 3451TIP3   OH231843   3.334   6.088   4.101 -0.1193  0.4806  0.5115
 3451TIP3    H131844   3.326   6.181   4.077  1.5082  0.4773 -0.0699
 3451TIP3    H231845   3.274   6.043   4.042 -1.1134  1.1764  0.9645
 3452TIP3   OH231846   1.809   5.016   1.232  0.1111 -0.1288  0.4378
 3452TIP3    H131847   1.797   5.080   1.302  0.8018 -0.0067  0.4486
 3452TIP3    H231848   1.831   5.068   1.155  1.0774 -0.3731  0.5390
 3453TIP3   OH231849   5.712   2.334  15.880 -0.2552  0.1241  0.1150
 3453TIP3    H131850   5.792   2.364  15.838  0.1970  0.0939  0.9388
 3453TIP3    H231851   5.646   2.336  15.811  0.7337 -1.0538 -0.8945
 3454TIP3   OH231852   2.876   1.321   5.156  0.0852 -0.3072  0.5820
 3454TIP3    H131853   2.831   1.321   5.071  0.1331  0.5490  0.5512
 3454TIP3    H231854   2.859   1.408   5.192  2.2779  0.2867  0.2665
 3455TIP3   OH231855   3.539   3.853  10.638 -0.5222  0.0973  0.0968
 3455TIP3    H131856   3.514   3.937  10.676 -0.1700  0.1747  0.1578
 3455TIP3    H231857   3.458   3.802  10.637 -0.4085 -0.1266  1.5314
 3456TIP3   OH231858   0.316   5.861   4.015  0.8173 -0.2692  0.2542
 3456TIP3    H131859   0.271   5.786   3.977  1.3906 -0.4475 -0.0771
 3456TIP3    H231860   0.275   5.872   4.101  1.6363 -1.8039  0.8628
 3457TIP3   OH231861   0.122   0.650   6.482  0.5933  0.2281 -0.0119
 3457TIP3    H131862   0.116   0.556   6.500  1.2019  0.1127 -0.3934
 3457TIP3    H231863   0.031   0.680   6.479  0.4035 -0.3127  0.3008
 3458TIP3   OH231864   0.179   5.311  16.972  0.1748 -0.1761  0.7175
 3458TIP3    H131865   0.180   5.356  17.056 -0.9072  1.3595 -0.0551
 3458TIP3    H231866   0.154   5.379  16.909  1.6496 -1.1268 -0.9475
 3459TIP3   OH231867   0.076   3.616   0.342 -0.3696  0.4554  0.2315
 3459TIP3    H131868   0.162   3.576   0.326 -1.3097 -1.1835 -0.8108
 3459TIP3    H231869   0.058   3.597   0.434  0.2738  0.5881  0.3876
 3460TIP3   OH231870   4.556   4.894  15.847 -0.7776  0.0033 -0.4690
 3460TIP3    H131871   4.537   4.821  15.906 -0.1410  1.3463  1.4498
 3460TIP3    H231872   4.478   4.904  15.794 -1.3404 -1.2812  0.1108
 3461TIP3   OH231873   2.665   4.774  10.658 -0.0580  0.1010 -0.0021
 3461TIP3    H131874   2.658   4.839  10.588  0.2729 -1.2068 -1.2725
 3461TIP3    H231875   2.724   4.707  10.623 -1.3092 -1.4793  0.8160
 3462TIP3   OH231876   6.798   4.728   4.165 -0.1158  0.3693 -0.2324
 3462TIP3    H131877   6.863   4.790   4.197  0.1156  0.6375 -1.2239
 3462TIP3    H231878   6.778   4.673   4.241  0.5962  0.8607  0.3107
 3463TIP3   OH231879   1.929   2.622  13.063  0.7443 -0.2415 -0.3005
 3463TIP3    H131880   2.024   2.616  13.068  0.6798 -1.0601 -0.0216
 3463TIP3    H231881   1.897   2.547  13.112 -0.0054 -2.0020 -3.3449
 3464TIP3   OH231882   2.448   3.746   4.533  0.4516  0.3053  0.1991
 3464TIP3    H131883   2.468   3.656   4.511  0.3395  0.1636  0.6606
 3464TIP3    H231884   2.365   3.765   4.488  1.1245  0.5878 -0.9294
 3465TIP3   OH231885   6.213   4.640   0.414  0.3986 -0.1011  0.0324
 3465TIP3    H131886   6.223   4.548   0.440  2.5408  0.4339  1.2649
 3465TIP3    H231887   6.156   4.637   0.338  0.2052 -2.4412  0.2206
 3466TIP3   OH231888   2.395   6.267   2.239  0.2506 -0.5357 -0.1511
 3466TIP3    H131889   2.378   6.337   2.176 -1.0150 -2.0637 -1.5209
 3466TIP3    H231890   2.451   6.205   2.193  1.9696 -0.1219  1.2978
 3467TIP3   OH231891   5.124   1.428   3.572 -0.4659  0.5501  0.2404
 3467TIP3    H131892   5.201   1.483   3.559 -0.3005  0.0815 -0.8131
 3467TIP3    H231893   5.157   1.351   3.619  0.0205 -0.3893 -1.6112
 3468TIP3   OH231894   1.150   2.179  12.654  0.6530  0.4205  0.5432
 3468TIP3    H131895   1.108   2.159  12.738 -2.3175  0.3181 -0.9075
 3468TIP3    H231896   1.203   2.102  12.635 -2.3572 -1.6094  0.1141
 3469TIP3   OH231897   4.914   4.848  14.033 -0.7651  0.2792  0.2080
 3469TIP3    H131898   5.005   4.866  14.010 -1.0130 -1.0673 -1.9323
 3469TIP3    H231899   4.863   4.905  13.975 -1.3347 -0.4430 -0.0065
 3470TIP3   OH231900   5.681   2.960  11.801  0.1233  0.4495  0.0148
 3470TIP3    H131901   5.668   3.054  11.815  0.7725  0.4045  0.9628
 3470TIP3    H231902   5.695   2.925  11.889 -0.0906 -0.5340 -0.3404
 3471TIP3   OH231903   6.059   0.709  12.278  0.8244  0.4405 -0.2671
 3471TIP3    H131904   6.060   0.615  12.259 -1.9235  0.3552 -0.1033
 3471TIP3    H231905   6.090   0.749  12.197 -1.8293 -0.4325 -1.7816
 3472TIP3   OH231906   2.448   4.280  11.902  0.1146  0.1243  0.2469
 3472TIP3    H131907   2.387   4.349  11.924  1.7803  1.1553  1.7505
 3472TIP3    H231908   2.480   4.302  11.814 -0.7821  0.2025 -0.0602
 3473TIP3   OH231909   3.771   0.519   4.303 -0.1651 -0.3141  0.2417
 3473TIP3    H131910   3.757   0.526   4.209  0.8337  2.6088  0.2565
 3473TIP3    H231911   3.686   0.540   4.342  0.2976  2.1980  0.0109
 3474TIP3   OH231912   0.263   4.830   4.690 -0.0904  0.1000 -0.0334
 3474TIP3    H131913   0.182   4.873   4.719  0.3480  1.0692 -0.2411
 3474TIP3    H231914   0.233   4.759   4.633 -0.9373 -1.4944  2.3156
 3475TIP3   OH231915   2.662   3.713  12.410  0.2793  0.1625  0.1425
 3475TIP3    H131916   2.644   3.687  12.320  1.1931 -0.8817  0.2529
 3475TIP3    H231917   2.678   3.808  12.405 -2.5800  0.6673 -0.3339
 3476TIP3   OH231918   2.915   6.568   1.920  0.1213  0.3801  0.0964
 3476TIP3    H131919   2.836   6.597   1.967  0.0678  1.9410 -0.9241
 3476TIP3    H231920   2.894   6.479   1.891 -1.7194  1.1725 -1.1174
 3477TIP3   OH231921   3.122   1.545   1.414 -0.6491  0.0112 -0.4774
 3477TIP3    H131922   3.063   1.490   1.466 -0.8885  1.2268  0.5675
 3477TIP3    H231923   3.108   1.633   1.448  0.6036  0.5442 -1.3165
 3478TIP3   OH231924   3.130   3.591   0.332 -0.0719  0.1549 -0.1391
 3478TIP3    H131925   3.160   3.680   0.348  1.2073 -0.2839 -0.0518
 3478TIP3    H231926   3.085   3.596   0.248 -0.0693  0.8979 -0.0976
 3479TIP3   OH231927   3.893   5.890  13.512 -0.4171 -0.1695 -0.3056
 3479TIP3    H131928   3.931   5.865  13.596  1.9521  0.0721 -1.2356
 3479TIP3    H231929   3.841   5.967  13.531 -1.2122 -1.0608  1.2086
 3480TIP3   OH231930   5.433   2.823   1.248 -0.7732  0.4536 -0.2793
 3480TIP3    H131931   5.437   2.877   1.327 -1.0460 -0.0320  0.0668
 3480TIP3    H231932   5.503   2.857   1.192 -1.5452  1.8027 -0.4630
 3481TIP3   OH231933   1.016   4.829  12.276  0.0020  0.4002 -0.0252
 3481TIP3    H131934   1.016   4.734  12.290 -1.7185  0.8188  3.3276
 3481TIP3    H231935   0.997   4.839  12.183  0.6082 -2.5522 -0.5243
 3482TIP3   OH231936   1.448   6.149  10.437 -0.0738  0.1744  0.1400
 3482TIP3    H131937   1.501   6.209  10.490 -1.3155 -1.2959  3.1770
 3482TIP3    H231938   1.510   6.083  10.405  0.3993  0.0203  1.3502
 3483TIP3   OH231939   6.713   3.587  11.089 -0.0987 -0.0090 -0.1273
 3483TIP3    H131940   6.749   3.669  11.056  0.4781 -0.6100 -1.0060
 3483TIP3    H231941   6.668   3.549  11.014 -0.3649 -0.4908  0.2803
 3484TIP3   OH231942   2.061   4.748  16.206  0.0124 -0.1493  0.2388
 3484TIP3    H131943   2.076   4.840  16.183 -0.1089 -0.3565 -0.6931
 3484TIP3    H231944   1.981   4.725  16.159 -0.6580 -0.3811  1.4736
 3485TIP3   OH231945   3.452   4.934   3.055  0.3530 -0.6595  0.0617
 3485TIP3    H131946   3.463   4.876   2.979  0.6546  0.4086 -0.7206
 3485TIP3    H231947   3.371   4.981   3.038  1.2814  0.8089 -0.4450
 3486TIP3   OH231948   0.938   5.290  13.760  0.3498  0.1414 -0.5828
 3486TIP3    H131949   0.902   5.214  13.807  0.2177 -0.0875 -1.0477
 3486TIP3    H231950   0.974   5.346  13.829  2.5341 -1.4331 -0.3703
 3487TIP3   OH231951   1.795   4.392  17.247  0.4087 -0.1630 -0.2549
 3487TIP3    H131952   1.736   4.464  17.269  2.1040  1.3471 -0.5415
 3487TIP3    H231953   1.842   4.373  17.328  0.5669 -0.3833 -0.3967
 3488TIP3   OH231954   3.719   6.458  12.310  0.3868  0.1762  0.8335
 3488TIP3    H131955   3.757   6.540  12.341  2.7177 -1.3280  2.1087
 3488TIP3    H231956   3.699   6.409  12.389 -1.3935 -0.3343  0.0964
 3489TIP3   OH231957   6.486   6.809  14.695  0.2016  0.6662  0.1133
 3489TIP3    H131958   6.466   6.721  14.662 -0.9914  1.0065 -0.0773
 3489TIP3    H231959   6.574   6.801  14.732 -0.2037 -0.7933  0.7753
 3490TIP3   OH231960   2.967   6.371  13.000 -0.5416  0.0365 -0.1503
 3490TIP3    H131961   2.945   6.374  13.093 -1.5893 -1.5364 -0.3360
 3490TIP3    H231962   2.902   6.429  12.959 -0.8951 -0.2730 -0.0379
 3491TIP3   OH231963   6.248   0.973   5.764 -0.3961  0.0656  0.2798
 3491TIP3    H131964   6.219   1.044   5.821  0.0244  0.1113  0.4387
 3491TIP3    H231965   6.248   0.896   5.821 -2.1433 -0.3289 -0.2267
 3492TIP3   OH231966   3.424   3.490   2.857 -0.0423 -0.3527  0.0082
 3492TIP3    H131967   3.379   3.407   2.844 -1.4948  0.3701  0.3259
 3492TIP3    H231968   3.383   3.528   2.935  0.0882  1.0031 -0.5705
 3493TIP3   OH231969   0.156   0.947  15.720  0.4390 -1.0694 -0.0339
 3493TIP3    H131970   0.154   0.918  15.629  2.0038 -5.1979  1.1772
 3493TIP3    H231971   0.246   0.932  15.749 -0.5511 -1.8022  2.8236
 3494TIP3   OH231972   4.188   0.219  12.710  0.2828  0.3590  0.3606
 3494TIP3    H131973   4.282   0.200  12.709  0.1332 -0.3332 -0.2379
 3494TIP3    H231974   4.183   0.309  12.743  1.2180  0.7388 -0.5158
 3495TIP3   OH231975   3.718   6.645  14.651  0.0873  0.9346 -0.0361
 3495TIP3    H131976   3.702   6.716  14.713  3.1515  1.1163  0.6260
 3495TIP3    H231977   3.704   6.565  14.701  0.6294  1.0869  0.3642
 3496TIP3   OH231978   5.937   5.348  13.345  0.0392 -0.6811  0.1831
 3496TIP3    H131979   5.973   5.434  13.325  0.1974 -0.2697  2.0639
 3496TIP3    H231980   6.012   5.300  13.382 -0.4521 -1.0405  0.7167
 3497TIP3   OH231981   5.955   4.235   4.373  0.1541 -0.4667 -0.4611
 3497TIP3    H131982   5.966   4.311   4.429 -0.6612 -1.2293  0.7659
 3497TIP3    H231983   6.040   4.191   4.375  0.7395  0.6091 -1.4823
 3498TIP3   OH231984   6.644   4.418   3.984 -0.0629 -0.0876 -0.3894
 3498TIP3    H131985   6.595   4.372   3.917 -1.5988 -1.5348  1.6500
 3498TIP3    H231986   6.651   4.354   4.056  1.4316  1.4335  0.8462
 3499TIP3   OH231987   1.434   0.309  15.602  0.2217  0.0074  0.2798
 3499TIP3    H131988   1.474   0.223  15.591 -2.3232 -1.2430  0.4132
 3499TIP3    H231989   1.347   0.299  15.564  0.4490  2.9961 -1.1594
 3500TIP3   OH231990   2.033   2.946  12.869  0.0482 -0.4175  0.2568
 3500TIP3    H131991   1.954   2.939  12.814  0.4444  0.5468 -0.4384
 3500TIP3    H231992   2.057   3.038  12.866  0.9951 -0.6377  0.7775
 3501TIP3   OH231993   2.400   6.068  10.335 -0.1920 -0.2165 -0.2934
 3501TIP3    H131994   2.402   6.151  10.383  1.0112  0.3650 -1.3281
 3501TIP3    H231995   2.307   6.047  10.328 -0.3799 -1.0415  3.4943
 3502TIP3   OH231996   1.244   0.992   4.504  0.2513  0.1308  0.4280
 3502TIP3    H131997   1.284   1.077   4.523  2.6965 -0.8577 -0.1659
 3502TIP3    H231998   1.181   1.011   4.434  2.4546  1.0932 -1.3407
 3503TIP3   OH231999   1.664   3.314  11.672  0.4645 -0.2038  0.8492
 3503TIP3    H132000   1.635   3.248  11.609 -0.2956 -1.0500  2.0554
 3503TIP3    H232001   1.626   3.286  11.755  1.3351  0.9680  1.6638
 3504TIP3   OH232002   3.612   2.100  16.531 -0.3272 -0.1595  0.4380
 3504TIP3    H132003   3.540   2.163  16.538 -0.5952 -0.6380  2.2648
 3504TIP3    H232004   3.590   2.046  16.454 -0.3662  1.6018 -0.8143
 3505TIP3   OH232005   5.105   3.548  13.079 -0.3940 -0.3609 -0.5719
 3505TIP3    H132006   5.136   3.510  12.996 -0.3422 -1.1049 -0.2161
 3505TIP3    H232007   5.037   3.610  13.053 -0.5310 -0.7537 -1.1596
 3506TIP3   OH232008   0.302   3.789  17.005  0.0312 -0.2370 -0.4158
 3506TIP3    H132009   0.257   3.871  16.984  0.1354  0.7575  2.9049
 3506TIP3    H232010   0.236   3.721  16.995 -1.1746  0.7599  0.7430
 3507TIP3   OH232011   5.762   0.770   5.902  0.2554  0.1656 -0.4331
 3507TIP3    H132012   5.681   0.781   5.953 -1.5718  0.1627 -3.2131
 3507TIP3    H232013   5.794   0.683   5.927  1.4792  1.6401  3.4564
 3508TIP3   OH232014   4.686   3.924  16.174  0.3777 -0.3608  0.4201
 3508TIP3    H132015   4.644   3.912  16.259 -1.9229  1.2154 -0.4206
 3508TIP3    H232016   4.738   4.004  16.184 -2.4986  1.7037 -0.5407
 3509TIP3   OH232017   4.141   4.230   4.134  0.1213  0.7109  0.7924
 3509TIP3    H132018   4.080   4.303   4.141 -1.5229 -0.7504  2.2353
 3509TIP3    H232019   4.155   4.220   4.040  1.1032  3.4203  0.5985
 3510TIP3   OH232020   4.202   3.875  16.776  0.4254  0.2143 -0.6908
 3510TIP3    H132021   4.155   3.826  16.708  0.2919 -0.5120 -0.0821
 3510TIP3    H232022   4.153   3.956  16.786 -0.7767 -0.5848  0.0171
 3511TIP3   OH232023   0.357   5.561   4.230 -0.0189  0.2490  0.0979
 3511TIP3    H132024   0.429   5.625   4.223 -0.7933  1.0437 -0.7162
 3511TIP3    H232025   0.382   5.490   4.172 -0.0313  0.6685 -0.4248
 3512TIP3   OH232026   3.089   4.085   2.370 -0.2954 -0.3291 -0.4621
 3512TIP3    H132027   3.114   4.124   2.454 -4.5023 -0.0201  0.7886
 3512TIP3    H232028   3.095   3.991   2.385 -0.0798 -0.2640 -0.1223
 3513TIP3   OH232029   0.022   0.412   0.236 -0.7137 -0.0429 -0.7418
 3513TIP3    H132030  -0.060   0.450   0.267 -0.5772  0.2683 -0.7628
 3513TIP3    H232031   0.030   0.444   0.146  0.6447  1.9191  0.0333
 3514TIP3   OH232032   6.796   2.534  14.204 -0.3394 -0.6669  0.3357
 3514TIP3    H132033   6.826   2.552  14.115 -1.7457 -0.3061 -0.0890
 3514TIP3    H232034   6.853   2.463  14.234  0.7911 -0.1269 -0.4823
 3515TIP3   OH232035   1.660   3.537   0.383  0.0558 -0.0490  0.1570
 3515TIP3    H132036   1.664   3.626   0.347  0.2197 -0.0160  0.2534
 3515TIP3    H232037   1.706   3.483   0.320  0.8776  0.1097  0.6109
 3516TIP3   OH232038   3.515   4.461   0.393 -0.1838 -0.0122  0.2031
 3516TIP3    H132039   3.423   4.470   0.418 -0.1515 -0.2560  0.4107
 3516TIP3    H232040   3.535   4.369   0.408 -0.3194 -0.2892 -1.2381
 3517TIP3   OH232041   5.255   1.434   5.284  0.0057 -0.1868  0.1048
 3517TIP3    H132042   5.216   1.521   5.287 -1.7959 -0.9742  0.6457
 3517TIP3    H232043   5.203   1.383   5.346  1.8544 -1.3255  0.7479
 3518TIP3   OH232044   4.360   2.299   0.324 -0.1979  0.2718 -0.0403
 3518TIP3    H132045   4.399   2.333   0.243 -0.3984 -1.9464 -1.0825
 3518TIP3    H232046   4.337   2.378   0.374  0.1873  1.6615 -2.0053
 3519TIP3   OH232047   3.916   6.711  12.085  0.0877 -0.1289 -0.3956
 3519TIP3    H132048   3.913   6.804  12.108 -1.0738 -0.0580 -0.8033
 3519TIP3    H232049   3.977   6.673  12.149 -0.5163  0.6565  0.6724
 3520TIP3   OH232050   3.772   2.942  12.504  0.5307  0.5339 -0.6520
 3520TIP3    H132051   3.806   3.015  12.451  0.9028  0.7976 -0.0517
 3520TIP3    H232052   3.844   2.878  12.505  1.0988  1.1750  0.7826
 3521TIP3   OH232053   6.550   5.148   0.083 -0.5007 -0.2160  0.6041
 3521TIP3    H132054   6.596   5.104   0.154  1.6897 -0.3880 -0.8381
 3521TIP3    H232055   6.563   5.242   0.100  0.0375 -0.2579  0.4355
 3522TIP3   OH232056   2.752   4.438  14.193 -0.4159 -0.3357  0.9656
 3522TIP3    H132057   2.662   4.459  14.219 -1.2630 -1.2789 -1.0813
 3522TIP3    H232058   2.760   4.343  14.208 -0.3538 -0.5740 -0.4953
 3523TIP3   OH232059   2.896   0.768   5.602  0.5353  0.3673 -0.1262
 3523TIP3    H132060   2.951   0.843   5.578 -0.9604  1.2436 -0.8897
 3523TIP3    H232061   2.887   0.774   5.697  0.1490  1.3668 -0.2180
 3524TIP3   OH232062   4.865   6.308   2.337 -0.2427 -1.2028  0.1559
 3524TIP3    H132063   4.796   6.355   2.289  1.0865  1.1266  0.4301
 3524TIP3    H232064   4.820   6.262   2.407 -1.6751 -0.9377 -0.5804
 3525TIP3   OH232065   6.670   4.497   0.832 -0.0924  0.8978 -0.0764
 3525TIP3    H132066   6.722   4.468   0.907 -0.0122  1.6213  0.1546
 3525TIP3    H232067   6.706   4.449   0.758 -1.3683 -1.2042  0.6144
 3526TIP3   OH232068   1.143   0.209   5.924 -0.0487 -0.1534 -0.6078
 3526TIP3    H132069   1.189   0.205   6.008 -1.0726 -2.3848 -0.1160
 3526TIP3    H232070   1.062   0.255   5.943 -0.0832 -0.2648 -0.4927
 3527TIP3   OH232071   5.632   1.112   3.337  0.0415 -0.1548 -0.2873
 3527TIP3    H132072   5.632   1.045   3.405 -0.2390  0.3326  0.1927
 3527TIP3    H232073   5.651   1.193   3.383 -2.1538  0.4925 -0.4857
 3528TIP3   OH232074   2.562   5.189   1.571  0.1253 -0.0773  0.2112
 3528TIP3    H132075   2.567   5.278   1.604  3.6172  0.0653 -0.4993
 3528TIP3    H232076   2.596   5.135   1.642  0.2668 -0.5792 -0.2333
 3529TIP3   OH232077   3.916   2.457   5.349  0.5250  0.0727 -0.0511
 3529TIP3    H132078   3.854   2.523   5.321  0.7526  0.7339  0.9869
 3529TIP3    H232079   4.001   2.489   5.319  0.3716 -0.8429 -1.4929
 3530TIP3   OH232080   2.325   5.032  16.522  0.0420 -0.1777 -0.1508
 3530TIP3    H132081   2.392   5.017  16.589  0.0743 -2.0462 -0.5858
 3530TIP3    H232082   2.254   4.973  16.545 -0.7156  0.4834 -0.7459
 3531TIP3   OH232083   1.338   2.620  16.595 -0.1373 -0.7369 -0.8163
 3531TIP3    H132084   1.343   2.546  16.655  0.7949  0.8714  1.1813
 3531TIP3    H232085   1.416   2.673  16.617 -1.6387  1.6421 -1.0475
 3532TIP3   OH232086   2.914   3.414  13.093 -0.6434 -0.0565 -0.8689
 3532TIP3    H132087   2.978   3.449  13.031 -1.2731  0.6844 -1.1111
 3532TIP3    H232088   2.959   3.342  13.136  0.2492  0.2649 -1.2566
 3533TIP3   OH232089   1.358   4.065  16.694 -0.6021  0.3386  0.4606
 3533TIP3    H132090   1.401   3.983  16.715  0.0549  0.7867  0.8714
 3533TIP3    H232091   1.268   4.055  16.727 -0.2926  0.0963  1.2154
 3534TIP3   OH232092   3.180   5.582   1.749  0.1099 -0.0689  0.2777
 3534TIP3    H132093   3.268   5.548   1.768 -0.3794 -1.0201  0.8602
 3534TIP3    H232094   3.170   5.657   1.807  0.5093 -0.0147  0.2759
 3535TIP3   OH232095   4.105   0.887   1.067  0.3775  0.5350 -0.1593
 3535TIP3    H132096   4.184   0.940   1.061 -0.0758  1.2489  0.1218
 3535TIP3    H232097   4.039   0.936   1.017  0.3248 -0.4463 -1.0636
 3536TIP3   OH232098   2.494   0.660   4.602  0.2105  0.1035  0.2479
 3536TIP3    H132099   2.573   0.638   4.553  0.7255  0.1531  1.0454
 3536TIP3    H232100   2.451   0.727   4.549  0.3451 -0.4230 -0.5325
 3537TIP3   OH232101   6.411   6.590  15.322 -0.0156  0.0716 -0.1231
 3537TIP3    H132102   6.382   6.649  15.391 -0.2152  0.3168 -0.4165
 3537TIP3    H232103   6.505   6.609  15.312 -0.0118  0.1172  0.0019
 3538TIP3   OH232104   4.026   1.785  17.225  0.5686  0.5987  0.1475
 3538TIP3    H132105   4.017   1.801  17.319  1.8459  0.3153  0.3232
 3538TIP3    H232106   4.105   1.832  17.199 -0.3667  1.5839 -1.0119
 3539TIP3   OH232107   0.735   5.366  11.864  0.9504  0.6284  0.2321
 3539TIP3    H132108   0.813   5.406  11.825  0.9806  0.1371 -0.2126
 3539TIP3    H232109   0.769   5.292  11.914  0.9588  1.4830  1.5379
 3540TIP3   OH232110   0.762   5.500  14.396  0.0278 -0.1964 -0.4217
 3540TIP3    H132111   0.751   5.410  14.427  2.2304  0.4657  2.4466
 3540TIP3    H232112   0.674   5.537  14.401 -0.5574 -1.6184  0.1948
 3541TIP3   OH232113   4.388   4.267  16.696  0.2812 -0.4621 -0.0224
 3541TIP3    H132114   4.303   4.292  16.734  0.1352 -1.2107  0.1627
 3541TIP3    H232115   4.369   4.187  16.648  0.4992  0.4110 -1.5855
 3542TIP3   OH232116   2.032   0.287   4.180 -0.4381 -0.2710 -0.0976
 3542TIP3    H132117   2.028   0.198   4.214  4.1818 -0.6983 -0.4368
 3542TIP3    H232118   2.019   0.278   4.086 -0.5475 -0.4863 -0.0618
 3543TIP3   OH232119   2.743   0.727   1.613  0.0670  0.0416  0.1749
 3543TIP3    H132120   2.713   0.756   1.526  0.6137  0.8188  0.2436
 3543TIP3    H232121   2.835   0.705   1.601  0.9379  2.9202  1.1868
 3544TIP3   OH232122   1.680   6.293  10.483  0.0814 -0.0951 -0.2865
 3544TIP3    H132123   1.710   6.310  10.573  0.4918  0.2906 -0.4969
 3544TIP3    H232124   1.704   6.202  10.467 -1.9477 -0.8727  0.7685
 3545TIP3   OH232125   0.450   2.557   5.846 -0.0813  0.1341 -0.4759
 3545TIP3    H132126   0.456   2.610   5.767 -0.2616 -0.3108 -0.7938
 3545TIP3    H232127   0.527   2.500   5.843 -0.4704 -0.3925 -0.7151
 3546TIP3   OH232128   1.087   2.676   1.143 -0.3472  0.1492 -0.0253
 3546TIP3    H132129   1.062   2.683   1.235  2.0482  1.1364  0.5994
 3546TIP3    H232130   1.082   2.583   1.123  0.2609 -0.2076  1.4567
 3547TIP3   OH232131   1.270   2.856  14.961 -0.2838 -0.0129  0.3315
 3547TIP3    H132132   1.257   2.865  15.056 -0.0187  0.3561  0.3329
 3547TIP3    H232133   1.196   2.802  14.932 -1.4171  1.4420  0.4586
 3548TIP3   OH232134   3.618   0.002   6.167  0.1003  0.1058  0.2470
 3548TIP3    H132135   3.627  -0.012   6.261  0.9157  0.1623  0.1803
 3548TIP3    H232136   3.669  -0.068   6.127  0.9050  0.8963 -0.1341
 3549TIP3   OH232137   3.773   0.133   0.940  0.0742  0.5526 -0.0072
 3549TIP3    H132138   3.706   0.070   0.968  0.7044 -0.5462 -0.9391
 3549TIP3    H232139   3.778   0.121   0.845 -0.0066  2.2292 -0.2389
 3550TIP3   OH232140   0.415   2.230  12.965 -0.0280  0.2267 -0.6731
 3550TIP3    H132141   0.433   2.158  12.904  0.1134 -1.4299  1.2792
 3550TIP3    H232142   0.320   2.238  12.964 -0.2675 -1.9069  1.2041
 3551TIP3   OH232143   6.555   0.844   4.711  0.7255  0.2829  0.4308
 3551TIP3    H132144   6.590   0.925   4.674  0.4637 -0.2562 -1.0504
 3551TIP3    H232145   6.587   0.842   4.801  0.4637  2.1852  0.5794
 3552TIP3   OH232146   3.114   6.322   4.205  0.3559  0.5273 -0.2023
 3552TIP3    H132147   3.191   6.335   4.151  1.2128  0.8913  1.0859
 3552TIP3    H232148   3.097   6.407   4.245 -0.0362  0.1773  0.3911
 3553TIP3   OH232149   1.091   4.863  16.302  0.3214 -0.6631 -0.1027
 3553TIP3    H132150   1.018   4.839  16.245  0.7349  0.6011 -1.2026
 3553TIP3    H232151   1.088   4.959  16.305  0.5151 -0.6905  1.7605
 3554TIP3   OH232152   3.170   2.225  15.295  0.1447  0.0824  0.0369
 3554TIP3    H132153   3.204   2.257  15.379  1.9940 -2.0154  0.1430
 3554TIP3    H232154   3.230   2.261  15.229 -1.7526  2.3633 -0.5102
 3555TIP3   OH232155   2.063   0.645  13.067 -0.0150  0.1308 -0.4033
 3555TIP3    H132156   2.000   0.700  13.114  1.0542  1.9878 -1.0651
 3555TIP3    H232157   2.149   0.684  13.088  0.6847 -0.6877 -1.6799
 3556TIP3   OH232158   3.616   4.184  13.532 -0.7485 -0.0637 -0.0859
 3556TIP3    H132159   3.591   4.276  13.529 -1.2668 -0.1481  1.4066
 3556TIP3    H232160   3.691   4.178  13.473  0.2621  1.6166  0.9825
 3557TIP3   OH232161   4.101   5.677   3.723 -0.4454  0.2407  0.2074
 3557TIP3    H132162   4.097   5.678   3.819 -1.0241 -1.2378  0.2089
 3557TIP3    H232163   4.143   5.594   3.701 -0.7799  0.3393 -0.8342
 3558TIP3   OH232164   2.587   1.128  12.784  0.8569 -0.2785  0.2035
 3558TIP3    H132165   2.628   1.061  12.839 -1.1538 -1.6553  0.1109
 3558TIP3    H232166   2.526   1.172  12.843 -1.5381 -1.9688 -0.9328
 3559TIP3   OH232167   5.251   3.961   1.639 -0.2299  0.1879  0.2522
 3559TIP3    H132168   5.231   3.936   1.730 -1.7069  1.7047  0.3826
 3559TIP3    H232169   5.300   3.887   1.604 -0.8432 -1.0316  1.8690
 3560TIP3   OH232170   6.769   2.884   2.607 -0.0246 -0.0117  0.0896
 3560TIP3    H132171   6.682   2.844   2.606  0.0574 -0.1855 -0.2923
 3560TIP3    H232172   6.827   2.816   2.640  0.1428 -0.2736 -0.7247
 3561TIP3   OH232173   1.518   0.115   0.671  0.1300  0.6948 -0.0552
 3561TIP3    H132174   1.448   0.112   0.737  1.1191 -1.2840  0.9680
 3561TIP3    H232175   1.473   0.097   0.588 -1.0900  2.9582  0.0607
 3562TIP3   OH232176   5.001   0.117   3.097  0.4196  0.1404  0.1493
 3562TIP3    H132177   5.010   0.025   3.071  2.4303  0.3780 -0.1058
 3562TIP3    H232178   4.907   0.131   3.104  0.1154 -2.1376  0.9246
 3563TIP3   OH232179   6.281   1.427  15.483  0.1531  0.2218  0.4763
 3563TIP3    H132180   6.301   1.354  15.541  0.6352 -0.8387 -1.0195
 3563TIP3    H232181   6.185   1.430  15.480  0.0679 -3.0548 -2.7859
 3564TIP3   OH232182   1.918   4.250  13.472 -0.4271 -0.3507  0.4582
 3564TIP3    H132183   1.924   4.179  13.535  1.1539 -0.9134 -0.2959
 3564TIP3    H232184   1.933   4.209  13.387 -1.0705  0.6328 -0.1557
 3565TIP3   OH232185   4.816   2.973  14.279  0.6374 -0.2703  0.1883
 3565TIP3    H132186   4.804   2.943  14.369  1.5859 -0.4919  0.2549
 3565TIP3    H232187   4.908   3.000  14.276  0.3077  0.8183 -0.4028
 3566TIP3   OH232188   5.085   0.980  13.069 -0.2301 -0.2270 -0.5229
 3566TIP3    H132189   5.066   0.888  13.051 -0.0590 -0.1403 -1.1612
 3566TIP3    H232190   5.170   0.979  13.113 -0.8486 -0.4742  0.6784
 3567TIP3   OH232191   0.972   2.428   1.040 -0.1886 -0.1930 -0.3261
 3567TIP3    H132192   0.896   2.487   1.043  0.9418  1.2809 -0.2677
 3567TIP3    H232193   1.003   2.434   0.950  0.0720 -0.5144 -0.2566
 3568TIP3   OH232194   1.567   1.919   5.715 -0.5032  0.2003  0.0392
 3568TIP3    H132195   1.507   1.846   5.726 -0.0268 -0.3277 -0.8510
 3568TIP3    H232196   1.626   1.913   5.790  1.7751 -2.4903 -1.8552
 3569TIP3   OH232197   6.144   0.752  16.429 -0.5872 -0.1663 -0.2240
 3569TIP3    H132198   6.138   0.703  16.511  1.0841 -1.0324 -0.5926
 3569TIP3    H232199   6.206   0.823  16.448 -1.0339  0.2789 -0.4260
 3570TIP3   OH232200   4.188   6.783  15.887 -0.3703  0.7312 -0.0030
 3570TIP3    H132201   4.250   6.827  15.946  0.5881 -0.7811  0.1518
 3570TIP3    H232202   4.224   6.799  15.799 -1.1885  2.0359 -0.1157
 3571TIP3   OH232203   4.777   6.061   5.909 -0.2382 -0.2137  0.3282
 3571TIP3    H132204   4.864   6.103   5.912 -0.4417  0.5665 -3.1237
 3571TIP3    H232205   4.796   5.968   5.895  0.0242  0.2645 -2.6375
 3572TIP3   OH232206   3.015   2.936   6.754  0.2985  0.3705 -0.4807
 3572TIP3    H132207   2.984   2.847   6.766  0.0231  0.4180 -0.8433
 3572TIP3    H232208   2.950   2.990   6.799  0.1315  0.4317 -0.7923
 3573TIP3   OH232209   1.421   2.887   4.308  0.6350  0.4779  0.0801
 3573TIP3    H132210   1.466   2.839   4.377  0.8739 -0.6112 -0.8281
 3573TIP3    H232211   1.393   2.820   4.246  0.8876  1.4942 -1.1454
 3574TIP3   OH232212   3.570   3.653  14.321  0.0170  0.7022  0.5784
 3574TIP3    H132213   3.592   3.564  14.347 -1.0131  0.3216  0.1970
 3574TIP3    H232214   3.645   3.706  14.349  0.2682 -0.1518  1.5618
 3575TIP3   OH232215   5.107   6.804   4.553 -0.1672  0.6281  0.2347
 3575TIP3    H132216   5.158   6.866   4.501 -0.7883 -0.1757 -1.3521
 3575TIP3    H232217   5.041   6.769   4.493  0.6231 -2.1029  0.8564
 3576TIP3   OH232218   1.557   1.409   5.476  0.1766 -0.3120 -0.4589
 3576TIP3    H132219   1.593   1.436   5.560 -0.3193  0.3999 -0.4738
 3576TIP3    H232220   1.467   1.443   5.475 -0.0725 -0.9576 -0.9622
 3577TIP3   OH232221   4.243   4.333   4.844  0.3206 -0.5899  0.1613
 3577TIP3    H132222   4.311   4.337   4.777 -0.0223  1.3786 -0.1103
 3577TIP3    H232223   4.265   4.404   4.904  0.7787 -2.4922  2.3178
 3578TIP3   OH232224   0.609   4.233   2.948 -0.4533  0.0648 -0.3048
 3578TIP3    H132225   0.649   4.307   2.994  0.2222 -0.9915  0.8510
 3578TIP3    H232226   0.515   4.243   2.965 -0.2309 -0.2045  1.1772
 3579TIP3   OH232227   6.642   1.757   1.062 -0.3639  0.4895 -0.2457
 3579TIP3    H132228   6.549   1.738   1.074  0.5253 -3.4872  1.3150
 3579TIP3    H232229   6.663   1.721   0.976 -0.0766  0.4669 -0.1687
 3580TIP3   OH232230   3.853   5.065   3.512  0.1144  0.1626 -0.6860
 3580TIP3    H132231   3.877   4.994   3.571  0.3207  0.7927  0.0052
 3580TIP3    H232232   3.932   5.080   3.460  0.5946  0.9200  0.2408
 3581TIP3   OH232233   6.724   3.422  16.171 -0.2059 -0.4467 -0.1401
 3581TIP3    H132234   6.767   3.435  16.255  0.5563 -0.4009 -0.5349
 3581TIP3    H232235   6.633   3.448  16.187  0.0884  0.2364  0.4824
 3582TIP3   OH232236   2.196   5.084  13.937  0.2701 -0.0461 -0.1771
 3582TIP3    H132237   2.285   5.091  13.970  0.5874  0.9875 -1.2383
 3582TIP3    H232238   2.163   5.174  13.938 -0.0748 -0.1471 -1.6610
 3583TIP3   OH232239   4.763   3.494  16.976  0.1291  0.6310  0.0621
 3583TIP3    H132240   4.686   3.535  16.935 -0.8803 -0.4808  0.7994
 3583TIP3    H232241   4.748   3.400  16.965  0.7533  0.3785  1.3493
 3584TIP3   OH232242   5.814   3.360  16.508  0.7982 -0.2937 -0.4485
 3584TIP3    H132243   5.746   3.397  16.563  0.3361  1.6583 -2.2544
 3584TIP3    H232244   5.783   3.374  16.418  1.5177 -3.3863 -1.2690
 3585TIP3   OH232245   1.452   6.484   0.575 -0.6433  0.1348  0.5834
 3585TIP3    H132246   1.438   6.406   0.629  0.6850  0.5577  1.5476
 3585TIP3    H232247   1.505   6.453   0.502 -1.0274 -0.0819  0.3926
 3586TIP3   OH232248   3.602   3.452   3.317  0.3262  0.2891 -0.5424
 3586TIP3    H132249   3.558   3.417   3.239 -0.1493  1.4129 -0.7985
 3586TIP3    H232250   3.558   3.536   3.333  0.4845  0.1081  0.8901
 3587TIP3   OH232251   6.643   6.534  13.934  0.0059 -0.0836  0.2518
 3587TIP3    H132252   6.705   6.505  13.867 -0.3895 -1.4512  0.4613
 3587TIP3    H232253   6.684   6.509  14.017 -0.6789 -0.7291  0.4026
 3588TIP3   OH232254   3.717   6.106   4.912 -0.2292 -0.4364 -0.0511
 3588TIP3    H132255   3.651   6.135   4.976  0.5407  3.6717 -0.9677
 3588TIP3    H232256   3.665   6.079   4.836 -0.9483  1.3376 -0.2202
 3589TIP3   OH232257   5.030   5.956   3.766  0.1134 -0.4236 -0.1889
 3589TIP3    H132258   5.064   5.886   3.711  1.9596 -0.3373  0.7766
 3589TIP3    H232259   4.952   5.919   3.808 -0.3917 -1.0129 -1.6292
 3590TIP3   OH232260   0.029   4.182  13.504  0.4217 -0.4747  0.2582
 3590TIP3    H132261  -0.033   4.254  13.509  1.0462 -0.0117  1.6278
 3590TIP3    H232262   0.068   4.190  13.417  0.1416  0.5458  0.2199
 3591TIP3   OH232263   1.996   0.036   0.888  0.3582 -0.8796 -0.2296
 3591TIP3    H132264   1.944   0.039   0.968  0.4053  2.0480 -0.2719
 3591TIP3    H232265   1.934   0.060   0.819  1.1776  0.2963 -0.5745
 3592TIP3   OH232266   3.870   5.698   6.373  0.1959  0.2350 -0.0563
 3592TIP3    H132267   3.911   5.722   6.290  0.6784  0.9914  0.3927
 3592TIP3    H232268   3.886   5.773   6.431 -1.2906  0.2986  0.3157
 3593TIP3   OH232269   1.860   0.590   3.560 -0.2918 -0.3397 -0.0487
 3593TIP3    H132270   1.901   0.506   3.581  1.9628  0.8615  0.5957
 3593TIP3    H232271   1.881   0.646   3.635 -0.8020  1.1176 -0.9704
 3594TIP3   OH232272   3.824   2.353  14.774  0.5717  0.0165  0.1966
 3594TIP3    H132273   3.760   2.394  14.716  0.4433 -1.5204 -0.7721
 3594TIP3    H232274   3.861   2.426  14.824 -0.4476  1.1662 -0.6967
 3595TIP3   OH232275   5.754   4.755  10.996  0.2300  0.7537 -0.0634
 3595TIP3    H132276   5.796   4.837  10.973 -1.1514  1.8476  1.2356
 3595TIP3    H232277   5.660   4.775  11.000 -0.3339 -1.3375 -1.6652
 3596TIP3   OH232278   3.065   5.631  14.520  0.2489 -0.1283  0.5779
 3596TIP3    H132279   2.998   5.682  14.566 -0.6587 -0.6520 -0.1503
 3596TIP3    H232280   3.017   5.559  14.480  1.2841 -0.6236  0.2055
 3597TIP3   OH232281   4.714   5.449  10.665  0.0012  0.2434 -0.4157
 3597TIP3    H132282   4.781   5.414  10.724  0.8467  0.0418 -1.4905
 3597TIP3    H232283   4.756   5.523  10.622 -1.0532  1.2244  0.2065
 3598TIP3   OH232284   4.444   0.806   1.217 -0.0561  0.3962  0.0962
 3598TIP3    H132285   4.349   0.797   1.223  0.0750 -1.2995 -0.0168
 3598TIP3    H232286   4.463   0.808   1.123  0.0120  0.9474  0.1178
 3599TIP3   OH232287   2.163   1.839   0.762  0.0627  0.3093  0.4819
 3599TIP3    H132288   2.217   1.911   0.728  0.6214 -0.8203 -1.0584
 3599TIP3    H232289   2.211   1.808   0.839  0.5369  0.6728  0.3364
 3600TIP3   OH232290   1.864   6.301  13.974  0.4560 -0.1274  0.0812
 3600TIP3    H132291   1.868   6.270  13.883 -0.5601 -2.5010  0.8155
 3600TIP3    H232292   1.819   6.231  14.021  2.1772  0.4873  2.7007
 3601TIP3   OH232293   0.955   3.811   5.463 -0.3613  0.0257 -0.2364
 3601TIP3    H132294   1.036   3.858   5.446  0.1050 -0.3447  0.9073
 3601TIP3    H232295   0.964   3.729   5.413  0.2221 -0.2682  0.3422
 3602TIP3   OH232296   0.558   5.928   2.568  0.7876 -0.4781  0.4993
 3602TIP3    H132297   0.605   5.921   2.485 -0.4642 -0.2827 -0.2524
 3602TIP3    H232298   0.538   5.837   2.592  1.8859 -0.5823  1.0237
 3603TIP3   OH232299   5.209   5.067   0.365  0.7888  0.2449  0.5366
 3603TIP3    H132300   5.117   5.092   0.365  0.4208 -1.0708  0.5300
 3603TIP3    H232301   5.245   5.107   0.285  0.2382  0.7626  0.5425
 3604TIP3   OH232302   0.929   5.368  13.023  0.6056 -0.0060  0.0139
 3604TIP3    H132303   0.977   5.336  13.099  0.4406  0.9311  0.5108
 3604TIP3    H232304   0.850   5.407  13.059  0.1053 -0.3454 -0.7057
 3605TIP3   OH232305   2.343   4.969   2.494 -0.1767 -0.5760  0.6145
 3605TIP3    H132306   2.261   5.016   2.482 -0.0594 -0.5763 -0.2071
 3605TIP3    H232307   2.396   4.992   2.418 -0.4604 -2.7161 -0.2731
 3606TIP3   OH232308   4.154   6.037   1.065  0.2861  0.4465  0.0858
 3606TIP3    H132309   4.082   6.005   1.120  0.9996  0.5081  1.0595
 3606TIP3    H232310   4.233   6.021   1.117  0.9950  0.2164 -1.0545
 3607TIP3   OH232311   1.870   1.809  11.380  0.3178  0.2720 -0.0249
 3607TIP3    H132312   1.806   1.866  11.423 -0.2645 -1.5270  1.5313
 3607TIP3    H232313   1.869   1.838  11.288 -1.4537  1.4136  0.3303
 3608TIP3   OH232314   3.485   0.992   3.413  0.1974  0.0706  0.1595
 3608TIP3    H132315   3.457   0.996   3.504 -1.3972  0.8989 -0.3499
 3608TIP3    H232316   3.467   0.902   3.386  0.0844 -0.0045  0.4837
 3609TIP3   OH232317   1.638   6.751  14.555  0.0447  0.2144 -0.0043
 3609TIP3    H132318   1.617   6.691  14.483  0.2462 -0.3208  0.3732
 3609TIP3    H232319   1.679   6.826  14.513 -0.6168  0.2789 -0.5251
 3610TIP3   OH232320   3.666   3.379  12.467  0.1166 -0.3194 -0.0926
 3610TIP3    H132321   3.741   3.432  12.440 -0.4630  0.3983 -0.3156
 3610TIP3    H232322   3.597   3.400  12.404  0.0100 -1.6563 -0.4276
 3611TIP3   OH232323   1.088   1.008   1.880 -0.0450 -0.6633 -0.3248
 3611TIP3    H132324   1.121   0.918   1.872 -0.7159 -0.9366 -0.0499
 3611TIP3    H232325   1.131   1.042   1.959  0.3979 -0.6540 -0.5647
 3612TIP3   OH232326   2.785   0.291   4.529 -0.7115 -0.1001 -0.0219
 3612TIP3    H132327   2.835   0.235   4.588  0.7309  0.9580 -0.2012
 3612TIP3    H232328   2.732   0.346   4.586  2.0170  2.1702  0.4155
 3613TIP3   OH232329   1.247   6.507  13.621  0.2336 -0.2129  0.1459
 3613TIP3    H132330   1.169   6.453  13.609  0.6410 -0.2907 -2.3906
 3613TIP3    H232331   1.313   6.465  13.566  1.3754  1.1889  0.4445
 3614TIP3   OH232332   6.544   0.135  15.073  0.2917 -0.5639 -0.2345
 3614TIP3    H132333   6.631   0.123  15.112  0.2650 -1.4338 -0.4247
 3614TIP3    H232334   6.546   0.222  15.035  0.4818  0.1219  1.3213
 3615TIP3   OH232335   3.432   1.195  17.069  0.1889  0.0463 -0.0929
 3615TIP3    H132336   3.431   1.175  17.163  0.1706  1.1671  0.1599
 3615TIP3    H232337   3.397   1.284  17.064 -0.6178 -0.3322 -1.2489
 3616TIP3   OH232338   3.143   6.335   0.265  0.6529 -0.4811  0.2659
 3616TIP3    H132339   3.234   6.364   0.259  0.7487 -0.8282 -0.0335
 3616TIP3    H232340   3.104   6.362   0.181  0.3160  0.2103  0.6426
 3617TIP3   OH232341   1.555   3.798   4.045  0.3274 -0.6747  0.0139
 3617TIP3    H132342   1.520   3.785   3.957 -0.9668  1.4608  0.1587
 3617TIP3    H232343   1.644   3.765   4.041 -0.6119 -3.1784 -1.3165
 3618TIP3   OH232344   6.582   4.492  15.559 -0.0925 -0.2388  0.1252
 3618TIP3    H132345   6.595   4.516  15.468  0.6744  2.2936  0.8546
 3618TIP3    H232346   6.655   4.434  15.580 -0.9620 -1.8429 -1.1809
 3619TIP3   OH232347   5.256   6.231   5.524  0.5335 -0.0820  0.1584
 3619TIP3    H132348   5.342   6.269   5.540  1.0387 -1.9183  1.9937
 3619TIP3    H232349   5.198   6.277   5.586  0.3479  0.4978 -0.4327
 3620TIP3   OH232350   2.620   0.031  12.688 -0.1890 -0.0022 -0.4726
 3620TIP3    H132351   2.585   0.112  12.726  0.5995  1.4161 -2.6327
 3620TIP3    H232352   2.550  -0.002  12.632 -1.3104 -2.0272  2.0449
 3621TIP3   OH232353   4.786   5.113   4.209 -0.0149  0.0428  0.5195
 3621TIP3    H132354   4.738   5.161   4.277 -1.0680  0.3775 -0.4229
 3621TIP3    H232355   4.815   5.181   4.148 -1.4677 -0.4800 -0.8007
 3622TIP3   OH232356   2.449   3.240   1.743 -0.1445  0.3155  0.6320
 3622TIP3    H132357   2.478   3.277   1.827  1.2682 -0.0771  0.3233
 3622TIP3    H232358   2.368   3.194   1.764 -0.6951  1.6383  1.4672
 3623TIP3   OH232359   2.661   1.894  16.912  0.1806  0.4646 -0.5763
 3623TIP3    H132360   2.699   1.808  16.930 -0.7304  0.6723  2.6383
 3623TIP3    H232361   2.734   1.955  16.925  0.6550  0.2443 -2.1706
 3624TIP3   OH232362   0.278   3.810  15.250  0.4694 -0.5623  0.0770
 3624TIP3    H132363   0.275   3.736  15.189  1.1322 -1.1965  0.8169
 3624TIP3    H232364   0.308   3.773  15.332 -0.2652  0.3340  0.7568
 3625TIP3   OH232365   3.607   4.200  17.039  0.7992 -0.2285  0.6703
 3625TIP3    H132366   3.560   4.281  17.061  0.1059 -0.8928  1.6873
 3625TIP3    H232367   3.560   4.165  16.963  1.9021  0.9854 -0.5961
 3626TIP3   OH232368   4.866   0.451   1.697  0.7201 -0.2188  0.3817
 3626TIP3    H132369   4.847   0.462   1.603 -0.3264  0.1085  0.6266
 3626TIP3    H232370   4.886   0.358   1.707 -1.7262 -0.7991  0.2668
 3627TIP3   OH232371   6.529   0.691  13.822  0.4852 -0.2492  0.0280
 3627TIP3    H132372   6.475   0.668  13.898 -0.9305  0.0695 -0.8443
 3627TIP3    H232373   6.594   0.752  13.856 -0.4503  0.2867  0.8973
 3628TIP3   OH232374   4.014   5.833  13.257  0.3836  0.2259 -0.4252
 3628TIP3    H132375   3.981   5.853  13.344 -1.4237 -0.5541 -0.9112
 3628TIP3    H232376   4.008   5.738  13.249  1.4760  0.1904 -1.0456
 3629TIP3   OH232377   4.468   4.255  12.271 -0.3904  0.5025  0.0711
 3629TIP3    H132378   4.522   4.216  12.203 -0.3923 -0.8001  0.7935
 3629TIP3    H232379   4.462   4.347  12.248  0.2914  0.2258 -1.2316
 3630TIP3   OH232380   5.842   1.636  16.646  0.7463  0.5894  0.5737
 3630TIP3    H132381   5.768   1.581  16.621  1.2004  0.0314  0.4563
 3630TIP3    H232382   5.917   1.597  16.602  1.0706  1.3142  0.4741
 3631TIP3   OH232383   0.472   0.385   6.499  0.2142  0.1279  0.7169
 3631TIP3    H132384   0.566   0.380   6.485  0.5305 -0.0530  2.8294
 3631TIP3    H232385   0.441   0.295   6.486  0.4621  0.0113  0.9332
 3632TIP3   OH232386   4.735   2.969  13.081  0.1902  0.0234 -0.1060
 3632TIP3    H132387   4.774   3.002  13.000 -1.4671  0.0496 -0.9035
 3632TIP3    H232388   4.708   3.048  13.128 -0.5877 -0.0757 -0.3969
 3633TIP3   OH232389   4.312   2.831  13.147 -0.0130  0.5107  0.4353
 3633TIP3    H132390   4.279   2.862  13.062  0.3565 -0.2719 -0.0041
 3633TIP3    H232391   4.258   2.755  13.167  0.2696  0.3573  0.6227
 3634TIP3   OH232392   2.995   3.839   1.472 -0.3190  0.1223 -0.2529
 3634TIP3    H132393   2.970   3.777   1.540  1.7186  1.2548  1.6242
 3634TIP3    H232394   3.002   3.923   1.518 -0.6704  1.2684 -2.2418
 3635TIP3   OH232395   0.535   1.760   5.758 -0.4235  0.6785 -0.0157
 3635TIP3    H132396   0.482   1.785   5.834 -0.5906 -1.4176  0.5917
 3635TIP3    H232397   0.621   1.797   5.777 -0.3516 -0.1777  1.4134
 3636TIP3   OH232398   0.877   3.837   3.186  0.1710 -0.5716 -0.1492
 3636TIP3    H132399   0.865   3.888   3.265 -1.4127 -1.2546  0.0634
 3636TIP3    H232400   0.952   3.877   3.142 -1.0620  1.9325 -0.0015
 3637TIP3   OH232401   1.804   0.479   0.840 -0.2262  0.1055 -0.0452
 3637TIP3    H132402   1.845   0.425   0.773 -1.2087 -2.3784  1.3096
 3637TIP3    H232403   1.754   0.418   0.894 -0.9398  2.2911  1.8709
 3638TIP3   OH232404   2.791   3.020   1.377  0.5241  0.1913 -0.5133
 3638TIP3    H132405   2.764   2.944   1.429 -0.0948  0.4285 -0.4825
 3638TIP3    H232406   2.770   3.095   1.433 -0.5695  0.4728 -1.2903
 3639TIP3   OH232407   0.380   4.029   5.502 -0.0638 -0.7039  0.0952
 3639TIP3    H132408   0.357   4.117   5.534  0.1919 -0.5468 -0.1525
 3639TIP3    H232409   0.299   3.996   5.462 -0.0228 -0.3825 -0.2559
 3640TIP3   OH232410   1.949   3.976  10.973  0.1312 -0.0968  0.2669
 3640TIP3    H132411   1.943   3.894  10.923  2.2279  0.1585 -0.4245
 3640TIP3    H232412   1.871   4.026  10.946 -0.1752 -1.0857 -0.7056
 3641TIP3   OH232413   3.323   2.988  11.724  0.0050  0.8217 -0.1476
 3641TIP3    H132414   3.342   2.912  11.778 -1.6206  0.4596 -0.0554
 3641TIP3    H232415   3.230   2.980  11.703 -0.0254  2.4175 -0.7060
 3642TIP3   OH232416   6.156   2.556  17.181 -0.1830  0.2934  0.3183
 3642TIP3    H132417   6.187   2.629  17.234  0.1975  1.5433 -1.5837
 3642TIP3    H232418   6.166   2.479  17.238 -0.7819  1.7319  2.3988
 3643TIP3   OH232419   0.321   5.015   2.977  0.3273  0.4896 -0.4791
 3643TIP3    H132420   0.272   5.075   3.034  1.3514 -0.6943  1.7195
 3643TIP3    H232421   0.375   4.963   3.037  1.9077 -0.4090 -2.5838
 3644TIP3   OH232422   1.927   4.928  14.908 -0.1274 -0.0512  0.6583
 3644TIP3    H132423   1.955   4.984  14.835  3.0728  0.8785  2.5387
 3644TIP3    H232424   1.853   4.975  14.947 -0.0514  0.8340 -0.2410
 3645TIP3   OH232425   1.683   4.860  11.814  0.0098 -0.7118 -0.4953
 3645TIP3    H132426   1.733   4.932  11.852 -1.0615 -0.2595  0.0784
 3645TIP3    H232427   1.593   4.874  11.845 -0.3626 -1.8343 -1.0374
 3646TIP3   OH232428   5.686   3.462   3.843 -0.2364 -0.7082  0.3309
 3646TIP3    H132429   5.706   3.411   3.764 -1.8489  1.7342 -1.7547
 3646TIP3    H232430   5.771   3.477   3.884  0.8991 -0.4064 -2.0124
 3647TIP3   OH232431   4.495   3.796  15.081  0.2571 -0.2954  0.0480
 3647TIP3    H132432   4.548   3.721  15.110 -0.4714 -0.5817  0.6426
 3647TIP3    H232433   4.517   3.805  14.988  2.7030  0.7268  0.6944
 3648TIP3   OH232434   5.066   0.604   3.615  0.6672 -0.4860  0.0669
 3648TIP3    H132435   5.139   0.571   3.562  1.1722  0.7297 -0.0147
 3648TIP3    H232436   5.002   0.634   3.551  0.0525 -1.6155  0.1390
 3649TIP3   OH232437   6.470   5.184  11.566  0.2460 -0.7004 -0.0515
 3649TIP3    H132438   6.527   5.259  11.553  1.8653 -2.0877 -1.2439
 3649TIP3    H232439   6.397   5.198  11.506  0.4801 -0.0063 -0.1762
 3650TIP3   OH232440   2.642   0.277   6.135  0.2266 -0.3389  0.1874
 3650TIP3    H132441   2.732   0.282   6.168  0.5574  0.5915 -0.8240
 3650TIP3    H232442   2.600   0.213   6.191  1.5502 -0.8574  0.6143
 3651TIP3   OH232443   6.551   2.538   4.662  0.5893 -0.0612 -0.3698
 3651TIP3    H132444   6.518   2.546   4.752 -1.3752  2.2814 -1.2658
 3651TIP3    H232445   6.642   2.509   4.673  0.4960  0.5495  2.3907
 3652TIP3   OH232446   3.719   1.494   4.786  0.1877  0.6360 -0.1525
 3652TIP3    H132447   3.787   1.532   4.730  0.3661 -2.0268 -1.8216
 3652TIP3    H232448   3.710   1.404   4.755 -2.6785  0.3403  1.3863
 3653TIP3   OH232449   0.951   3.570   5.324  0.0786 -0.3091 -0.1768
 3653TIP3    H132450   0.959   3.489   5.375  0.9262 -1.4329 -2.0357
 3653TIP3    H232451   1.017   3.561   5.254  0.4946  2.1867 -0.1527
 3654TIP3   OH232452   1.258   1.993   1.841  0.2979  0.0127 -0.4789
 3654TIP3    H132453   1.210   1.914   1.817  0.8688  0.1356 -2.1521
 3654TIP3    H232454   1.339   1.988   1.790  2.5352 -0.6740  3.0391
 3655TIP3   OH232455   6.591   0.700   3.169 -0.0478  0.4383  0.7506
 3655TIP3    H132456   6.679   0.737   3.157  0.4218 -0.9920 -0.2891
 3655TIP3    H232457   6.540   0.737   3.097  0.9869 -2.6219 -1.6266
 3656TIP3   OH232458   3.104   1.974   1.786 -0.8949 -0.7498  0.3434
 3656TIP3    H132459   3.091   2.049   1.728  0.8368 -0.3610  0.4388
 3656TIP3    H232460   3.158   2.007   1.857 -1.1767 -1.7777  1.0549
 3657TIP3   OH232461   0.037   5.034   1.895 -0.0250  0.9159 -0.5464
 3657TIP3    H132462  -0.020   4.968   1.857 -0.7321  1.4270 -0.3785
 3657TIP3    H232463   0.097   5.058   1.824 -0.3188  0.7152 -0.8590
 3658TIP3   OH232464   4.559   1.526  13.915 -0.0944  0.1262  0.2936
 3658TIP3    H132465   4.655   1.516  13.911 -0.3273 -1.4913 -2.5102
 3658TIP3    H232466   4.539   1.583  13.841 -1.5212 -1.4771 -0.5745
 3659TIP3   OH232467   3.240   2.145  12.999  0.0231  0.3078 -0.0778
 3659TIP3    H132468   3.213   2.062  12.959 -0.1243  1.5817 -2.6793
 3659TIP3    H232469   3.288   2.190  12.930  0.1930  2.3497  1.3562
 3660TIP3   OH232470   5.944   0.162   3.300 -0.1008  0.0959 -0.4996
 3660TIP3    H132471   6.036   0.161   3.327 -0.3062  0.6054  0.2309
 3660TIP3    H232472   5.915   0.252   3.315 -0.0567  0.5796 -3.0286
 3661TIP3   OH232473   6.718   5.643  12.361 -0.4189 -0.5421  0.1455
 3661TIP3    H132474   6.634   5.646  12.407 -1.4154  0.2274 -1.6832
 3661TIP3    H232475   6.696   5.619  12.272  1.2350  0.4851 -0.5631
 3662TIP3   OH232476   0.451   6.540   5.086  0.0999 -0.1943  0.1073
 3662TIP3    H132477   0.513   6.594   5.135  0.8155  0.3110 -1.3094
 3662TIP3    H232478   0.460   6.571   4.995  0.2300 -2.4187 -0.6598
 3663TIP3   OH232479   4.236   2.853  11.616  0.4095  0.2513  0.9083
 3663TIP3    H132480   4.217   2.857  11.522 -0.8328 -1.4250  1.0569
 3663TIP3    H232481   4.153   2.825  11.655  1.8007 -2.2769  2.1428
 3664TIP3   OH232482   1.886   2.145   2.481 -0.1936  0.0477  0.0778
 3664TIP3    H132483   1.931   2.065   2.505 -1.9222 -0.7711  0.7183
 3664TIP3    H232484   1.897   2.203   2.557 -0.6086 -0.3287  0.4294
 3665TIP3   OH232485   6.783   2.739  12.329 -0.0354  0.1468 -0.0598
 3665TIP3    H132486   6.876   2.738  12.348 -0.1710 -1.5508  0.6413
 3665TIP3    H232487   6.759   2.646  12.325 -2.1792  0.5357  2.2841
 3666TIP3   OH232488   0.550   4.531   5.186  0.0417  0.1952  0.0252
 3666TIP3    H132489   0.458   4.507   5.180 -0.1181  1.0156 -0.9166
 3666TIP3    H232490   0.597   4.461   5.141 -0.2121  0.3267 -0.4448
 3667TIP3   OH232491   3.377   6.130  14.682 -0.6537  0.0085  0.1239
 3667TIP3    H132492   3.409   6.044  14.708 -0.3175  0.4612  1.2504
 3667TIP3    H232493   3.451   6.170  14.636 -1.0289 -0.5396 -0.9883
 3668TIP3   OH232494   5.349   2.454  14.674 -0.3011 -0.1306 -0.2684
 3668TIP3    H132495   5.424   2.421  14.624 -0.3499 -0.4483 -0.1374
 3668TIP3    H232496   5.292   2.378  14.684  0.5572 -0.5422  1.8370
 3669TIP3   OH232497   6.112   1.925  12.050  0.9122 -0.5694 -0.0368
 3669TIP3    H132498   6.027   1.938  12.093  0.3833  1.8189 -1.6764
 3669TIP3    H232499   6.107   1.837  12.013 -0.2656 -1.0202  1.1583
 3670TIP3   OH232500   3.846   6.166   2.366 -0.4670  0.1596  0.1395
 3670TIP3    H132501   3.757   6.182   2.396 -0.8439 -1.4525 -0.0917
 3670TIP3    H232502   3.900   6.220   2.423 -1.7663  3.4906 -1.6224
 3671TIP3   OH232503   0.184   0.944  13.851 -0.0827 -0.2471  0.4385
 3671TIP3    H132504   0.242   1.002  13.801  0.8034 -1.0884  0.4866
 3671TIP3    H232505   0.191   0.976  13.941 -0.1186 -0.0004  0.3533
 3672TIP3   OH232506   3.187   0.766   3.625 -0.0296 -0.0256 -0.9104
 3672TIP3    H132507   3.104   0.720   3.628  0.4781 -0.9404 -0.7531
 3672TIP3    H232508   3.168   0.847   3.577 -1.2879  0.3716  0.2135
 3673TIP3   OH232509   6.736   4.235  14.683 -0.0501  0.5905 -0.1341
 3673TIP3    H132510   6.717   4.328  14.690 -1.9510  0.2543 -0.7321
 3673TIP3    H232511   6.683   4.204  14.610  0.2075 -1.0501  0.3397
 3674TIP3   OH232512   4.363   6.088  16.946 -0.0045  0.5057 -0.0723
 3674TIP3    H132513   4.432   6.086  16.880  0.1492  1.0717  0.0702
 3674TIP3    H232514   4.391   6.156  17.008 -0.1573 -0.0043  0.5648
 3675TIP3   OH232515   0.110   6.431  13.319 -0.3517  0.0292 -0.4900
 3675TIP3    H132516   0.205   6.437  13.324 -0.3688 -0.6148  0.6458
 3675TIP3    H232517   0.092   6.344  13.286 -0.5471  0.0936 -0.5572
 3676TIP3   OH232518   0.588   3.099  14.481 -0.2046 -0.4781  0.1797
 3676TIP3    H132519   0.548   3.028  14.530  0.0199 -1.1309 -0.5612
 3676TIP3    H232520   0.661   3.058  14.434 -1.1764 -0.1454 -1.6874
 3677TIP3   OH232521   5.298   4.909  15.075  0.3847  0.3819  0.3839
 3677TIP3    H132522   5.298   4.953  15.159 -0.2952 -0.1059  0.6407
 3677TIP3    H232523   5.377   4.941  15.031  0.1411  1.4888  0.7492
 3678TIP3   OH232524   2.439   2.143   2.561 -0.9493  0.4494  0.1633
 3678TIP3    H132525   2.401   2.230   2.570  0.3704  1.1069 -0.4740
 3678TIP3    H232526   2.414   2.114   2.474 -0.0688  0.8508 -0.2271
 3679TIP3   OH232527   2.807   3.435  11.376 -0.3414  0.0958  0.0578
 3679TIP3    H132528   2.836   3.515  11.331 -0.2211 -0.7432 -1.3971
 3679TIP3    H232529   2.751   3.467  11.447 -0.7957  1.4693 -0.8812
 3680TIP3   OH232530   1.985   5.634   1.059 -0.3525  0.3394 -0.2833
 3680TIP3    H132531   1.984   5.725   1.086 -1.8803  0.1786  0.2284
 3680TIP3    H232532   2.045   5.591   1.121  0.1855  0.9411 -0.3865
 3681TIP3   OH232533   3.701   2.557   4.980 -0.1999 -0.3465  0.3369
 3681TIP3    H132534   3.634   2.502   4.940  1.2042 -1.8561  0.0088
 3681TIP3    H232535   3.746   2.598   4.906 -0.7363  0.6425  0.5535
 3682TIP3   OH232536   6.690   4.632  14.316 -1.3440 -0.0988  0.3910
 3682TIP3    H132537   6.642   4.560  14.275 -3.3283  2.0175 -1.1405
 3682TIP3    H232538   6.738   4.673  14.243 -0.8039  0.5550  1.1039
 3683TIP3   OH232539   2.132   3.470  13.194 -0.2181  0.0375  0.3959
 3683TIP3    H132540   2.213   3.421  13.185 -0.4833 -0.2194 -0.6373
 3683TIP3    H232541   2.102   3.451  13.283 -0.4868 -1.9256 -0.0995
 3684TIP3   OH232542   3.636   0.142  14.167  0.0611  0.4588  0.1140
 3684TIP3    H132543   3.630   0.196  14.246 -1.4527  0.9556 -0.3171
 3684TIP3    H232544   3.635   0.052  14.199  3.7070  0.6470  0.9237
 3685TIP3   OH232545   5.669   5.436  13.356  0.0214 -0.0487 -0.1310
 3685TIP3    H132546   5.751   5.399  13.325  0.2400 -0.1892  0.6042
 3685TIP3    H232547   5.617   5.360  13.383  0.0210  0.0980  0.2904
 3686TIP3   OH232548   0.809   0.641   5.769  0.6433 -0.2194 -0.4218
 3686TIP3    H132549   0.890   0.611   5.810  0.9543  1.0190 -0.0936
 3686TIP3    H232550   0.836   0.669   5.681  0.7194  0.8970 -0.0507
 3687TIP3   OH232551   4.705   2.094   6.158 -0.1191  0.3587 -0.1379
 3687TIP3    H132552   4.668   2.086   6.071 -2.4435  0.4131  0.8125
 3687TIP3    H232553   4.701   2.188   6.178  1.0269  0.4380 -0.2042
 3688TIP3   OH232554   4.446   5.300  15.396 -1.2349 -0.5866  1.1555
 3688TIP3    H132555   4.512   5.239  15.429 -0.8414 -0.1214  1.2425
 3688TIP3    H232556   4.473   5.385  15.430  0.0726  0.1710 -1.6153
 3689TIP3   OH232557   6.660   3.494   2.597 -1.2456 -0.2691  0.5944
 3689TIP3    H132558   6.748   3.456   2.598 -1.3632 -0.6366 -1.5466
 3689TIP3    H232559   6.656   3.542   2.514 -2.9546  0.0182  0.8338
 3690TIP3   OH232560   5.098   5.509   0.639  0.2665 -0.0235 -0.3435
 3690TIP3    H132561   5.175   5.469   0.596 -0.3651 -0.3358 -1.1965
 3690TIP3    H232562   5.029   5.503   0.573 -0.4187  0.5061  0.3323
 3691TIP3   OH232563   1.926   0.096  16.032  0.8458 -0.0375  0.4145
 3691TIP3    H132564   1.856   0.157  16.057  0.3969 -0.3992  0.0601
 3691TIP3    H232565   1.935   0.109  15.938  0.3543 -0.9249  0.2374
 3692TIP3   OH232566   0.130   2.771   5.322 -0.5363  0.1767  0.1002
 3692TIP3    H132567   0.103   2.791   5.232 -1.3614 -2.8322 -0.3450
 3692TIP3    H232568   0.048   2.752   5.368  0.1717 -1.4781  0.6797
 3693TIP3   OH232569   2.693   5.865  15.768  0.3146 -0.1640  0.3466
 3693TIP3    H132570   2.770   5.841  15.820  0.5365  0.1390  0.1615
 3693TIP3    H232571   2.718   5.843  15.678 -0.1197 -0.8182  0.3847
 3694TIP3   OH232572   4.827   5.952  11.852 -0.4104  0.4384 -0.2468
 3694TIP3    H132573   4.909   5.903  11.850 -0.2519  0.7248 -1.0887
 3694TIP3    H232574   4.766   5.895  11.900 -0.6834 -1.3214 -2.5570
 3695TIP3   OH232575   5.436   0.502   0.364  0.0164  0.3436  0.1695
 3695TIP3    H132576   5.528   0.474   0.362  0.3208  1.3983 -0.7944
 3695TIP3    H232577   5.408   0.497   0.273 -1.3235 -1.3375  0.6456
 3696TIP3   OH232578   5.644   0.069   0.073 -0.0991  0.2229 -0.2083
 3696TIP3    H132579   5.724   0.061   0.021  0.3990  2.5705  0.1528
 3696TIP3    H232580   5.668   0.039   0.161 -0.1389 -0.8443 -0.5501
 3697TIP3   OH232581   3.461   0.645   2.337  0.4655 -0.2158 -0.2168
 3697TIP3    H132582   3.543   0.611   2.373  1.5779  1.2499 -1.3190
 3697TIP3    H232583   3.484   0.677   2.250 -1.3991 -0.2718 -0.7662
 3698TIP3   OH232584   4.276   6.401  14.792 -0.1382 -0.5115 -0.2248
 3698TIP3    H132585   4.348   6.344  14.820  0.2189 -0.7899 -1.6811
 3698TIP3    H232586   4.199   6.366  14.836  0.7436  0.3396  2.0709
 3699TIP3   OH232587   1.428   5.961   1.359 -0.6658  0.7905  0.1611
 3699TIP3    H132588   1.340   5.993   1.379 -1.9663 -1.5821 -1.6001
 3699TIP3    H232589   1.444   5.892   1.423  0.1042  1.4371  0.6962
 3700TIP3   OH232590   1.204   1.440   6.309  0.4977 -0.4258 -0.1500
 3700TIP3    H132591   1.151   1.480   6.240 -0.1058 -1.1532 -0.1137
 3700TIP3    H232592   1.294   1.448   6.278  0.3515  0.5529 -0.3463
 3701TIP3   OH232593   3.172   0.638  13.730 -0.1602  0.0969 -0.0058
 3701TIP3    H132594   3.150   0.560  13.679  0.7492  0.7269 -1.3981
 3701TIP3    H232595   3.168   0.710  13.667 -0.5127  1.1093  1.1579
 3702TIP3   OH232596   6.533   3.059   1.241  0.1277  0.0884 -0.0138
 3702TIP3    H132597   6.489   2.975   1.259 -1.1678  1.1185  1.8525
 3702TIP3    H232598   6.622   3.047   1.275 -0.7577  0.2355  2.4408
 3703TIP3   OH232599   3.382   5.023  10.413  0.1304 -0.2609  0.2309
 3703TIP3    H132600   3.332   4.980  10.343  1.3387  1.3335 -1.6855
 3703TIP3    H232601   3.462   4.970  10.421  0.2461 -0.1209  0.0062
 3704TIP3   OH232602   1.912   0.294   6.625  0.2958  0.1315 -0.0329
 3704TIP3    H132603   1.937   0.375   6.580  0.6223  0.2187  0.3012
 3704TIP3    H232604   1.839   0.260   6.574 -2.3544  2.5882  1.9124
 3705TIP3   OH232605   3.212   2.975   2.913  0.3728  0.4754 -0.0797
 3705TIP3    H132606   3.148   2.976   2.983 -1.2291  1.5839 -1.5067
 3705TIP3    H232607   3.175   2.917   2.847  0.4587  1.7222 -1.2506
 3706TIP3   OH232608   5.186   6.386  11.779 -0.2182  0.1662  0.4398
 3706TIP3    H132609   5.223   6.363  11.694 -0.2333  0.8948  0.2356
 3706TIP3    H232610   5.094   6.407  11.761 -0.1439  0.6261  0.5841
 3707TIP3   OH232611   4.014   1.937  12.382 -0.3836 -0.8239 -0.8631
 3707TIP3    H132612   3.995   2.013  12.327 -0.3536 -0.1109  0.1084
 3707TIP3    H232613   4.101   1.955  12.419 -2.5331  1.1698  3.5114
 3708TIP3   OH232614   4.718   4.389  14.114  0.4853 -0.1293 -0.3426
 3708TIP3    H132615   4.798   4.431  14.145 -0.4762  1.2463  0.3952
 3708TIP3    H232616   4.650   4.420  14.175 -1.3234  1.9490 -3.2689
 3709TIP3   OH232617   4.728   5.255  15.796  0.4814  0.1251  0.4460
 3709TIP3    H132618   4.671   5.205  15.737 -0.4287  0.4805  1.0147
 3709TIP3    H232619   4.746   5.336  15.748  0.3150  0.1114  0.3564
 3710TIP3   OH232620   6.739   1.568  17.257 -0.4231 -0.0492 -0.4473
 3710TIP3    H132621   6.673   1.499  17.252 -1.0077  0.4577  0.2220
 3710TIP3    H232622   6.721   1.613  17.339  1.5094 -0.6668  0.3445
 3711TIP3   OH232623   1.789   3.413   5.191 -0.1039 -0.1336 -0.3132
 3711TIP3    H132624   1.877   3.443   5.215  0.6818 -1.0006 -2.0275
 3711TIP3    H232625   1.778   3.441   5.100 -1.2042 -0.9122 -0.4263
 3712TIP3   OH232626   5.924   1.162  13.012 -0.0845  0.3682 -0.1364
 3712TIP3    H132627   5.928   1.242  12.959  0.7196 -0.3121 -1.1131
 3712TIP3    H232628   5.943   1.091  12.950 -0.0886 -0.5181  0.8676
 3713TIP3   OH232629   0.207   4.021  15.410  0.1375 -0.5060  0.0351
 3713TIP3    H132630   0.216   3.938  15.363 -0.0255 -0.4227 -0.1400
 3713TIP3    H232631   0.147   4.001  15.482  0.0481 -0.5234 -0.0449
 3714TIP3   OH232632   0.150   0.654  13.799 -0.0749  0.6360 -0.0961
 3714TIP3    H132633   0.130   0.639  13.892 -0.8429  0.0614 -0.3440
 3714TIP3    H232634   0.179   0.745  13.795 -3.6095  1.8663  0.1744
 3715TIP3   OH232635   3.166   3.250   0.882 -0.0216 -0.5142  0.5895
 3715TIP3    H132636   3.216   3.327   0.906  0.1109 -0.1706 -0.7241
 3715TIP3    H232637   3.089   3.253   0.938  0.6075 -0.1257  1.4363
 3716TIP3   OH232638   0.085   5.809  13.291 -0.7536 -0.0433  0.6234
 3716TIP3    H132639   0.123   5.725  13.264  2.0568  0.8974  1.4189
 3716TIP3    H232640   0.030   5.836  13.218  0.9221 -1.0463 -1.0525
 3717TIP3   OH232641   0.017   5.456  11.692  0.1737  0.0773  0.6983
 3717TIP3    H132642   0.003   5.433  11.600  1.1232 -1.2678  0.8756
 3717TIP3    H232643   0.076   5.531  11.688 -0.1398  0.3014  0.1973
 3718TIP3   OH232644   3.697   1.759   5.295  0.6011  0.2713  0.0819
 3718TIP3    H132645   3.632   1.806   5.243  1.2745  0.2445 -0.7851
 3718TIP3    H232646   3.712   1.815   5.371 -0.1041  0.4841  0.0666
 3719TIP3   OH232647   5.806   0.176  16.969 -0.5318  0.1884  0.1961
 3719TIP3    H132648   5.893   0.182  16.930 -0.8144 -0.5869 -0.5650
 3719TIP3    H232649   5.797   0.257  17.021  0.5673  0.3446  0.1522
 3720TIP3   OH232650   2.323   1.682  17.158 -0.1619 -0.0980 -0.3014
 3720TIP3    H132651   2.357   1.771  17.152  1.5453 -0.7785 -1.1595
 3720TIP3    H232652   2.401   1.628  17.174 -1.1556 -1.4545  0.0416
 3721TIP3   OH232653   0.051   1.441   2.830  0.6956 -0.2870  0.1179
 3721TIP3    H132654   0.128   1.391   2.801  0.2984  0.2814 -2.0505
 3721TIP3    H232655   0.054   1.437   2.925  1.4980 -3.1969  0.0230
 3722TIP3   OH232656   2.944   3.639  16.590 -0.5481  0.8433  0.4310
 3722TIP3    H132657   2.992   3.708  16.544  0.8504 -1.0112 -0.9892
 3722TIP3    H232658   3.012   3.583  16.626 -1.6713  0.2955  1.7285
 3723TIP3   OH232659   4.851   5.355   3.485 -0.1359 -0.4918 -0.3434
 3723TIP3    H132660   4.945   5.368   3.479 -0.1103 -1.7365 -3.2043
 3723TIP3    H232661   4.824   5.332   3.397 -2.8296 -2.1869  0.8593
 3724TIP3   OH232662   3.639   6.396  15.235 -0.2365 -0.4673  0.3931
 3724TIP3    H132663   3.617   6.372  15.325  1.9520 -2.5352  0.4156
 3724TIP3    H232664   3.653   6.313  15.190  0.1206  0.5882 -1.4873
 3725TIP3   OH232665   1.962   1.861   0.548 -0.6513  0.8574 -0.1197
 3725TIP3    H132666   2.056   1.851   0.530 -0.8247 -0.3330 -0.4591
 3725TIP3    H232667   1.957   1.923   0.620  0.4970 -0.3075  0.9867
 3726TIP3   OH232668   5.054   1.687   0.898  0.0691 -0.2222 -0.0682
 3726TIP3    H132669   4.966   1.703   0.931  0.2198  1.0522 -0.2482
 3726TIP3    H232670   5.083   1.608   0.944 -1.4819 -1.1465 -0.6640
 3727TIP3   OH232671   5.690   1.619   3.186  0.2076  0.6679  0.2617
 3727TIP3    H132672   5.617   1.573   3.226  0.1516  0.1661 -0.4068
 3727TIP3    H232673   5.721   1.560   3.118  2.1061  0.2911  1.4251
 3728TIP3   OH232674   3.579   4.002   0.866  0.0924  0.0490 -0.0770
 3728TIP3    H132675   3.630   3.923   0.852  0.5963  0.5849 -1.3792
 3728TIP3    H232676   3.561   4.003   0.960  1.6834 -0.6337  0.2488
 3729TIP3   OH232677   4.879   2.823  12.267 -0.0569  0.0465 -0.3989
 3729TIP3    H132678   4.973   2.822  12.286 -0.4645 -0.9518  1.7560
 3729TIP3    H232679   4.870   2.886  12.195  1.9001  2.4617  1.3618
 3730TIP3   OH232680   3.402   6.403  12.352  0.1981 -0.0739 -0.5064
 3730TIP3    H132681   3.377   6.315  12.324  1.9927 -0.8599  0.2878
 3730TIP3    H232682   3.485   6.391  12.398  1.2082  2.2293 -1.6432
 3731TIP3   OH232683   5.291   5.420   6.522  0.4789  0.1005  0.0413
 3731TIP3    H132684   5.224   5.411   6.455  0.2573  1.2407  0.1009
 3731TIP3    H232685   5.243   5.418   6.605  0.3395  2.2698  0.0477
 3732TIP3   OH232686   0.765   0.728   2.954 -0.2419 -0.4197  0.0211
 3732TIP3    H132687   0.850   0.766   2.973  0.1000 -1.8237  1.3537
 3732TIP3    H232688   0.766   0.713   2.859  0.5107  0.6858 -0.1497
 3733TIP3   OH232689   6.243   3.846   4.087  0.2436  1.0183 -0.0048
 3733TIP3    H132690   6.151   3.874   4.084 -0.0910 -0.1250 -2.1883
 3733TIP3    H232691   6.244   3.764   4.037  2.0949 -0.0824  1.7913
 3734TIP3   OH232692   3.123   2.210  13.966  0.3475  0.2572 -0.0655
 3734TIP3    H132693   3.104   2.242  13.878  0.9825  0.6880 -0.0472
 3734TIP3    H232694   3.103   2.283  14.024 -0.0774 -0.0280  0.1583
 3735TIP3   OH232695   3.560   2.772  12.489 -0.2773  0.4959 -0.1601
 3735TIP3    H132696   3.630   2.835  12.474  1.1251 -0.5007  1.9341
 3735TIP3    H232697   3.538   2.739  12.401  1.7085  0.9992 -0.8746
 3736TIP3   OH232698   3.798   5.728  14.109  0.7481  0.6646 -0.2495
 3736TIP3    H132699   3.813   5.816  14.073 -1.2090  0.7390 -0.9798
 3736TIP3    H232700   3.716   5.738  14.159 -0.2107 -1.0445 -1.4484
 3737TIP3   OH232701   2.080   1.884   1.442  0.1840  0.2908 -0.6515
 3737TIP3    H132702   2.033   1.912   1.521  2.5318 -0.5515  1.1191
 3737TIP3    H232703   2.144   1.821   1.474 -0.0744 -1.5074 -3.5337
 3738TIP3   OH232704   6.131   3.609   1.960 -0.0241 -0.2171  0.0609
 3738TIP3    H132705   6.213   3.639   1.920  0.3176 -2.1522 -0.7667
 3738TIP3    H232706   6.122   3.662   2.039  1.0972  1.2681 -0.7871
 3739TIP3   OH232707   2.363   5.711   4.277 -0.3600  0.5530 -0.5478
 3739TIP3    H132708   2.382   5.623   4.244 -0.5564  0.5278 -0.5946
 3739TIP3    H232709   2.404   5.770   4.213  1.2788  0.4878  0.4022
 3740TIP3   OH232710   0.945   3.673  12.940 -0.2458  0.3307  0.2718
 3740TIP3    H132711   0.870   3.731  12.925  0.2770  1.0635  0.4448
 3740TIP3    H232712   1.000   3.685  12.863 -0.8527 -1.0786 -0.3922
 3741TIP3   OH232713   6.340   6.181  14.425  0.3474 -0.3521 -0.1314
 3741TIP3    H132714   6.278   6.119  14.388 -0.6649  1.1279 -1.0095
 3741TIP3    H232715   6.393   6.210  14.350 -0.1831  0.9386 -0.0291
 3742TIP3   OH232716   0.272   6.365   4.918  0.1070 -0.1231 -0.1597
 3742TIP3    H132717   0.187   6.399   4.891  0.8570  1.1384 -1.0052
 3742TIP3    H232718   0.291   6.409   5.001  0.8579  1.2025 -1.0120
 3743TIP3   OH232719   4.560   2.134  15.196  0.4248 -0.1591 -0.4377
 3743TIP3    H132720   4.592   2.047  15.171  0.3822 -0.4307  0.4481
 3743TIP3    H232721   4.468   2.120  15.220 -0.5024  0.6702 -3.2769
 3744TIP3   OH232722   2.126   1.022  11.923  0.4771  0.4593  0.0680
 3744TIP3    H132723   2.084   0.996  12.006 -0.0396  0.7825 -0.0905
 3744TIP3    H232724   2.207   1.066  11.950  0.4818  0.2545  0.3911
 3745TIP3   OH232725   4.734   3.666   6.043  1.0792 -0.0280 -0.3769
 3745TIP3    H132726   4.799   3.690   5.977  0.0261 -0.0900 -1.4548
 3745TIP3    H232727   4.695   3.749   6.070  1.0049 -0.0621 -0.3775
 3746TIP3   OH232728   4.624   0.577  15.214 -0.4291 -0.1604  0.5958
 3746TIP3    H132729   4.612   0.505  15.152 -0.2160 -0.1566  0.5510
 3746TIP3    H232730   4.712   0.565  15.249  0.2761  1.0517 -0.6726
 3747TIP3   OH232731   2.513   3.129  11.021 -0.7232 -0.7653 -0.1837
 3747TIP3    H132732   2.483   3.090  11.103 -3.5640  2.6206  0.5085
 3747TIP3    H232733   2.442   3.111  10.959 -0.8319  0.8684 -0.5594
 3748TIP3   OH232734   6.628   1.055   1.188  0.0803 -0.2508 -0.1611
 3748TIP3    H132735   6.642   1.137   1.236  1.3914 -0.3678 -0.3106
 3748TIP3    H232736   6.710   1.041   1.140 -0.9688 -0.4877 -1.9253
 3749TIP3   OH232737   4.117   6.132  16.808 -0.8950 -0.5756 -0.9122
 3749TIP3    H132738   4.148   6.220  16.785 -0.3442 -0.4423  0.3334
 3749TIP3    H232739   4.190   6.093  16.857 -2.2760 -0.6573  1.1170
 3750TIP3   OH232740   5.970   2.243   3.721  0.7836 -0.0405 -0.2728
 3750TIP3    H132741   5.884   2.253   3.763  0.5882  0.9616 -0.9051
 3750TIP3    H232742   6.033   2.264   3.791  0.5575 -1.8984  0.5146
 3751TIP3   OH232743   1.973   2.849  16.401 -0.6516 -0.0690 -0.2715
 3751TIP3    H132744   2.015   2.882  16.480  0.1749 -0.6125 -0.4719
 3751TIP3    H232745   1.945   2.760  16.424  0.9338 -0.7920 -1.0344
 3752TIP3   OH232746   6.651   4.693   1.575 -0.0597  0.2406  0.3771
 3752TIP3    H132747   6.675   4.602   1.595  1.4170  0.7023  0.7731
 3752TIP3    H232748   6.567   4.686   1.528 -0.6452 -1.2232  1.6119
 3753TIP3   OH232749   3.674   4.203   6.108  0.6891  0.4687  0.1317
 3753TIP3    H132750   3.585   4.198   6.071  1.1866  0.9709 -1.1644
 3753TIP3    H232751   3.696   4.112   6.128  0.6250  0.1088 -1.3603
 3754TIP3   OH232752   4.642   0.743  13.857 -0.6155  0.1593 -0.0855
 3754TIP3    H132753   4.577   0.801  13.816 -0.5966  0.4387  0.2780
 3754TIP3    H232754   4.616   0.655  13.830 -0.6347  0.3387 -0.6543
 3755TIP3   OH232755   2.381   0.690   5.111 -0.0062  0.1539 -0.4555
 3755TIP3    H132756   2.332   0.648   5.181  2.0011 -1.5689 -0.0431
 3755TIP3    H232757   2.427   0.763   5.153 -1.7746  1.4570 -0.7451
 3756TIP3   OH232758   5.958   5.749  16.184  0.0433 -0.6107 -0.1783
 3756TIP3    H132759   5.948   5.726  16.277 -0.3473 -1.3462 -0.3971
 3756TIP3    H232760   5.875   5.724  16.145 -1.2445  3.2605 -0.0444
 3757TIP3   OH232761   4.322   5.901  16.256  0.4887  0.5255  0.0542
 3757TIP3    H132762   4.393   5.839  16.235 -0.8485 -0.7863 -0.7245
 3757TIP3    H232763   4.281   5.865  16.334 -0.3511  0.3584 -0.4544
 3758TIP3   OH232764   4.461   4.917  13.861 -0.4005  0.0540  0.0079
 3758TIP3    H132765   4.515   4.893  13.936 -1.9155 -1.5773  0.6286
 3758TIP3    H232766   4.399   4.980  13.896 -1.1074 -0.7059  0.1551
 3759TIP3   OH232767   2.653   1.304  15.920  0.0446  0.0643  0.8170
 3759TIP3    H132768   2.575   1.252  15.901 -1.1529  1.2659  2.3253
 3759TIP3    H232769   2.661   1.365  15.847  0.0688 -0.6178  0.2461
 3760TIP3   OH232770   6.259   5.828   0.599  0.5456 -0.8191 -0.2453
 3760TIP3    H132771   6.249   5.859   0.510  1.2722 -1.5304 -0.5868
 3760TIP3    H232772   6.265   5.907   0.652 -0.8151 -0.3932 -0.7096
 3761TIP3   OH232773   6.083   3.843   3.771  0.0378  0.6451  0.2302
 3761TIP3    H132774   6.037   3.927   3.763 -0.3635  0.5109  0.9880
 3761TIP3    H232775   6.153   3.847   3.706 -1.3141  0.6831 -1.2542
 3762TIP3   OH232776   1.182   6.248   2.137  0.2898  0.1267  0.4563
 3762TIP3    H132777   1.094   6.211   2.149  1.0350 -1.3602  1.4731
 3762TIP3    H232778   1.176   6.298   2.056 -1.5328  0.1441  0.5789
 3763TIP3   OH232779   2.785   0.638   5.365 -0.0190 -0.2133  0.1928
 3763TIP3    H132780   2.807   0.693   5.440  1.7310  0.3891 -0.7400
 3763TIP3    H232781   2.694   0.660   5.345  0.2470  1.3593  0.6624
 3764TIP3   OH232782   4.667   6.615  14.605  0.2188 -0.3881  0.0917
 3764TIP3    H132783   4.641   6.657  14.524 -2.1599  0.8466  1.4493
 3764TIP3    H232784   4.589   6.616  14.660  2.1161  0.0489  2.9229
 3765TIP3   OH232785   5.816   4.396   1.156 -0.2672  0.3723 -0.1441
 3765TIP3    H132786   5.795   4.489   1.166  0.9244  0.7141 -0.7130
 3765TIP3    H232787   5.860   4.373   1.238 -2.5994 -0.3026  0.9778
 3766TIP3   OH232788   4.841   6.063   4.002 -1.0186 -0.2477 -0.0744
 3766TIP3    H132789   4.875   6.110   3.927 -1.2726 -0.7354 -0.5015
 3766TIP3    H232790   4.849   6.124   4.075  0.5325 -0.2829 -0.2124
 3767TIP3   OH232791   5.889   1.105  16.695  0.4630 -0.7781 -0.3960
 3767TIP3    H132792   5.904   1.044  16.767  0.6404 -0.3363 -0.0464
 3767TIP3    H232793   5.871   1.189  16.738 -2.5988 -1.1696 -0.8115
 3768TIP3   OH232794   1.194   2.374  12.433  0.1544  0.0178  0.5493
 3768TIP3    H132795   1.144   2.449  12.467 -1.3643 -0.4298 -0.6217
 3768TIP3    H232796   1.209   2.319  12.510 -1.6343 -0.0771  0.8715
 3769TIP3   OH232797   5.171   5.450  16.772 -0.9253 -0.6142 -0.5441
 3769TIP3    H132798   5.144   5.469  16.862  0.4597  0.2602 -0.2889
 3769TIP3    H232799   5.123   5.513  16.719 -2.4691 -1.7542 -0.5273
 3770TIP3   OH232800   2.505   5.763  14.015  0.1978 -0.1274 -0.2177
 3770TIP3    H132801   2.490   5.831  13.949 -0.4504 -0.7751 -0.7322
 3770TIP3    H232802   2.578   5.798  14.068  2.0154 -0.4407 -2.4300
 3771TIP3   OH232803   2.053   1.365  15.228  0.2333  0.2133  0.3442
 3771TIP3    H132804   2.070   1.458  15.247 -1.3084  0.7071 -0.6295
 3771TIP3    H232805   1.960   1.353  15.248 -0.7398  0.0207 -3.9205
 3772TIP3   OH232806   2.742   2.133   4.438 -0.2947 -0.2840 -0.7309
 3772TIP3    H132807   2.720   2.183   4.517  1.7309 -0.5368  0.0220
 3772TIP3    H232808   2.741   2.042   4.468  1.9850 -0.2843 -0.6023
 3773TIP3   OH232809   4.179   5.196   5.283 -0.8862 -0.3566  0.1533
 3773TIP3    H132810   4.231   5.271   5.256 -2.7434  0.6106 -0.7885
 3773TIP3    H232811   4.146   5.219   5.370 -1.7371  0.0826 -0.2785
 3774TIP3   OH232812   0.808   3.973   0.461 -0.4477 -0.9921 -0.8685
 3774TIP3    H132813   0.899   3.965   0.490 -0.5686  2.7704  0.8208
 3774TIP3    H232814   0.757   3.936   0.532 -0.3713  0.2557 -0.1550
 3775TIP3   OH232815   5.607   4.657   3.163 -0.0324  0.1999 -0.1955
 3775TIP3    H132816   5.682   4.603   3.139 -0.2104 -0.5226  0.8457
 3775TIP3    H232817   5.531   4.609   3.130 -0.2756 -0.7811  1.7424
 3776TIP3   OH232818   4.941   4.976   5.266  0.2624 -0.2666 -0.0908
 3776TIP3    H132819   4.967   4.897   5.219 -0.0128 -1.0229  1.0000
 3776TIP3    H232820   4.976   5.048   5.214  1.2742 -1.1419 -0.6412
 3777TIP3   OH232821   2.984   1.051  15.643 -1.2078  0.5583  0.4224
 3777TIP3    H132822   2.894   1.053  15.678 -0.8528 -0.1860  1.4074
 3777TIP3    H232823   2.973   1.057  15.549 -2.4979 -2.9823  0.2506
 3778TIP3   OH232824   4.098   0.484  16.720 -0.1543 -0.0109 -0.1443
 3778TIP3    H132825   4.143   0.473  16.804  1.0376 -1.3703 -0.9413
 3778TIP3    H232826   4.162   0.457  16.655 -1.5656 -0.3514 -1.4135
 3779TIP3   OH232827   3.889   5.732  16.873 -0.0187 -0.4937  0.7450
 3779TIP3    H132828   3.793   5.736  16.867  0.0054  1.3018  1.4976
 3779TIP3    H232829   3.919   5.746  16.783 -0.3941  1.8304  0.9470
 3780TIP3   OH232830   1.379   5.883  11.375 -0.4747  0.5347  0.3491
 3780TIP3    H132831   1.324   5.808  11.355 -1.3403  1.4311 -0.6593
 3780TIP3    H232832   1.429   5.856  11.453  0.6315 -1.7982 -1.1160
 3781TIP3   OH232833   0.040   0.817  14.192 -0.0106  0.3911 -0.3390
 3781TIP3    H132834   0.074   0.833  14.280 -0.4730 -0.7398  0.0549
 3781TIP3    H232835   0.105   0.856  14.133  2.4805 -2.5035  0.3699
 3782TIP3   OH232836   5.161   0.904  15.568  0.0156 -0.4363  0.3442
 3782TIP3    H132837   5.189   0.931  15.656 -1.5818 -1.7394  1.2885
 3782TIP3    H232838   5.205   0.821  15.553  1.1404  0.3142 -0.5514
 3783TIP3   OH232839   1.659   6.363   0.069 -0.5483 -0.0357 -0.5610
 3783TIP3    H132840   1.623   6.275   0.080 -1.1443  0.0065 -2.0177
 3783TIP3    H232841   1.585   6.415   0.037  0.0135  0.7986 -0.5148
 3784TIP3   OH232842   5.252   3.622  15.989 -0.2538  0.1635 -0.7397
 3784TIP3    H132843   5.243   3.642  15.896  0.2206  0.3279 -0.7528
 3784TIP3    H232844   5.296   3.699  16.026 -1.5818  0.6478 -0.1388
 3785TIP3   OH232845   2.055   4.777  14.055 -0.9130 -0.1838 -0.0513
 3785TIP3    H132846   2.111   4.822  14.118 -1.2608 -1.4493  1.1623
 3785TIP3    H232847   2.012   4.848  14.007 -0.4060  0.7797  0.8995
 3786TIP3   OH232848   5.677   5.077   2.036 -0.1087 -0.1667 -0.3206
 3786TIP3    H132849   5.617   5.031   2.094 -0.6306  0.5411 -0.2854
 3786TIP3    H232850   5.625   5.149   2.000  0.7796  0.5771 -0.1341
 3787TIP3   OH232851   0.127   0.961  10.996 -0.3937  0.1607  0.1873
 3787TIP3    H132852   0.081   1.001  10.922 -1.4481 -2.4349 -0.6447
 3787TIP3    H232853   0.213   0.937  10.961 -1.7351 -3.2373 -0.9940
 3788TIP3   OH232854   6.764   5.152   1.252 -0.6619  0.1339 -0.0090
 3788TIP3    H132855   6.825   5.117   1.187 -1.8112 -1.7667 -0.1129
 3788TIP3    H232856   6.793   5.113   1.335 -0.5281  0.8067  0.2616
 3789TIP3   OH232857   2.508   2.703  15.816 -0.1123  0.0565  0.3837
 3789TIP3    H132858   2.451   2.759  15.763  0.2940 -0.5023 -0.6488
 3789TIP3    H232859   2.515   2.749  15.900 -0.5068  1.1014 -0.1514
 3790TIP3   OH232860   6.110   4.394  11.091  0.3100 -0.3792 -0.0410
 3790TIP3    H132861   6.144   4.331  11.154 -1.6152 -1.1745  0.2418
 3790TIP3    H232862   6.024   4.359  11.066 -0.4395  1.7082 -0.4992
 3791TIP3   OH232863   3.509   2.871   2.828 -0.6266 -0.5548  0.1037
 3791TIP3    H132864   3.561   2.831   2.898 -1.1477  1.9035  1.9884
 3791TIP3    H232865   3.419   2.867   2.860 -1.0286 -0.6015 -1.0241
 3792TIP3   OH232866   1.353   0.403   3.454  0.2142 -0.4046  0.9410
 3792TIP3    H132867   1.369   0.360   3.538  0.7726 -0.2257  0.9262
 3792TIP3    H232868   1.434   0.390   3.404 -0.9689 -2.6025 -0.4881
 3793TIP3   OH232869   2.736   3.639  13.166  0.3885 -0.0525  0.3692
 3793TIP3    H132870   2.762   3.551  13.193  0.2942 -0.1699  0.0850
 3793TIP3    H232871   2.687   3.625  13.084  1.8772  0.4124 -0.6127
 3794TIP3   OH232872   4.551   2.332  11.921  0.4864  0.4854 -0.3192
 3794TIP3    H132873   4.637   2.291  11.913  0.1138 -0.5164  0.6777
 3794TIP3    H232874   4.528   2.355  11.831  0.5319 -1.8735 -0.9876
 3795TIP3   OH232875   4.528   1.833   1.940  0.6465  0.0179 -0.3572
 3795TIP3    H132876   4.570   1.749   1.955  0.0424 -0.1444  0.4530
 3795TIP3    H232877   4.550   1.855   1.849  0.3816 -1.2638 -0.7442
 3796TIP3   OH232878   3.105   3.832  13.616  0.6542  0.0348  0.2097
 3796TIP3    H132879   3.078   3.850  13.707 -0.3732 -2.5712  0.4530
 3796TIP3    H232880   3.197   3.857  13.613  0.6125  0.4710  1.8786
 3797TIP3   OH232881   3.670   6.053  15.506 -0.3506 -0.1403 -0.2198
 3797TIP3    H132882   3.600   6.089  15.451 -0.1106 -0.1132 -0.5017
 3797TIP3    H232883   3.639   6.070  15.596  0.5536  2.3619 -0.3347
 3798TIP3   OH232884   4.149   4.823  16.107  0.1682  0.6302 -0.0719
 3798TIP3    H132885   4.184   4.898  16.059  3.3873 -0.1146  1.0103
 3798TIP3    H232886   4.107   4.769  16.040  0.4514  1.9128 -1.3017
 3799TIP3   OH232887   4.401   6.813   2.104 -0.5560  0.0173 -0.1122
 3799TIP3    H132888   4.337   6.856   2.048  0.0614  1.3894  0.2261
 3799TIP3    H232889   4.354   6.794   2.185 -0.6376  0.6654 -0.0093
 3800TIP3   OH232890   1.652   5.345  16.478  0.2854  0.0298  0.0712
 3800TIP3    H132891   1.640   5.360  16.385 -1.5708  2.2073  0.6206
 3800TIP3    H232892   1.694   5.259  16.484 -0.0597 -0.3547 -2.7095
 3801TIP3   OH232893   0.431   6.004  15.271 -0.5067  0.4153 -0.0493
 3801TIP3    H132894   0.513   6.020  15.318  0.1174  0.9617 -1.3221
 3801TIP3    H232895   0.382   6.086  15.280 -0.3077  0.5853 -0.5136
 3802TIP3   OH232896   6.722   3.287  11.605  0.2473 -0.0240 -0.0275
 3802TIP3    H132897   6.746   3.343  11.531  1.3320 -1.0081 -0.4384
 3802TIP3    H232898   6.749   3.336  11.682 -0.9453  1.0386 -0.2671
 3803TIP3   OH232899   3.802   5.533  16.622  0.0915  0.0667  0.1755
 3803TIP3    H132900   3.853   5.534  16.541  0.7133 -0.7604  0.5513
 3803TIP3    H232901   3.836   5.606  16.673 -0.3803  0.6619 -0.3476
 3804TIP3   OH232902   6.267   6.253  15.913  0.2146  0.6639 -0.0015
 3804TIP3    H132903   6.277   6.346  15.933 -0.4104  0.5711  0.7358
 3804TIP3    H232904   6.261   6.210  15.998  2.2945 -0.2669 -0.2885
 3805TIP3   OH232905   2.788   6.085   4.034 -0.0856  0.4572 -0.2797
 3805TIP3    H132906   2.826   6.088   4.121  1.4635  1.2156 -0.9689
 3805TIP3    H232907   2.769   5.992   4.019  1.0370  0.1312  0.2699
 3806TIP3   OH232908   6.718   4.966  13.219  0.0396 -0.4232 -0.1599
 3806TIP3    H132909   6.793   5.022  13.197 -0.6373  0.1022 -1.1877
 3806TIP3    H232910   6.719   4.898  13.152 -1.6988  0.8556 -1.5488
 3807TIP3   OH232911   3.134   3.384   0.528 -0.2641  0.3299 -0.1009
 3807TIP3    H132912   3.077   3.309   0.511 -0.2518  0.2232  0.3144
 3807TIP3    H232913   3.140   3.430   0.444  0.1817 -0.4439 -0.5034
 3808TIP3   OH232914   3.944   0.277   1.096 -0.1056 -0.1945 -0.3981
 3808TIP3    H132915   3.873   0.226   1.057  0.6732 -2.1181  0.5737
 3808TIP3    H232916   3.952   0.354   1.041 -2.1312 -0.5453 -1.2406
 3809TIP3   OH232917   4.639   4.996  10.747  0.0217 -0.1561 -0.0790
 3809TIP3    H132918   4.620   5.087  10.770 -0.7736  0.1784 -1.9307
 3809TIP3    H232919   4.555   4.960  10.720  0.5815 -0.9977 -0.7322
 3810TIP3   OH232920   4.147   5.340  10.857  0.1780 -0.4763  0.3747
 3810TIP3    H132921   4.138   5.351  10.762 -1.5080  0.2669  0.6171
 3810TIP3    H232922   4.067   5.295  10.884  0.8157 -1.0147  1.4102
 3811TIP3   OH232923   2.731   5.950  13.784  0.3310  0.3933  0.1912
 3811TIP3    H132924   2.723   5.942  13.688 -0.7963  0.0353  0.3039
 3811TIP3    H232925   2.794   5.883  13.808  1.0754  0.8799 -0.3635
 3812TIP3   OH232926   4.375   5.484   3.984  0.0215  0.1336 -0.9105
 3812TIP3    H132927   4.413   5.458   4.068 -1.7261  1.3201  0.2652
 3812TIP3    H232928   4.422   5.563   3.959 -0.4684  0.6188 -0.3081
 3813TIP3   OH232929   2.074   0.846   6.528  0.1827 -0.3795  0.6596
 3813TIP3    H132930   2.110   0.760   6.505 -0.7253 -0.4372 -0.5727
 3813TIP3    H232931   2.098   0.858   6.620  2.1408 -1.0364  0.2686
 3814TIP3   OH232932   4.148   3.805   4.789 -0.1837 -0.6560  0.3940
 3814TIP3    H132933   4.210   3.782   4.858 -0.1112  0.3255  0.6622
 3814TIP3    H232934   4.201   3.803   4.709 -0.0208 -0.7523  0.5028
 3815TIP3   OH232935   2.279   6.620  14.289  0.2822  0.5845 -0.4226
 3815TIP3    H132936   2.193   6.602  14.326  0.1512  1.8543 -0.0726
 3815TIP3    H232937   2.338   6.563  14.339 -0.1999  0.5742  0.1491
 3816TIP3   OH232938   5.073   4.829  14.956 -0.0709  0.0056  0.3616
 3816TIP3    H132939   5.070   4.894  14.886  0.6547 -1.3363 -0.9520
 3816TIP3    H232940   5.150   4.854  15.008  0.0099  0.3998  0.0576
 3817TIP3   OH232941   2.649   3.945   4.339  0.0839  0.0615 -0.2408
 3817TIP3    H132942   2.715   3.879   4.317 -1.2985 -1.2853 -0.4351
 3817TIP3    H232943   2.566   3.899   4.332 -0.9037  1.7849 -0.1821
 3818TIP3   OH232944   6.726   5.473  12.634 -0.0313  0.2109 -0.0498
 3818TIP3    H132945   6.760   5.510  12.553 -3.0682  0.2794 -1.3573
 3818TIP3    H232946   6.743   5.379  12.627  1.6799  0.4741  0.2678
 3819TIP3   OH232947   5.536   4.455  15.543  0.0173  0.0777 -0.3959
 3819TIP3    H132948   5.491   4.448  15.628  1.8986 -0.5204  0.5789
 3819TIP3    H232949   5.477   4.412  15.481 -1.3656  0.4871  0.6006
 3820TIP3   OH232950   1.511   6.686   5.498  0.3684  0.6096 -0.0542
 3820TIP3    H132951   1.509   6.669   5.404 -0.6112  0.2379  0.0311
 3820TIP3    H232952   1.526   6.780   5.505  0.1169  0.6898 -0.5892
 3821TIP3   OH232953   1.827   2.385   4.864 -0.0141  0.0845 -0.3303
 3821TIP3    H132954   1.735   2.382   4.836  0.1102  1.5468 -0.9628
 3821TIP3    H232955   1.849   2.294   4.885 -1.2512 -0.4683 -1.3544
 3822TIP3   OH232956   0.945   2.291   5.801 -0.1404  0.9139 -0.6139
 3822TIP3    H132957   1.019   2.281   5.741  0.1024  1.0105 -0.3296
 3822TIP3    H232958   0.918   2.202   5.821  0.4683  0.8574 -0.0137
 3823TIP3   OH232959   4.223   0.294   0.463  0.5369  0.9887 -0.1707
 3823TIP3    H132960   4.303   0.291   0.410  1.5000  0.7581  1.2648
 3823TIP3    H232961   4.157   0.249   0.409  1.2106  1.6941 -1.6178
 3824TIP3   OH232962   4.728   2.712  13.740  0.7175  0.1071 -0.2414
 3824TIP3    H132963   4.726   2.617  13.743  1.3717  0.0997  0.0586
 3824TIP3    H232964   4.654   2.739  13.795 -0.2653 -0.2276 -1.3746
 3825TIP3   OH232965   2.161   3.651  13.928  0.3067 -0.6298  0.0044
 3825TIP3    H132966   2.243   3.614  13.963  0.4011  0.3575  0.8599
 3825TIP3    H232967   2.110   3.574  13.902  1.3772 -1.2727 -0.2536
 3826TIP3   OH232968   6.446   4.378   4.417 -0.1644 -0.0010  0.4434
 3826TIP3    H132969   6.380   4.409   4.479 -1.3049 -0.6404 -0.4331
 3826TIP3    H232970   6.398   4.366   4.335  1.3738  1.0491 -0.6302
 3827TIP3   OH232971   2.573   6.121  14.552  0.2603 -0.0839  0.8156
 3827TIP3    H132972   2.480   6.144  14.545  0.0396 -0.8503  1.2251
 3827TIP3    H232973   2.589   6.112  14.645  0.8932  0.6219  0.7774
 3828TIP3   OH232974   1.583   3.998   7.148 -0.2417 -0.2297  0.0068
 3828TIP3    H132975   1.615   3.971   7.062  0.8933  0.5862  0.1626
 3828TIP3    H232976   1.645   3.960   7.210 -1.6229 -1.6571  0.5383
 3829TIP3   OH232977   2.647   5.574   6.465  0.0367 -0.4030 -0.5356
 3829TIP3    H132978   2.583   5.608   6.527  0.3960  1.5370 -1.1941
 3829TIP3    H232979   2.682   5.495   6.507 -0.9808 -0.0824  0.9386
 3830TIP3   OH232980   5.097   0.599  15.466  0.8833 -0.0797 -0.1166
 3830TIP3    H132981   5.176   0.605  15.520  0.6981  1.5299  0.0021
 3830TIP3    H232982   5.030   0.646  15.517  0.6607  1.3135 -1.6540
 3831TIP3   OH232983   3.400   4.473   1.431 -0.5914  0.6050  0.1023
 3831TIP3    H132984   3.399   4.512   1.344  0.6708  0.5871  0.0730
 3831TIP3    H232985   3.424   4.545   1.490 -2.6438  0.9174  0.6067
 3832TIP3   OH232986   2.323   5.825  11.849 -0.0023  0.3903 -0.0311
 3832TIP3    H132987   2.337   5.866  11.764 -0.6320  0.3565 -0.1566
 3832TIP3    H232988   2.292   5.736  11.828  1.3431 -0.1452  0.2375
 3833TIP3   OH232989   3.587   1.402   1.227 -0.2896  0.2023 -0.3445
 3833TIP3    H132990   3.511   1.409   1.285 -0.7187 -0.5761 -0.8153
 3833TIP3    H232991   3.574   1.320   1.180  0.4300  0.4745 -1.0214
 3834TIP3   OH232992   6.473   3.032   6.113 -0.0486  0.2168  0.5358
 3834TIP3    H132993   6.519   3.039   6.197 -1.9213 -1.9914  1.8182
 3834TIP3    H232994   6.410   2.961   6.127 -1.6982  1.1031 -2.1517
 3835TIP3   OH232995   0.156   5.582  17.050 -0.4352 -0.0093 -0.1871
 3835TIP3    H132996   0.114   5.603  16.967 -0.9722 -2.1847 -0.4945
 3835TIP3    H232997   0.219   5.653  17.064 -1.8430  1.5010 -1.3655
 3836TIP3   OH232998   1.243   0.525   1.267 -0.3944 -0.0124 -0.0910
 3836TIP3    H132999   1.331   0.527   1.305  0.8146 -0.7171 -2.7842
 3836TIP3    H233000   1.224   0.432   1.256 -0.3238  0.1829 -2.0393
 3837TIP3   OH233001   5.423   4.961  16.103  0.1135 -0.9100  0.2304
 3837TIP3    H133002   5.376   5.043  16.085 -1.2499 -1.7098  0.0377
 3837TIP3    H233003   5.358   4.893  16.085  1.6800 -2.0868 -1.0152
 3838TIP3   OH233004   1.434   1.937   2.685  0.0402  0.2295  0.1484
 3838TIP3    H133005   1.505   1.938   2.748  0.4272 -0.5254 -0.2778
 3838TIP3    H233006   1.477   1.938   2.600 -0.4681  0.4891 -0.1120
 3839TIP3   OH233007   1.180   6.409   1.923  0.0851 -0.2169  0.2350
 3839TIP3    H133008   1.109   6.383   1.864 -0.2466  0.8737  0.1348
 3839TIP3    H233009   1.246   6.448   1.866 -0.3708  1.1264  0.5984
 3840TIP3   OH233010   0.920   0.312   0.216 -0.1615  0.1588 -0.1450
 3840TIP3    H133011   0.939   0.240   0.156  1.5745  0.2830  0.2145
 3840TIP3    H233012   0.999   0.320   0.269 -1.2240  0.8352  1.3644
 3841TIP3   OH233013   3.823   0.294  15.079  0.3552 -0.0680 -0.2339
 3841TIP3    H133014   3.729   0.298  15.061  0.3572  2.0331  0.0856
 3841TIP3    H233015   3.833   0.219  15.137 -1.4625  1.0430  1.6091
 3842TIP3   OH233016   3.057   4.619   1.641 -0.6101  0.0794 -0.0657
 3842TIP3    H133017   3.069   4.688   1.576 -0.9461 -0.0518 -0.2687
 3842TIP3    H233018   3.098   4.542   1.601  1.1292  0.5173  0.8011
 3843TIP3   OH233019   3.739   4.640  12.155 -0.5467  0.4008 -0.1626
 3843TIP3    H133020   3.678   4.566  12.167  1.3113 -0.6778  3.6500
 3843TIP3    H233021   3.725   4.694  12.233  1.9552  1.1755 -0.2260
 3844TIP3   OH233022   0.465   6.140   5.827  0.3333  0.1775 -0.0397
 3844TIP3    H133023   0.457   6.090   5.909  0.8754  0.0268 -0.0743
 3844TIP3    H233024   0.435   6.228   5.850  1.1303  0.3150  0.5064
 3845TIP3   OH233025   1.286   5.636   4.493 -0.1066  0.0919 -0.1452
 3845TIP3    H133026   1.310   5.685   4.414  0.7653 -1.0524 -0.6164
 3845TIP3    H233027   1.195   5.611   4.479 -0.1202  0.3555 -0.5439
 3846TIP3   OH233028   4.563   6.459   5.058  0.1614 -0.3968 -0.1628
 3846TIP3    H133029   4.652   6.441   5.026  0.0575  0.3407 -0.9035
 3846TIP3    H233030   4.576   6.494   5.146  0.6302  0.0541 -0.4091
 3847TIP3   OH233031   4.006   1.517  17.214 -0.0898 -0.1702  0.7131
 3847TIP3    H133032   4.050   1.482  17.136 -1.8904 -2.0240  0.4973
 3847TIP3    H233033   4.021   1.611  17.210  0.6489 -0.3562 -1.3539
 3848TIP3   OH233034   0.410   0.134  16.796 -0.5175 -0.2276  0.4540
 3848TIP3    H133035   0.466   0.115  16.720  1.2111  1.0379  1.3912
 3848TIP3    H233036   0.323   0.103  16.769  0.3693 -1.1623 -1.4700
 3849TIP3   OH233037   1.456   6.739   2.491 -0.7862  0.6323  0.1200
 3849TIP3    H133038   1.371   6.781   2.478 -0.0544  1.2685 -2.9909
 3849TIP3    H233039   1.464   6.678   2.418  1.7009  1.0399  0.0023
 3850TIP3   OH233040   6.794   0.312   3.482  0.6339  0.4510  0.2283
 3850TIP3    H133041   6.823   0.221   3.492  0.1612  0.1794 -0.8282
 3850TIP3    H233042   6.758   0.335   3.568  1.9064  0.0589  0.8781
 3851TIP3   OH233043   1.135   1.378   0.618 -0.4712 -1.0097  0.1392
 3851TIP3    H133044   1.101   1.373   0.529  0.0008 -1.4085 -0.0191
 3851TIP3    H233045   1.228   1.395   0.607 -0.1961 -2.1969  0.5305
 3852TIP3   OH233046   6.218   4.758  17.040  0.9076 -0.4609 -0.2445
 3852TIP3    H133047   6.156   4.828  17.059  1.2011  0.2240 -1.7505
 3852TIP3    H233048   6.173   4.704  16.975  2.0041  0.2144 -1.5759
 3853TIP3   OH233049   2.582   1.487  15.321 -0.5376  0.1598 -0.2404
 3853TIP3    H133050   2.635   1.423  15.273 -0.8148 -0.4606  0.2556
 3853TIP3    H233051   2.645   1.551  15.354 -0.1531 -0.3120 -0.0545
 3854TIP3   OH233052   0.620   1.859   4.440  0.2526 -0.0664 -0.0547
 3854TIP3    H133053   0.567   1.807   4.380 -0.4400  3.2334 -2.4291
 3854TIP3    H233054   0.704   1.871   4.395  0.8025 -0.0443  0.9543
 3855TIP3   OH233055   3.386   3.576   5.995 -0.8907 -0.1191  0.2070
 3855TIP3    H133056   3.389   3.520   6.072 -2.2117 -1.0952 -0.4346
 3855TIP3    H233057   3.378   3.516   5.921  0.0618  0.8177 -0.6786
 3856TIP3   OH233058   0.212   2.133   4.070 -0.1682  0.5486 -0.0296
 3856TIP3    H133059   0.137   2.136   4.010  1.0699  2.2434 -1.5715
 3856TIP3    H233060   0.286   2.108   4.015  0.7790  0.9216  1.0485
 3857TIP3   OH233061   2.909   3.939   2.975 -0.1748 -0.1016  0.8823
 3857TIP3    H133062   2.850   3.997   3.024  0.6194  1.4148  0.0757
 3857TIP3    H233063   2.996   3.962   3.006  0.2174 -0.1757 -0.1429
 3858TIP3   OH233064   2.035   3.058   3.278 -0.4712 -0.2106 -0.0694
 3858TIP3    H133065   2.043   3.144   3.237  0.0708  0.3910  1.2867
 3858TIP3    H233066   2.077   2.998   3.216  0.2333  0.6721 -0.4487
 3859TIP3   OH233067   1.645   2.329  10.886  0.6081 -0.1697 -0.6510
 3859TIP3    H133068   1.732   2.289  10.884 -0.2025 -1.9549 -0.6208
 3859TIP3    H233069   1.658   2.415  10.845  2.5597 -0.0428  0.1641
 3860TIP3   OH233070   0.799   3.946   1.122 -0.3189  0.4669 -0.6840
 3860TIP3    H133071   0.796   3.853   1.145 -1.2506  0.6303 -0.0930
 3860TIP3    H233072   0.890   3.962   1.095  0.1315 -0.3559  0.3232
 3861TIP3   OH233073   4.621   0.539  12.693  0.4649  0.0721 -0.7035
 3861TIP3    H133074   4.701   0.486  12.694  3.3700  4.1291 -0.7915
 3861TIP3    H233075   4.628   0.590  12.612 -2.7992 -0.2270 -1.2258
 3862TIP3   OH233076   6.020   3.471  11.493  0.3792 -0.6248 -0.1720
 3862TIP3    H133077   6.105   3.425  11.495  0.1045 -1.1484 -0.3040
 3862TIP3    H233078   5.993   3.466  11.401  1.3783  1.7321 -0.6279
 3863TIP3   OH233079   1.016   2.250   2.513 -0.1146  0.3388 -0.0481
 3863TIP3    H133080   1.030   2.186   2.443 -1.0938  0.6895 -0.5670
 3863TIP3    H233081   1.089   2.234   2.574 -0.7201 -1.7136  0.1900
 3864TIP3   OH233082   0.626   4.386   4.501  0.6098 -0.2542 -0.4015
 3864TIP3    H133083   0.593   4.439   4.428 -0.5521 -0.0835  0.2367
 3864TIP3    H233084   0.683   4.321   4.459  1.7646  1.2654 -1.2266
 3865TIP3   OH233085   1.598   6.487   3.769  0.3013  0.0356  0.3695
 3865TIP3    H133086   1.664   6.552   3.747  1.2698 -1.0501 -0.0022
 3865TIP3    H233087   1.629   6.445   3.849 -0.2135 -0.1100  0.4999
 3866TIP3   OH233088   2.351   1.062  16.491 -0.0659 -0.0117  0.3853
 3866TIP3    H133089   2.360   1.092  16.581  0.9563  1.1529 -0.0824
 3866TIP3    H233090   2.440   1.038  16.464 -0.0507  1.3110 -0.8485
 3867TIP3   OH233091   2.107   0.542   2.321 -0.4656  0.2939  0.4438
 3867TIP3    H133092   2.053   0.586   2.255  1.0365 -0.5586 -1.3751
 3867TIP3    H233093   2.196   0.545   2.286  0.2897 -0.6236  2.2022
 3868TIP3   OH233094   3.229   5.771  15.703  0.3750 -0.4000  0.0916
 3868TIP3    H133095   3.225   5.786  15.609  1.7615 -0.9973 -0.0620
 3868TIP3    H233096   3.221   5.676  15.713  0.0225 -0.3199  0.5874
 3869TIP3   OH233097   4.003   0.945  15.815 -0.1401  0.2939  0.1374
 3869TIP3    H133098   3.945   0.871  15.831  0.1085  0.2877  1.0523
 3869TIP3    H233099   4.004   0.993  15.898  1.2822  0.1966  0.1923
 3870TIP3   OH233100   4.692   1.235  15.500 -0.0029  0.0797  0.4256
 3870TIP3    H133101   4.706   1.265  15.590 -1.0275  1.1681  0.2400
 3870TIP3    H233102   4.731   1.303  15.445  0.0866 -0.2808  0.0380
 3871TIP3   OH233103   3.283   3.490   4.750  0.0534  0.1020 -0.2403
 3871TIP3    H133104   3.366   3.444   4.733  0.4349  1.4886 -2.3472
 3871TIP3    H233105   3.259   3.464   4.839  1.7913 -1.7903 -0.2791
 3872TIP3   OH233106   0.997   1.705   5.025 -0.2708  0.3357  0.0150
 3872TIP3    H133107   1.060   1.761   4.981 -0.3590  0.9867  0.7137
 3872TIP3    H233108   1.034   1.617   5.019  1.2153  0.8648  1.3560
 3873TIP3   OH233109   2.290   5.983   0.987 -0.0711  0.4481 -0.7360
 3873TIP3    H133110   2.243   6.030   1.056 -0.9171 -1.2475 -0.1123
 3873TIP3    H233111   2.223   5.958   0.924  0.3334 -0.1019 -0.9549
 3874TIP3   OH233112   0.356   6.279  15.816  0.0550  0.0725 -0.8024
 3874TIP3    H133113   0.449   6.260  15.808 -0.4863 -2.5360 -1.3544
 3874TIP3    H233114   0.320   6.202  15.860 -1.8234  1.0916 -0.5113
 3875TIP3   OH233115   4.429   4.774   3.617 -0.6005  0.1602 -0.3515
 3875TIP3    H133116   4.425   4.713   3.544 -0.3815  0.4879 -0.6341
 3875TIP3    H233117   4.503   4.744   3.669 -1.6917 -1.0259  0.5833
 3876TIP3   OH233118   6.072   0.618   4.614 -0.2351 -0.3352 -0.8746
 3876TIP3    H133119   6.138   0.670   4.659  2.4769 -3.1499 -1.4031
 3876TIP3    H233120   6.059   0.542   4.670 -2.5554 -0.1437 -1.1184
 3877TIP3   OH233121   2.496   6.600  12.267 -0.3573  0.1641  0.2329
 3877TIP3    H133122   2.546   6.523  12.294  0.3815  0.0459 -1.3685
 3877TIP3    H233123   2.412   6.564  12.237  0.5070 -0.2289 -1.8649
 3878TIP3   OH233124   2.557   4.308  12.800  0.3070  0.0625  0.0380
 3878TIP3    H133125   2.482   4.367  12.805  3.2871  3.9671  0.9821
 3878TIP3    H233126   2.555   4.261  12.883 -1.7766 -0.8598 -0.4857
 3879TIP3   OH233127   2.960   1.776   4.042  0.2331  0.4528  0.1282
 3879TIP3    H133128   2.955   1.791   4.136 -0.3116  1.7687 -0.0937
 3879TIP3    H233129   2.913   1.850   4.004  1.1589  0.3668 -1.2033
 3880TIP3   OH233130   5.297   6.707   1.136 -0.0929  0.2212  0.2456
 3880TIP3    H133131   5.334   6.725   1.222 -0.2900 -2.1949  0.8868
 3880TIP3    H233132   5.212   6.667   1.155  0.1264 -0.8933 -1.0423
 3881TIP3   OH233133   3.050   1.377  16.768 -0.3509  0.2924 -0.3886
 3881TIP3    H133134   2.956   1.356  16.774 -0.7001  2.1623  1.1540
 3881TIP3    H233135   3.091   1.294  16.743 -2.3280 -0.7701 -0.2277
 3882TIP3   OH233136   0.542   1.593  15.286  0.1833  0.4300 -0.1098
 3882TIP3    H133137   0.458   1.632  15.311 -0.2603 -0.0451 -0.8101
 3882TIP3    H233138   0.543   1.599  15.190  0.9477  0.4215 -0.1049
 3883TIP3   OH233139   1.847   3.938  14.978 -0.5818  0.3464 -0.6432
 3883TIP3    H133140   1.927   3.898  15.012 -0.5265  0.9648 -0.0264
 3883TIP3    H233141   1.868   4.031  14.971 -1.2736  0.5268 -0.3830
 3884TIP3   OH233142   5.445   5.371  13.795  0.3013 -0.3096 -0.5904
 3884TIP3    H133143   5.388   5.447  13.807 -0.2765 -0.8354  0.0569
 3884TIP3    H233144   5.385   5.298  13.781  0.5590 -1.6583  4.2152
 3885TIP3   OH233145   1.103   5.575   2.829  0.1274 -0.4230 -0.6600
 3885TIP3    H133146   1.145   5.661   2.824  0.4864 -0.4334  1.5352
 3885TIP3    H233147   1.012   5.593   2.853 -0.1595 -0.5841 -1.6264
 3886TIP3   OH233148   0.572   0.339   3.755  0.6486 -0.4940 -0.1218
 3886TIP3    H133149   0.500   0.275   3.754  0.6842 -0.5717  1.3479
 3886TIP3    H233150   0.603   0.342   3.665 -1.2721 -0.3896 -0.7985
 3887TIP3   OH233151   2.784   0.620  14.194  0.4765  0.4647  0.3850
 3887TIP3    H133152   2.832   0.547  14.233 -0.8742 -0.2642  0.7032
 3887TIP3    H233153   2.748   0.667  14.269 -0.3999  0.2514  0.0962
 3888TIP3   OH233154   1.787   1.387  14.093 -0.4725  0.1444  0.2124
 3888TIP3    H133155   1.784   1.296  14.062  1.4396  0.1039  0.1290
 3888TIP3    H233156   1.712   1.394  14.153 -1.0723 -1.2691 -0.3527
 3889TIP3   OH233157   6.702   0.398   4.169  0.2732 -0.5030 -0.4636
 3889TIP3    H133158   6.704   0.425   4.077 -2.0824  0.2451 -0.3324
 3889TIP3    H233159   6.770   0.331   4.175  3.2044  2.2223 -1.8175
 3890TIP3   OH233160   4.722   2.250   1.891 -0.1109 -0.0891  0.0101
 3890TIP3    H133161   4.647   2.302   1.920  0.9926  1.6928 -0.2273
 3890TIP3    H233162   4.768   2.228   1.972 -0.4331 -0.4776  0.0896
 3891TIP3   OH233163   4.608   5.763   0.015 -0.0869  0.1238 -0.2539
 3891TIP3    H133164   4.697   5.769  -0.020  0.0495 -0.7247 -0.0842
 3891TIP3    H233165   4.555   5.733  -0.059 -0.6067  2.5305 -0.8881
 3892TIP3   OH233166   5.332   4.583  14.289  0.6212  0.9181 -0.1572
 3892TIP3    H133167   5.329   4.544  14.202 -2.4587 -0.8470  0.6430
 3892TIP3    H233168   5.274   4.659  14.283 -0.5044  0.1433  0.5899
 3893TIP3   OH233169   5.876   4.374   5.228  0.1290  0.1991 -0.2632
 3893TIP3    H133170   5.926   4.456   5.232  1.7590 -0.8324  1.5251
 3893TIP3    H233171   5.812   4.381   5.298  0.2738 -0.0641 -0.1035
 3894TIP3   OH233172   3.180   0.755  15.496  0.0871 -0.4044 -0.0049
 3894TIP3    H133173   3.224   0.789  15.573 -0.2675  0.1836 -0.0566
 3894TIP3    H233174   3.250   0.716  15.443  0.4144 -0.2747  0.3321
 3895TIP3   OH233175   2.860   5.567  12.366 -0.2295 -0.1996 -0.1683
 3895TIP3    H133176   2.943   5.614  12.376  0.0978 -0.9133  0.6371
 3895TIP3    H233177   2.840   5.572  12.273  0.3572  0.5935 -0.2523
 3896TIP3   OH233178   1.969   2.330   4.117  0.0242 -0.8998  0.0205
 3896TIP3    H133179   2.016   2.399   4.070 -1.0082  0.6557  1.2188
 3896TIP3    H233180   1.986   2.251   4.067  0.9621  0.2867 -1.5726
 3897TIP3   OH233181   0.881   5.537   5.800 -0.3366 -0.4272 -0.4519
 3897TIP3    H133182   0.811   5.471   5.797  0.0558 -0.8529 -0.3708
 3897TIP3    H233183   0.961   5.485   5.802 -0.0111  0.0640 -0.8096
 3898TIP3   OH233184   2.011   1.739  10.901 -0.1866 -0.6017 -0.2345
 3898TIP3    H133185   1.975   1.777  10.981  1.4168 -2.1687  1.3024
 3898TIP3    H233186   2.086   1.794  10.880  1.1708 -1.8825  1.0777
 3899TIP3   OH233187   5.785   6.181  11.746  0.2418 -0.0214 -0.5399
 3899TIP3    H133188   5.784   6.097  11.700  0.4583 -0.1325 -0.3420
 3899TIP3    H233189   5.871   6.218  11.725 -0.3282  0.7121 -1.6477
 3900TIP3   OH233190   3.516   3.330   2.445 -0.1489  0.0065  0.5755
 3900TIP3    H133191   3.470   3.260   2.490  0.1318 -2.7051 -3.1517
 3900TIP3    H233192   3.578   3.364   2.510 -0.0477 -3.4068  2.3867
 3901TIP3   OH233193   4.985   4.419  11.983 -0.1869  0.1490 -0.4137
 3901TIP3    H133194   4.890   4.429  11.986 -0.2145 -0.0937 -0.4452
 3901TIP3    H233195   5.018   4.508  11.974 -0.3704  0.3076  0.5127
 3902TIP3   OH233196   5.669   3.129   3.611 -0.2288 -0.1262  0.4496
 3902TIP3    H133197   5.628   3.057   3.562 -3.6947  1.6089  0.6188
 3902TIP3    H233198   5.602   3.156   3.674  0.3351  4.2091 -0.6406
 3903TIP3   OH233199   0.179   6.091   5.012  0.3466 -0.1421  0.0490
 3903TIP3    H133200   0.192   6.039   5.092 -1.0663 -1.4855 -0.5586
 3903TIP3    H233201   0.240   6.163   5.020  0.2806 -0.3019  2.3250
 3904TIP3   OH233202   5.699   2.334   2.223  0.0954 -0.1086  0.1545
 3904TIP3    H133203   5.681   2.308   2.313  0.7965  1.1538  0.6781
 3904TIP3    H233204   5.617   2.320   2.177 -0.3665 -0.4568  1.0676
 3905TIP3   OH233205   4.737   0.979   0.353  0.1271 -0.0769  0.3509
 3905TIP3    H133206   4.726   1.045   0.284  0.8118  1.2113  1.4567
 3905TIP3    H233207   4.822   1.000   0.393 -0.3162 -0.7411  1.6619
 3906TIP3   OH233208   6.422   5.870  16.874 -0.9242  0.4610 -0.0537
 3906TIP3    H133209   6.442   5.803  16.809  0.1181  1.3220 -0.6288
 3906TIP3    H233210   6.377   5.822  16.944  1.3595 -1.1574  0.3457
 3907TIP3   OH233211   3.313   1.242   4.390  0.4658  0.5034  0.5105
 3907TIP3    H133212   3.242   1.305   4.377  0.5723  0.7720  1.2204
 3907TIP3    H233213   3.378   1.289   4.443 -0.2184 -0.7312  2.5284
 3908TIP3   OH233214   0.030   4.865  11.666  0.0565  0.0175 -0.2833
 3908TIP3    H133215   0.046   4.824  11.581  0.1654 -0.8601  0.1512
 3908TIP3    H233216  -0.012   4.948  11.646 -1.5035 -0.9569 -1.1297
 3909TIP3   OH233217   2.999   6.642  16.633 -0.2923 -0.1935  0.4015
 3909TIP3    H133218   2.916   6.595  16.632 -0.9790  0.9966 -0.2393
 3909TIP3    H233219   3.000   6.692  16.551  0.9698 -0.0439  0.4844
 3910TIP3   OH233220   4.082   5.117  14.059 -0.5664 -0.5279 -0.1058
 3910TIP3    H133221   4.033   5.191  14.095  2.3004  0.9954  0.8364
 3910TIP3    H233222   4.064   5.045  14.119  1.2168  1.0134  2.3889
 3911TIP3   OH233223   4.858   5.417  11.351  0.0585  0.2551 -0.3180
 3911TIP3    H133224   4.926   5.483  11.364  0.4178 -0.1147 -0.2617
 3911TIP3    H233225   4.839   5.420  11.257 -0.1762  0.6756 -0.2579
 3912TIP3   OH233226   3.676   2.035   1.053  0.2323 -0.2656 -0.2368
 3912TIP3    H133227   3.600   2.079   1.091  1.1991  0.5548  0.7844
 3912TIP3    H233228   3.649   1.944   1.044 -0.1975 -0.3847  2.0114
 3913TIP3   OH233229   1.701   2.964  15.672 -0.0828  0.7121  0.0279
 3913TIP3    H133230   1.685   3.043  15.620  0.1844  1.3652  0.9151
 3913TIP3    H233231   1.657   2.894  15.624 -0.5045  1.4415 -0.6609
 3914TIP3   OH233232   3.274   1.959  13.977 -0.6107  0.5250 -0.0235
 3914TIP3    H133233   3.228   1.887  14.019 -0.0170 -0.4261 -0.9885
 3914TIP3    H233234   3.218   2.036  13.993 -2.3213 -0.5211 -0.7925
 3915TIP3   OH233235   3.190   4.232  15.829 -0.6635  0.7697 -0.0060
 3915TIP3    H133236   3.165   4.311  15.781 -1.4079  1.0323  0.7985
 3915TIP3    H233237   3.113   4.211  15.882  0.3076  0.7253  1.4046
 3916TIP3   OH233238   5.192   1.585  16.357  0.1968 -0.3799  0.0238
 3916TIP3    H133239   5.223   1.658  16.410 -0.9816  0.9697 -1.0994
 3916TIP3    H233240   5.153   1.626  16.280  1.0883 -2.2651 -1.4770
 3917TIP3   OH233241   5.881   5.753   4.433 -0.1114 -0.3135  0.5501
 3917TIP3    H133242   5.925   5.837   4.433  1.0511 -0.9066  0.9054
 3917TIP3    H233243   5.858   5.738   4.342 -1.0753  0.7653  0.6093
 3918TIP3   OH233244   1.202   3.841  14.338  0.0048  0.4761 -0.1421
 3918TIP3    H133245   1.293   3.810  14.337  0.4790  1.8506 -0.5704
 3918TIP3    H233246   1.153   3.772  14.293  0.7351 -0.5613  0.6271
 3919TIP3   OH233247   2.605   2.645   1.207  0.4232 -0.7627  0.6757
 3919TIP3    H133248   2.671   2.694   1.159 -1.0363  0.4706 -0.1243
 3919TIP3    H233249   2.592   2.566   1.156  0.1389 -0.2609 -0.0402
 3920TIP3   OH233250   5.924   2.051  15.866 -0.1108 -1.0822 -0.2311
 3920TIP3    H133251   5.929   2.056  15.770  1.3700  1.1942 -0.0686
 3920TIP3    H233252   5.847   2.101  15.889  0.9901  0.5959 -0.1029
 3921TIP3   OH233253   5.386   3.058  11.593 -0.0597 -0.2869 -0.1917
 3921TIP3    H133254   5.309   3.112  11.578 -0.4404 -1.2644 -1.9182
 3921TIP3    H233255   5.454   3.097  11.539  0.3673 -0.0570  0.5024
 3922TIP3   OH233256   4.617   4.587   2.636 -0.0831 -0.1926 -0.1224
 3922TIP3    H133257   4.643   4.497   2.656  1.5206  0.4878  0.9744
 3922TIP3    H233258   4.622   4.592   2.540 -0.0789 -1.2358 -0.1855
 3923TIP3   OH233259   1.949   6.811   3.170  0.8394  0.5675 -0.1493
 3923TIP3    H133260   2.041   6.825   3.191  1.1776  0.3517 -1.4565
 3923TIP3    H233261   1.944   6.822   3.075 -0.2676 -0.6046 -0.2396
 3924TIP3   OH233262   2.012   3.761   4.666  0.7255  0.0768 -0.8659
 3924TIP3    H133263   1.920   3.768   4.642  0.7773  1.2600 -0.7169
 3924TIP3    H233264   2.011   3.739   4.759  0.5747 -1.6083 -1.2499
 3925TIP3   OH233265   4.242   0.836  14.779 -0.0893 -0.0240 -0.1404
 3925TIP3    H133266   4.220   0.928  14.763 -1.0589 -0.3263 -0.5497
 3925TIP3    H233267   4.296   0.812  14.703 -1.4464 -0.3400 -1.0184
 3926TIP3   OH233268   2.653   0.060  13.265  0.2355  0.5225 -0.4992
 3926TIP3    H133269   2.677   0.147  13.299 -0.3692  0.7220 -0.5666
 3926TIP3    H233270   2.585   0.029  13.326  1.5672 -0.5832  0.4456
 3927TIP3   OH233271   0.881   0.512  15.507  0.5771  0.5462  0.3458
 3927TIP3    H133272   0.842   0.563  15.436 -1.9705 -0.4487  0.9566
 3927TIP3    H233273   0.841   0.547  15.586  2.3626  0.7226  1.2029
 3928TIP3   OH233274   4.516   6.155  11.269 -0.2433  0.0852 -0.5028
 3928TIP3    H133275   4.439   6.203  11.299 -1.4531 -1.9957 -0.2015
 3928TIP3    H233276   4.588   6.186  11.324 -1.6439 -0.7534  1.8430
 3929TIP3   OH233277   6.730   5.554  15.265 -0.3955 -0.1427  0.1016
 3929TIP3    H133278   6.771   5.639  15.249  0.0751 -0.1508  1.2181
 3929TIP3    H233279   6.778   5.517  15.339 -1.5888 -0.7198  0.6058
 3930TIP3   OH233280   5.556   5.090  14.486 -0.2584  0.0962  0.3207
 3930TIP3    H133281   5.642   5.050  14.500 -0.0334  0.4412 -0.0719
 3930TIP3    H233282   5.552   5.106  14.392 -0.2880  1.1256  0.4910
 3931TIP3   OH233283   5.626   3.445  14.574 -0.1095 -0.2700 -0.2680
 3931TIP3    H133284   5.665   3.358  14.584  1.7805  0.2202 -2.9016
 3931TIP3    H233285   5.684   3.503  14.623 -0.6557 -0.2779  0.4067
 3932TIP3   OH233286   0.421   2.214  14.614 -1.0843  0.1149 -0.0685
 3932TIP3    H133287   0.396   2.149  14.548 -1.1381  0.7899 -0.7244
 3932TIP3    H233288   0.453   2.162  14.688 -0.6569 -0.6394 -0.7746
 3933TIP3   OH233289   4.819   6.601   5.164 -0.2378  0.0847  0.2212
 3933TIP3    H133290   4.913   6.602   5.149 -0.1975 -0.8708  0.3925
 3933TIP3    H233291   4.803   6.674   5.223  0.2663  0.8268 -0.5524
 3934TIP3   OH233292   1.805   0.411   1.866  0.6264  0.7300  0.4858
 3934TIP3    H133293   1.881   0.353   1.860  0.0066 -0.7046  4.4681
 3934TIP3    H233294   1.814   0.454   1.951 -2.5264  1.1810  0.6652
 3935TIP3   OH233295   0.461   5.353   4.993 -0.8501 -0.8775 -0.2102
 3935TIP3    H133296   0.371   5.336   5.019 -1.1862 -0.1499 -0.8674
 3935TIP3    H233297   0.455   5.377   4.900  0.1814 -2.2532 -0.6507
 3936TIP3   OH233298   2.219   2.635  13.014  1.1227  0.0251  0.1467
 3936TIP3    H133299   2.209   2.652  12.920 -0.3974  2.6443  0.7397
 3936TIP3    H233300   2.292   2.690  13.041  0.9026  0.0639  0.6796
 3937TIP3   OH233301   4.278   5.131   2.304  0.8003  0.5225  0.0323
 3937TIP3    H133302   4.304   5.092   2.388  0.8828  2.3926  0.9063
 3937TIP3    H233303   4.196   5.178   2.324 -0.1275 -0.4792 -1.3511
 3938TIP3   OH233304   0.708   2.586  11.533 -0.1026  0.0123  0.3027
 3938TIP3    H133305   0.744   2.533  11.461  0.6791  0.3490  0.4360
 3938TIP3    H233306   0.710   2.676  11.500  0.4703  0.1972  0.8215
 3939TIP3   OH233307   5.468   3.732  17.269 -0.0270 -0.4262 -0.0790
 3939TIP3    H133308   5.532   3.686  17.215  0.0959  0.5679 -0.7904
 3939TIP3    H233309   5.431   3.799  17.211 -1.0375 -0.3748  0.6008
 3940TIP3   OH233310   4.597   4.367  17.246 -0.1901  0.3899  0.0180
 3940TIP3    H133311   4.601   4.425  17.169  0.0227 -0.0259 -0.2845
 3940TIP3    H233312   4.613   4.280  17.211 -0.6339  0.1306  0.4572
 3941TIP3   OH233313   0.665   3.160   2.586  0.3857 -0.2173  0.6539
 3941TIP3    H133314   0.600   3.185   2.521  0.1658 -1.4016  0.4076
 3941TIP3    H233315   0.673   3.237   2.643  0.7715  0.9041 -0.9052
 3942TIP3   OH233316   0.048   4.488   3.438  0.3857  0.3230 -0.3686
 3942TIP3    H133317  -0.012   4.477   3.512  0.5228  2.0191  0.0093
 3942TIP3    H233318   0.031   4.577   3.406  0.5618 -0.2748 -2.1701
 3943TIP3   OH233319   2.277   2.093   0.795 -0.1045 -0.1311  0.3366
 3943TIP3    H133320   2.361   2.070   0.834 -0.6356 -1.8251  0.5425
 3943TIP3    H233321   2.276   2.189   0.795  2.7923 -0.0435 -1.8194
 3944TIP3   OH233322   6.628   4.687   3.924 -0.7136  0.2281  0.2308
 3944TIP3    H133323   6.633   4.618   3.990 -0.1051  0.4988  0.4761
 3944TIP3    H233324   6.591   4.762   3.970 -0.6794  0.2916  0.1564
 3945TIP3   OH233325   3.872   0.228   5.768 -0.0189  0.1265 -0.2947
 3945TIP3    H133326   3.895   0.207   5.859  0.2832  0.2670 -0.3373
 3945TIP3    H233327   3.878   0.324   5.764 -1.1378  0.2034 -0.1671
 3946TIP3   OH233328   5.759   5.094   5.255 -0.4847 -0.1484 -0.8398
 3946TIP3    H133329   5.670   5.115   5.227 -0.9300 -2.6646 -1.4219
 3946TIP3    H233330   5.799   5.053   5.178  1.3923  1.5172 -0.7807
 3947TIP3   OH233331   2.747   4.853  13.181  0.0319  0.3408 -0.1782
 3947TIP3    H133332   2.826   4.806  13.207  0.3890  0.5545 -0.8640
 3947TIP3    H233333   2.759   4.872  13.088 -0.2124  1.5694  0.0206
 3948TIP3   OH233334   4.174   6.363   3.291 -0.3044 -0.4853  0.6216
 3948TIP3    H133335   4.191   6.274   3.321 -0.0516 -0.4937  0.4589
 3948TIP3    H233336   4.254   6.388   3.244 -0.6669 -0.4429  0.0180
 3949TIP3   OH233337   0.493   1.769  12.598 -0.1333  0.3497  0.0038
 3949TIP3    H133338   0.404   1.759  12.632  0.0384  0.1238  0.3947
 3949TIP3    H233339   0.526   1.849  12.638 -0.3737  0.7642 -0.6186
 3950TIP3   OH233340   1.855   1.136   6.662  0.0441  0.1190 -0.0819
 3950TIP3    H133341   1.903   1.151   6.581 -0.6218  0.4903 -0.4118
 3950TIP3    H233342   1.861   1.219   6.709  2.3222 -0.7529  1.2796
 3951TIP3   OH233343   6.535   0.821   3.666  0.3056  0.1487  0.0585
 3951TIP3    H133344   6.620   0.850   3.700  0.8300 -2.9678  1.6074
 3951TIP3    H233345   6.553   0.789   3.578  0.3352  1.3721 -0.3884
 3952TIP3   OH233346   2.490   1.957  12.384 -0.1916 -0.1748  0.1222
 3952TIP3    H133347   2.417   1.915  12.429 -1.1654  1.8571  0.4848
 3952TIP3    H233348   2.490   1.918  12.297 -1.2097 -0.7594  0.3772
 3953TIP3   OH233349   3.722   2.944   6.075 -0.2676  0.4971 -0.4330
 3953TIP3    H133350   3.660   2.881   6.037 -0.5722  0.3202  0.3346
 3953TIP3    H233351   3.713   3.022   6.021 -1.6011  0.6788  0.0245
 3954TIP3   OH233352   3.595   5.301  10.832  0.4046  0.2681  0.4647
 3954TIP3    H133353   3.658   5.239  10.793  0.9528 -0.3131  2.2078
 3954TIP3    H233354   3.631   5.387  10.813  0.9611 -0.0293  0.1605
 3955TIP3   OH233355   4.821   5.165   1.070  0.5909 -0.4450 -0.3291
 3955TIP3    H133356   4.853   5.075   1.059 -1.3502 -1.1327 -0.4837
 3955TIP3    H233357   4.828   5.204   0.983 -0.0407 -0.9542 -0.6139
 3956TIP3   OH233358   4.422   0.597  11.624  0.5347 -0.0301  0.0176
 3956TIP3    H133359   4.361   0.667  11.601  1.3279  0.7531  0.2828
 3956TIP3    H233360   4.381   0.551  11.697  0.4389  0.7117  0.4241
 3957TIP3   OH233361   1.745   0.866   2.904  0.1069  0.0238  0.7897
 3957TIP3    H133362   1.698   0.948   2.893 -0.4614 -0.2769  0.9377
 3957TIP3    H233363   1.837   0.891   2.912  0.2770  0.4414 -2.0053
 3958TIP3   OH233364   3.572   5.579   4.306  0.1004 -0.5968 -0.2803
 3958TIP3    H133365   3.611   5.644   4.248  0.3968 -0.5481 -0.0256
 3958TIP3    H233366   3.576   5.497   4.257 -1.2210 -0.2406 -1.0298
 3959TIP3   OH233367   4.472   3.346  16.168 -0.2186  0.1143  0.5304
 3959TIP3    H133368   4.537   3.276  16.167 -1.3361 -0.9612 -2.0736
 3959TIP3    H233369   4.390   3.302  16.194 -0.6934  0.6624 -0.0193
 3960TIP3   OH233370   2.509   4.995   5.377 -0.1494 -0.3644  0.0751
 3960TIP3    H133371   2.587   4.956   5.418 -0.0050 -0.1865 -0.0269
 3960TIP3    H233372   2.510   4.961   5.288  0.6298  0.7980 -0.3607
 3961TIP3   OH233373   1.503   3.038  14.967 -0.3502  0.5462  0.8638
 3961TIP3    H133374   1.513   3.112  15.026  0.9773  1.1734 -0.1186
 3961TIP3    H233375   1.409   3.033  14.949 -0.3760  2.3989  0.4236
 3962TIP3   OH233376   3.305   6.097   4.993 -0.2917  0.1100 -0.1117
 3962TIP3    H133377   3.352   6.083   5.075 -1.1241 -0.3925  0.2891
 3962TIP3    H233378   3.332   6.184   4.964  2.3476 -0.8869 -0.8765
 3963TIP3   OH233379   0.812   6.454  12.375  0.9263  0.0699 -0.2792
 3963TIP3    H133380   0.875   6.393  12.339  1.2791  0.9731 -1.1997
 3963TIP3    H233381   0.734   6.401  12.391  1.5483 -0.8168 -0.1573
 3964TIP3   OH233382   3.661   3.146  14.342  0.4670  0.3450  0.0333
 3964TIP3    H133383   3.643   3.239  14.329 -1.2324 -0.3123 -2.6145
 3964TIP3    H233384   3.750   3.134  14.310  1.5394  1.4481  2.4814
 3965TIP3   OH233385   0.600   5.570   0.271  0.1311  0.4703  0.0650
 3965TIP3    H133386   0.516   5.612   0.290  1.0322  2.4815 -0.3001
 3965TIP3    H233387   0.660   5.606   0.335  0.6450 -1.2874  0.5926
 3966TIP3   OH233388   3.330   2.114  10.855 -0.0902  0.4200  0.0561
 3966TIP3    H133389   3.384   2.155  10.922 -0.6433 -0.1278  0.8488
 3966TIP3    H233390   3.373   2.031  10.837 -0.1696  0.3846  0.0277
 3967TIP3   OH233391   0.269   6.305   0.581 -0.2806  0.4142  0.3624
 3967TIP3    H133392   0.250   6.214   0.556  1.5717  0.1282 -0.0420
 3967TIP3    H233393   0.361   6.318   0.557 -0.5094  2.3806  0.4809
 3968TIP3   OH233394   4.843   6.258  15.883 -0.2704 -0.0431 -0.4241
 3968TIP3    H133395   4.852   6.189  15.817  0.3795 -1.5411  1.1882
 3968TIP3    H233396   4.916   6.243  15.943 -2.0705  0.0158  1.8049
 3969TIP3   OH233397   3.903   5.971  14.324 -0.3013 -0.0462  0.1307
 3969TIP3    H133398   3.858   5.959  14.407  0.4267  0.1087  0.5603
 3969TIP3    H233399   3.913   6.066  14.315  0.0037 -0.0796  0.0840
 3970TIP3   OH233400   4.168   0.128  15.298 -0.1271  0.3004  0.2277
 3970TIP3    H133401   4.128   0.046  15.326  1.9778 -0.4239  1.1930
 3970TIP3    H233402   4.172   0.121  15.202  0.6600 -1.0411  0.3456
 3971TIP3   OH233403   5.544   1.305  14.517  0.9008  0.4657 -0.0224
 3971TIP3    H133404   5.563   1.312  14.610  0.7164  0.9692 -0.0202
 3971TIP3    H233405   5.460   1.258  14.513  0.5558  1.0618  0.0987
 3972TIP3   OH233406   4.703   2.014   1.675 -0.1727  1.1851 -0.7492
 3972TIP3    H133407   4.667   1.943   1.624  0.7345  0.5535 -0.5178
 3972TIP3    H233408   4.796   1.992   1.686 -0.3764  1.2048  1.2903
 3973TIP3   OH233409   4.193   4.048  16.519  0.0833 -0.5805  0.1514
 3973TIP3    H133410   4.166   4.104  16.592  2.5015 -0.5990  1.1333
 3973TIP3    H233411   4.123   4.057  16.455 -0.6059  1.9362  1.1656
 3974TIP3   OH233412   3.970   3.488  16.795  0.0588  0.0502  0.0531
 3974TIP3    H133413   3.960   3.533  16.879  0.6279  0.5623 -0.1434
 3974TIP3    H233414   3.881   3.481  16.760 -0.2888 -1.0409  1.1339
 3975TIP3   OH233415   2.697   0.330   2.817 -0.1629  0.1380 -0.2323
 3975TIP3    H133416   2.712   0.237   2.833  1.1124  0.4201  0.2574
 3975TIP3    H233417   2.618   0.333   2.762  0.0186 -1.2457 -0.5712
 3976TIP3   OH233418   5.982   0.661   5.669 -0.2242 -0.0061 -0.9746
 3976TIP3    H133419   6.074   0.651   5.694 -1.1402 -1.5602  1.9896
 3976TIP3    H233420   5.965   0.754   5.678  0.6994  0.0918 -0.1186
 3977TIP3   OH233421   4.872   0.559   1.418 -0.3037 -0.0005  0.2057
 3977TIP3    H133422   4.839   0.490   1.361 -0.5360 -2.3102  3.0533
 3977TIP3    H233423   4.967   0.555   1.407 -0.4159  0.4621 -0.9993
 3978TIP3   OH233424   1.081   4.736   0.703  0.4693  0.4565 -0.3771
 3978TIP3    H133425   1.047   4.647   0.696  2.0213 -0.3245  1.4712
 3978TIP3    H233426   1.014   4.784   0.752  0.5600 -0.2368  0.4408
 3979TIP3   OH233427   3.794   0.831   4.613 -0.1848  0.4037 -0.1164
 3979TIP3    H133428   3.839   0.909   4.646  0.2461  0.1598 -0.1246
 3979TIP3    H233429   3.740   0.864   4.541 -0.5608  0.8131  0.3530
 3980TIP3   OH233430   1.851   5.536  17.205 -0.3860 -0.2135  0.0945
 3980TIP3    H133431   1.851   5.628  17.231  1.0344  0.9239 -3.7001
 3980TIP3    H233432   1.938   5.505  17.230  0.0573  0.1743 -0.9692
 3981TIP3   OH233433   2.912   3.472  17.070  0.3301  0.1157  0.1945
 3981TIP3    H133434   2.862   3.550  17.090 -0.4442 -0.1717 -0.5925
 3981TIP3    H233435   2.859   3.424  17.006  0.5212 -1.3452  1.1074
 3982TIP3   OH233436   6.281   4.327   5.177  0.0261  0.2463 -0.1904
 3982TIP3    H133437   6.352   4.354   5.234  0.7970 -0.4644 -0.8105
 3982TIP3    H233438   6.215   4.289   5.235  0.8841 -0.6397  0.2018
 3983TIP3   OH233439   2.892   6.477   6.163 -0.2631  0.0097  0.4092
 3983TIP3    H133440   2.871   6.384   6.154 -1.0621  0.0375  1.9134
 3983TIP3    H233441   2.924   6.486   6.252 -0.5567  1.2517  0.3950
 3984TIP3   OH233442   2.592   2.296   1.793  0.5378  0.4030 -0.3007
 3984TIP3    H133443   2.646   2.217   1.798  0.7643  0.5474 -0.4852
 3984TIP3    H233444   2.543   2.287   1.712 -1.5892 -0.9355  1.0897
 3985TIP3   OH233445   2.874   2.716   4.932 -0.2503  0.2956 -0.0282
 3985TIP3    H133446   2.804   2.653   4.950  0.9800 -1.1621 -0.2503
 3985TIP3    H233447   2.954   2.663   4.928  0.3716  1.3470 -3.7495
 3986TIP3   OH233448   0.786   4.614  12.826  0.0842 -0.0893  0.4910
 3986TIP3    H133449   0.738   4.697  12.836  2.0744  1.2622 -0.7732
 3986TIP3    H233450   0.860   4.637  12.770  1.0911 -2.5843  0.7829
 3987TIP3   OH233451   2.478   6.173   3.841  0.1151 -0.0577 -0.1208
 3987TIP3    H133452   2.569   6.171   3.813  0.2455 -0.1870  0.3143
 3987TIP3    H233453   2.482   6.191   3.935 -0.2630 -1.2708  0.1259
 3988TIP3   OH233454   6.437   2.159   2.848 -0.0800 -0.4367  0.1715
 3988TIP3    H133455   6.412   2.079   2.803 -0.2321 -0.3232  0.0560
 3988TIP3    H233456   6.533   2.156   2.851 -0.1348 -1.3851  1.5497
 3989TIP3   OH233457   0.578   1.061  17.286  0.0035  0.1300  0.0175
 3989TIP3    H133458   0.614   1.067  17.375 -0.2682 -1.1582  0.2303
 3989TIP3    H233459   0.652   1.038  17.231  0.2764  1.4603 -0.1805
 3990TIP3   OH233460   5.773   2.171  12.111  0.0437  0.5681 -0.0798
 3990TIP3    H133461   5.801   2.239  12.172  0.8280  0.2640 -0.0986
 3990TIP3    H233462   5.728   2.219  12.041  1.0121  1.1086 -0.3321
 3991TIP3   OH233463   5.453   6.033   6.121 -0.5203 -0.3561 -0.2269
 3991TIP3    H133464   5.449   6.093   6.195 -0.2162 -0.2996 -0.2586
 3991TIP3    H233465   5.478   6.087   6.046  0.9797 -0.7395 -0.0206
 3992TIP3   OH233466   1.947   3.712   1.776 -0.2490  0.1378  0.3958
 3992TIP3    H133467   1.982   3.694   1.864 -1.2471  1.5988  1.1116
 3992TIP3    H233468   1.879   3.646   1.764  2.2894 -2.3814 -0.7851
 3993TIP3   OH233469   4.562   2.454  16.784  0.1178  0.0029 -0.1705
 3993TIP3    H133470   4.512   2.374  16.770  0.1140  0.3146 -2.1290
 3993TIP3    H233471   4.503   2.512  16.832  0.2547 -1.2895  1.5832
 3994TIP3   OH233472   3.401   1.848   5.269 -0.5078 -0.0692 -0.1072
 3994TIP3    H133473   3.387   1.763   5.228  0.0338 -0.0254 -0.3950
 3994TIP3    H233474   3.373   1.911   5.203 -1.0730 -0.0253  0.1727
 3995TIP3   OH233475   5.427   0.017  11.910 -0.0127  0.1549 -0.0206
 3995TIP3    H133476   5.438  -0.077  11.921  2.2690  0.3986 -0.0166
 3995TIP3    H233477   5.516   0.052  11.911 -0.8255  2.2972 -0.1730
 3996TIP3   OH233478   5.741   5.843  12.827 -0.1533  0.1379  0.0425
 3996TIP3    H133479   5.746   5.749  12.846 -0.6335  0.3129  1.0291
 3996TIP3    H233480   5.656   5.855  12.786  0.6019 -0.1258 -1.6787
 3997TIP3   OH233481   6.253   4.860  15.612 -0.0958  0.0135  0.2254
 3997TIP3    H133482   6.287   4.835  15.697  0.6678  1.9812  0.5309
 3997TIP3    H233483   6.159   4.843  15.618  0.3074 -2.1888  0.5765
 3998TIP3   OH233484   0.882   6.685  11.232  0.1078  0.1970  0.0777
 3998TIP3    H133485   0.965   6.732  11.238  0.5240 -0.3291 -1.2968
 3998TIP3    H233486   0.884   6.644  11.145 -0.3313 -2.1719  1.1402
 3999TIP3   OH233487   2.363   1.740  12.963  0.6102 -0.0873  0.2636
 3999TIP3    H133488   2.368   1.716  12.871 -0.9003 -1.7341  0.5724
 3999TIP3    H233489   2.286   1.797  12.970  1.9103  1.7099  0.1889
 4000TIP3   OH233490   4.341   0.090   0.972  0.3860  0.0560 -0.0055
 4000TIP3    H133491   4.302   0.012   0.932  0.7439  0.3707 -1.0042
 4000TIP3    H233492   4.288   0.107   1.050 -0.6680 -0.2743 -0.6428
 4001TIP3   OH233493   2.857   3.029  14.187 -0.3945  0.2031 -0.3741
 4001TIP3    H133494   2.940   3.062  14.152 -0.0544  0.3911  0.5797
 4001TIP3    H233495   2.823   2.972  14.118  0.0677  0.8571 -1.1570
 4002TIP3   OH233496   2.009   2.484   2.716 -0.2438 -0.1435  0.5565
 4002TIP3    H133497   1.974   2.401   2.748 -2.0201  0.3107 -0.2046
 4002TIP3    H233498   2.041   2.465   2.628 -0.9863  0.0516  0.2393
 4003TIP3   OH233499   0.186   5.997  16.655  0.0095  0.0014  0.5169
 4003TIP3    H133500   0.126   5.945  16.600  1.6767 -1.2360 -0.1740
 4003TIP3    H233501   0.207   5.939  16.728  0.3444  0.4506  0.7783
 4004TIP3   OH233502   1.565   1.158  14.940 -0.0667  0.0434 -0.2126
 4004TIP3    H133503   1.500   1.090  14.960 -0.1089 -0.0260 -0.5741
 4004TIP3    H233504   1.557   1.170  14.845  0.8541 -0.3659 -0.3390
 4005TIP3   OH233505   0.587   2.676  11.837  0.1146  0.3113 -0.0425
 4005TIP3    H133506   0.573   2.582  11.849  0.0434  0.2939 -0.2592
 4005TIP3    H233507   0.598   2.710  11.926 -0.9295  0.2651  0.1139
 4006TIP3   OH233508   6.024   5.698  16.799 -0.1817  0.0065 -0.0502
 4006TIP3    H133509   6.087   5.630  16.822  0.1148  0.2623 -0.0974
 4006TIP3    H233510   5.962   5.700  16.871 -0.2456 -0.3806 -0.0974
 4007TIP3   OH233511   6.776   6.300  13.726  0.3283  0.1724  0.1025
 4007TIP3    H133512   6.745   6.221  13.681 -1.5961  0.1740  1.3705
 4007TIP3    H233513   6.726   6.302  13.808  0.7366  2.4451  0.3211
 4008TIP3   OH233514   4.699   0.811   3.600 -0.4618  0.4088  0.0756
 4008TIP3    H133515   4.709   0.753   3.676  0.0346  1.0983  0.5419
 4008TIP3    H233516   4.742   0.764   3.528  1.3573  0.8895  0.8154
 4009TIP3   OH233517   6.566   1.521  16.444  0.8855 -0.2513 -0.7798
 4009TIP3    H133518   6.603   1.441  16.483 -1.3505 -0.5374  0.8618
 4009TIP3    H233519   6.527   1.492  16.362  1.4158 -0.5731 -0.9155
 4010TIP3   OH233520   1.442   0.012  10.596 -0.5606  0.1091 -0.4346
 4010TIP3    H133521   1.365  -0.025  10.554  0.9181 -1.3543 -1.9168
 4010TIP3    H233522   1.425   0.107  10.598 -2.5608 -0.2190 -0.3388
 4011TIP3   OH233523   4.596   2.808  15.735  0.1340  0.1506  0.2819
 4011TIP3    H133524   4.564   2.856  15.812 -0.2262  0.0036  0.2282
 4011TIP3    H233525   4.643   2.733  15.772 -0.1068  0.0359  0.3626
 4012TIP3   OH233526   4.970   4.875   5.504  0.1057 -0.0297 -0.2654
 4012TIP3    H133527   4.958   4.921   5.421 -0.9125 -0.0585 -0.1458
 4012TIP3    H233528   4.965   4.782   5.482  0.1734 -0.0444 -0.2202
 4013TIP3   OH233529   5.967   5.237   3.750  0.4593 -0.0201 -0.8092
 4013TIP3    H133530   5.909   5.289   3.695  1.6192  2.2768  0.0899
 4013TIP3    H233531   5.929   5.242   3.838  1.7252  1.1298 -0.3005
 4014TIP3   OH233532   3.141   4.273  14.263 -0.1376  0.2861 -0.3205
 4014TIP3    H133533   3.234   4.283  14.280 -0.3678  0.0744  1.1419
 4014TIP3    H233534   3.113   4.359  14.231  0.3348  0.6846  0.3219
 4015TIP3   OH233535   0.303   1.565   5.922 -0.1602  0.1913 -0.8504
 4015TIP3    H133536   0.307   1.578   5.828 -0.8752 -1.7975 -1.1921
 4015TIP3    H233537   0.345   1.480   5.936  1.5301  1.2555  0.8327
 4016TIP3   OH233538   2.312   4.817   1.027 -0.0724  1.0111 -0.2849
 4016TIP3    H133539   2.368   4.853   0.959  1.3448  0.6264  0.6469
 4016TIP3    H233540   2.371   4.766   1.083 -1.0728  1.8534  1.6037
 4017TIP3   OH233541   4.002   2.597  13.734 -0.2208 -0.0593 -0.3500
 4017TIP3    H133542   3.908   2.610  13.745 -0.1344  0.6391 -0.4116
 4017TIP3    H233543   4.026   2.654  13.661  0.1147 -0.8142 -0.8375
 4018TIP3   OH233544   4.085   5.324   0.904 -0.6687  0.0996 -0.3066
 4018TIP3    H133545   4.096   5.403   0.851 -1.6293 -0.6084 -1.5904
 4018TIP3    H233546   4.045   5.354   0.985  1.5266  1.3070  0.3719
 4019TIP3   OH233547   6.050   5.495  14.814  0.1587 -0.1051  0.1359
 4019TIP3    H133548   6.110   5.461  14.880  0.7272  0.6474  0.0182
 4019TIP3    H233549   6.058   5.591  14.822 -2.9524  0.0796  1.8947
 4020TIP3   OH233550   1.312   3.066  15.928 -0.2591  0.1361  0.2743
 4020TIP3    H133551   1.367   3.008  15.981 -1.8447 -2.5568 -0.9485
 4020TIP3    H233552   1.307   3.024  15.843  0.0159  3.0274 -1.2290
 4021TIP3   OH233553   4.953   0.198   0.513 -0.1577  0.5141  0.1760
 4021TIP3    H133554   4.864   0.212   0.544 -0.4065  0.2672 -0.4130
 4021TIP3    H233555   5.001   0.170   0.591 -0.6100  0.5757  0.4802
 4022TIP3   OH233556   6.070   2.579  13.897  0.1435 -0.4623  0.3564
 4022TIP3    H133557   5.979   2.609  13.890  0.8630  1.4838 -1.3368
 4022TIP3    H233558   6.102   2.621  13.977 -0.0835 -0.1380  0.2816
 4023TIP3   OH233559   4.456   1.521  16.664 -0.0211  0.1069  0.2321
 4023TIP3    H133560   4.368   1.496  16.636  1.3238 -2.0070 -2.3061
 4023TIP3    H233561   4.500   1.438  16.681  2.3820  0.9875 -1.4538
 4024TIP3   OH233562   3.510   1.550  13.002 -0.2583 -0.3902 -0.3657
 4024TIP3    H133563   3.482   1.464  13.034 -0.5200  0.6577  2.3201
 4024TIP3    H233564   3.606   1.545  13.004 -0.2779 -0.0865  1.2590
 4025TIP3   OH233565   5.572   0.568   1.006 -0.3948 -0.1127  0.3244
 4025TIP3    H133566   5.639   0.620   1.050 -0.4680  1.3250 -1.2025
 4025TIP3    H233567   5.492   0.619   1.013 -0.9670 -1.0493  0.7047
 4026TIP3   OH233568   0.066   0.309   5.558  0.0584 -0.2235  0.8585
 4026TIP3    H133569   0.017   0.229   5.540  0.0640  0.3776 -2.1439
 4026TIP3    H233570   0.148   0.278   5.597 -1.1901 -1.4641  2.5379
 4027TIP3   OH233571   1.316   0.197   2.660 -0.2946  0.3275 -0.0073
 4027TIP3    H133572   1.271   0.240   2.588 -0.2684  2.0503  0.9874
 4027TIP3    H233573   1.409   0.201   2.637 -0.3631 -0.0039 -0.3423
 4028TIP3   OH233574   2.445   4.091   2.808 -0.1921  0.1878  0.7133
 4028TIP3    H133575   2.435   4.076   2.902  0.4173 -0.3051  0.7001
 4028TIP3    H233576   2.441   4.186   2.798 -0.0148  0.2522  1.2636
 4029TIP3   OH233577   3.149   3.660   5.169 -0.4468  0.0701 -1.0268
 4029TIP3    H133578   3.069   3.658   5.222 -0.0719 -2.5275 -0.4944
 4029TIP3    H233579   3.168   3.753   5.157 -0.9114  0.7435  2.8916
 4030TIP3   OH233580   2.480   5.962   0.351  0.1095 -0.0137 -0.4077
 4030TIP3    H133581   2.387   5.971   0.372  0.0685  2.4125 -1.5213
 4030TIP3    H233582   2.525   6.001   0.426  0.1566  1.4154 -1.1775
 4031TIP3   OH233583   4.981   2.873  10.922 -0.1745 -0.2886 -0.2289
 4031TIP3    H133584   4.972   2.835  11.009  0.0712 -1.1621 -0.5863
 4031TIP3    H233585   5.056   2.933  10.931 -0.8680  0.5058  0.4530
 4032TIP3   OH233586   3.927   1.963  11.364 -0.2981 -0.1067  0.4947
 4032TIP3    H133587   3.996   1.985  11.426  0.3650  2.2863 -1.0036
 4032TIP3    H233588   3.859   2.029  11.380 -0.4990 -0.0106 -0.7069
 4033TIP3   OH233589   2.996   1.495  12.962 -0.0194  0.5108  0.4607
 4033TIP3    H133590   2.937   1.550  12.911  0.6524  1.0643  0.2769
 4033TIP3    H233591   3.083   1.526  12.940  0.4425 -1.4333 -0.6015
 4034TIP3   OH233592   1.423   2.549  12.067 -0.6863  0.1551  0.1463
 4034TIP3    H133593   1.499   2.587  12.023 -0.0040  1.0490  2.0108
 4034TIP3    H233594   1.410   2.464  12.024  0.8214  0.3781 -0.7915
 4035TIP3   OH233595   6.604   1.979   1.192  0.3162 -0.2597  0.1277
 4035TIP3    H133596   6.519   1.968   1.150  0.5144 -2.3043  0.2203
 4035TIP3    H233597   6.653   1.901   1.168  2.1669  0.8706  0.1060
 4036TIP3   OH233598   6.575   4.281  12.720 -0.4838  0.1483  0.1163
 4036TIP3    H133599   6.626   4.319  12.791 -0.9631 -0.1824  0.6406
 4036TIP3    H233600   6.487   4.316  12.733 -0.4923  0.3688 -0.5265
 4037TIP3   OH233601   1.443   4.110   4.721  0.1499  0.0192 -0.2163
 4037TIP3    H133602   1.406   4.023   4.726 -1.4969  0.7082 -0.1755
 4037TIP3    H233603   1.454   4.127   4.628  0.7766 -0.3481 -0.2124
 4038TIP3   OH233604   0.541   0.932  13.159 -0.6948 -0.4147 -0.0853
 4038TIP3    H133605   0.548   0.850  13.111 -1.4259 -0.1392 -0.6739
 4038TIP3    H233606   0.457   0.927  13.205 -1.0057  0.2322 -0.5701
 4039TIP3   OH233607   0.434   5.485  16.184 -0.8049 -0.1338  0.2472
 4039TIP3    H133608   0.350   5.456  16.219 -0.6058  0.5085  1.2642
 4039TIP3    H233609   0.475   5.533  16.256  0.8676 -1.2953  0.0958
 4040TIP3   OH233610   0.232   5.317  13.080  0.3199 -0.9041 -0.0975
 4040TIP3    H133611   0.270   5.299  12.995 -0.2790 -4.0871  0.2470
 4040TIP3    H233612   0.299   5.289  13.143  1.0000  1.9626  0.5037
 4041TIP3   OH233613   0.776   3.765   4.104 -0.0835  0.2855  0.3771
 4041TIP3    H133614   0.719   3.709   4.052  2.1798 -0.5109 -1.3899
 4041TIP3    H233615   0.843   3.705   4.139 -0.6990  1.0687  2.9623
 4042TIP3   OH233616   6.437   4.257   1.392 -0.9754  0.1796  0.2146
 4042TIP3    H133617   6.529   4.274   1.372 -1.1482  1.9864  0.8503
 4042TIP3    H233618   6.439   4.180   1.448  0.0338 -0.6977 -1.0038
 4043TIP3   OH233619   2.190   3.080   4.157 -0.1869  0.2885 -0.0389
 4043TIP3    H133620   2.105   3.037   4.165  0.5192 -0.8502  1.5461
 4043TIP3    H233621   2.248   3.028   4.212  1.8638  0.2278 -2.1956
 4044TIP3   OH233622   1.820   0.223   5.014  0.2163 -0.1654  0.1582
 4044TIP3    H133623   1.871   0.142   5.009  1.9099  0.6866  2.5329
 4044TIP3    H233624   1.731   0.194   5.035  0.3421 -1.5209 -1.1164
 4045TIP3   OH233625   3.547   4.080  15.763  0.2405 -0.0865 -0.7240
 4045TIP3    H133626   3.600   4.108  15.838 -0.2408  0.0305 -0.4278
 4045TIP3    H233627   3.566   3.986  15.754 -0.7547 -0.4073  0.4084
 4046TIP3   OH233628   1.158   0.382   4.931  0.2144 -0.0871  0.1246
 4046TIP3    H133629   1.104   0.353   4.857  0.3384  0.4415 -0.1791
 4046TIP3    H233630   1.240   0.410   4.891  0.7115 -0.8771  0.5894
 4047TIP3   OH233631   2.695   4.834   3.290  0.1322 -0.2786 -0.1548
 4047TIP3    H133632   2.785   4.859   3.312 -0.5176 -0.1151  2.4737
 4047TIP3    H233633   2.699   4.739   3.280  0.9937 -0.0689 -2.2315
 4048TIP3   OH233634   2.560   1.809   1.800  0.1985  0.2488 -0.5703
 4048TIP3    H133635   2.602   1.885   1.840 -0.8668  1.0698 -0.9851
 4048TIP3    H233636   2.540   1.751   1.874 -0.6261  1.1948 -0.0331
 4049TIP3   OH233637   4.412   5.475  16.335  0.5152  0.1616  0.3065
 4049TIP3    H133638   4.470   5.541  16.296  1.4238 -0.0599  1.2504
 4049TIP3    H233639   4.338   5.525  16.369  0.4318  0.5151 -0.4043
 4050TIP3   OH233640   5.980   6.699  11.109  0.2807  0.1897 -0.5568
 4050TIP3    H133641   5.946   6.738  11.190  0.6615 -2.6628  1.0312
 4050TIP3    H233642   5.912   6.718  11.044  0.1526  2.8672  0.2930
 4051TIP3   OH233643   6.433   6.480  16.225  0.2571  0.0287 -0.4850
 4051TIP3    H133644   6.373   6.449  16.158 -0.5013 -0.1189  0.2611
 4051TIP3    H233645   6.482   6.402  16.252 -0.1248 -0.0980 -0.1624
 4052TIP3   OH233646   4.781   1.439  16.415 -0.3044  0.1758  0.0554
 4052TIP3    H133647   4.763   1.529  16.389  1.8204  0.3957 -0.7310
 4052TIP3    H233648   4.796   1.443  16.509 -0.5218  0.5800  0.0740
 4053TIP3   OH233649   5.580   3.463   4.850 -0.8897  0.5840 -0.1014
 4053TIP3    H133650   5.539   3.390   4.803 -1.1789  0.8015 -0.1893
 4053TIP3    H233651   5.607   3.425   4.934 -0.5598  0.2466 -0.3586
 4054TIP3   OH233652   4.035   4.261   3.463  0.1752 -0.2997  0.0707
 4054TIP3    H133653   4.017   4.283   3.372  1.9292  1.7124  0.1674
 4054TIP3    H233654   3.949   4.241   3.500 -0.7610  0.4891 -1.6088
 4055TIP3   OH233655   6.174   2.060  14.046  0.5835 -0.0234 -0.5082
 4055TIP3    H133656   6.242   2.010  14.000 -0.3830 -3.8013  1.8897
 4055TIP3    H233657   6.092   2.034  14.004 -0.0543 -1.5692  1.5893
 4056TIP3   OH233658   2.172   4.585   2.827  0.5048 -0.2177  0.2244
 4056TIP3    H133659   2.190   4.493   2.847 -0.4375 -0.7418 -1.2943
 4056TIP3    H233660   2.241   4.610   2.765 -2.1031 -1.3994 -3.3340
 4057TIP3   OH233661   1.812   3.020   3.652  0.6375 -0.3271 -0.6366
 4057TIP3    H133662   1.766   2.962   3.713 -0.1853 -0.6137 -1.5028
 4057TIP3    H233663   1.877   2.965   3.610 -1.2252 -1.0992 -2.6492
 4058TIP3   OH233664   4.610   1.942  10.869 -0.8315  0.1668  0.1873
 4058TIP3    H133665   4.576   1.998  10.939  0.7661  0.4539  0.7411
 4058TIP3    H233666   4.699   1.972  10.855 -0.4411 -1.2911 -0.5193
 4059TIP3   OH233667   4.893   0.031  15.946  0.0928  0.5910  0.6440
 4059TIP3    H133668   4.857   0.047  16.033 -2.5003  1.8643 -0.6168
 4059TIP3    H233669   4.944   0.110  15.927  1.0096  0.1334  1.1513
 4060TIP3   OH233670   1.001   4.144   2.467 -0.0058  0.9866 -0.0280
 4060TIP3    H133671   1.008   4.215   2.403 -0.4390  1.4845  0.4729
 4060TIP3    H233672   0.907   4.130   2.478  0.0716  0.7262  0.3057
 4061TIP3   OH233673   5.631   2.845   2.041 -0.1765 -0.4977  0.3838
 4061TIP3    H133674   5.586   2.925   2.067 -2.6396 -1.1562 -1.6369
 4061TIP3    H233675   5.695   2.873   1.976  0.6231  0.1364  1.4446
 4062TIP3   OH233676   6.112   4.867   0.129 -1.0718  0.0097 -0.2020
 4062TIP3    H133677   6.171   4.942   0.136 -0.2706 -0.6599  0.1407
 4062TIP3    H233678   6.055   4.875   0.205 -0.2941 -0.3320  0.4178
 4063TIP3   OH233679   6.608   6.167   3.920  0.1022  0.2920  0.3206
 4063TIP3    H133680   6.565   6.090   3.956 -1.1068  0.6105 -0.4182
 4063TIP3    H233681   6.546   6.238   3.934  0.6909  0.8966 -0.1115
 4064TIP3   OH233682   3.012   6.005  16.158 -0.2692  0.2955  0.3647
 4064TIP3    H133683   3.082   5.967  16.105 -0.7965  0.9493 -0.8112
 4064TIP3    H233684   3.039   5.988  16.248  1.0662 -0.0595 -0.0890
 4065TIP3   OH233685   1.367   5.154   4.240  0.3059  0.1474  0.5618
 4065TIP3    H133686   1.411   5.221   4.292  2.1066  0.2983 -1.0869
 4065TIP3    H233687   1.394   5.071   4.280 -1.0475  0.3475  1.9294
 4066TIP3   OH233688   5.253   2.952   5.083  0.1197 -0.7892 -0.1502
 4066TIP3    H133689   5.223   3.033   5.042 -2.1520 -1.2989  0.4543
 4066TIP3    H233690   5.347   2.966   5.098 -0.5573  2.3788  1.5171
 4067TIP3   OH233691   5.968   1.751  13.918 -0.1222 -0.2990 -0.0483
 4067TIP3    H133692   6.056   1.751  13.957 -0.1609 -0.1533  0.0405
 4067TIP3    H233693   5.941   1.843  13.921 -1.1873 -0.6356  2.0052
 4068TIP3   OH233694   6.257   0.417   0.794 -0.2342 -0.3322  0.1493
 4068TIP3    H133695   6.352   0.414   0.783 -0.3381 -0.8984 -0.6888
 4068TIP3    H233696   6.242   0.480   0.864  0.8741 -1.7174  1.6776
 4069TIP3   OH233697   4.147   1.198  13.527  0.4293 -0.3861 -0.1808
 4069TIP3    H133698   4.091   1.228  13.598 -1.4816 -1.3205 -1.2686
 4069TIP3    H233699   4.163   1.276  13.474  0.5803 -0.0220  0.3878
 4070TIP3   OH233700   4.832   6.383  16.327  0.1604 -0.0081 -0.4850
 4070TIP3    H133701   4.855   6.295  16.357  1.4143  0.5185  0.1809
 4070TIP3    H233702   4.894   6.440  16.373 -2.1290  1.4471  0.8996
 4071TIP3   OH233703   6.286   3.044  15.772  0.0716  0.3439 -0.1146
 4071TIP3    H133704   6.266   3.007  15.858 -0.4998  1.7215  0.3681
 4071TIP3    H233705   6.201   3.074  15.739  0.3248  0.0085 -1.0664
 4072TIP3   OH233706   1.321   0.615  10.994  0.3531 -0.1924  0.0107
 4072TIP3    H133707   1.329   0.658  11.079  1.2459 -1.8503  0.7879
 4072TIP3    H233708   1.394   0.649  10.943  0.2261  0.2736  0.1365
 4073TIP3   OH233709   5.765   5.659  14.039 -0.0001  0.2196  0.1657
 4073TIP3    H133710   5.754   5.598  13.966 -0.2719  2.4062 -1.6720
 4073TIP3    H233711   5.731   5.742  14.006  1.7295  1.7347  2.0687
 4074TIP3   OH233712   0.714   4.488   6.440 -0.4326 -0.0351 -0.0046
 4074TIP3    H133713   0.639   4.430   6.433 -0.3598 -0.2623  0.9501
 4074TIP3    H233714   0.692   4.563   6.385 -1.3143 -0.1475  0.1935
 4075TIP3   OH233715   4.463   0.945  13.804  0.4713 -0.4804  0.0420
 4075TIP3    H133716   4.479   1.035  13.831  1.2801 -0.4347 -0.5761
 4075TIP3    H233717   4.408   0.952  13.727  0.3301 -0.5231  0.1388
 4076TIP3   OH233718   0.313   3.009   1.775  0.2648  0.6304  0.4280
 4076TIP3    H133719   0.392   3.007   1.722 -0.3401  1.0197 -0.5028
 4076TIP3    H233720   0.258   2.940   1.740 -0.1349  0.8770  0.5623
 4077TIP3   OH233721   2.683   3.987  12.366 -0.0365 -0.5377  0.4089
 4077TIP3    H133722   2.719   4.014  12.282 -0.1587 -0.5246  0.3596
 4077TIP3    H233723   2.628   4.061  12.393 -0.8813 -0.9919 -0.0331
 4078TIP3   OH233724   2.065   6.566   3.692 -0.0837 -0.6272 -0.2515
 4078TIP3    H133725   2.045   6.599   3.605 -0.9141  0.9317  0.4985
 4078TIP3    H233726   2.048   6.641   3.750  0.9293 -1.4920  1.1857
 4079TIP3   OH233727   0.929   6.771   3.258  0.4964  0.2017 -0.8901
 4079TIP3    H133728   0.840   6.760   3.224  0.1314  3.4178 -1.1468
 4079TIP3    H233729   0.985   6.739   3.187 -0.4215  0.4052 -1.7254
 4080TIP3   OH233730   4.818   3.415  13.485  0.0955 -0.2560 -0.4446
 4080TIP3    H133731   4.842   3.433  13.395  1.0065 -0.1715 -0.1908
 4080TIP3    H233732   4.747   3.351  13.479 -0.2502  0.1889 -1.2294
 4081TIP3   OH233733   1.173   1.043  16.177 -0.7235  0.0666  0.4461
 4081TIP3    H133734   1.180   1.083  16.264  2.0080  1.5833 -0.3770
 4081TIP3    H233735   1.220   0.960  16.185 -2.4053 -0.8367  0.9811
 4082TIP3   OH233736   6.406   3.508   2.258 -0.4477 -0.7352  0.3165
 4082TIP3    H133737   6.355   3.471   2.186  1.3254  0.2498 -1.4966
 4082TIP3    H233738   6.485   3.454   2.262  1.0071  1.2429 -0.7096
 4083TIP3   OH233739   4.098   1.493   3.490  0.2775 -0.1274  0.0464
 4083TIP3    H133740   4.171   1.502   3.428  0.7746  0.4746  0.7129
 4083TIP3    H233741   4.020   1.510   3.437  0.6345 -0.4252 -0.5966
 4084TIP3   OH233742   5.908   0.786  13.051  0.1018 -0.0446 -0.2146
 4084TIP3    H133743   5.817   0.760  13.041  0.1421 -0.0212 -0.6773
 4084TIP3    H233744   5.911   0.834  13.134 -0.5308  0.9314 -0.7454
 4085TIP3   OH233745   1.560   1.234   4.024  0.1001  0.0687  0.0645
 4085TIP3    H133746   1.552   1.227   4.119 -1.2696 -1.2989 -0.1249
 4085TIP3    H233747   1.605   1.317   4.009  0.4426  0.2303  1.9072
 4086TIP3   OH233748   2.561   0.689  11.551 -0.0080 -0.6749 -0.2248
 4086TIP3    H133749   2.550   0.594  11.544  0.0494 -0.8227  1.3541
 4086TIP3    H233750   2.655   0.703  11.539  0.3369 -1.0810  1.7756
 4087TIP3   OH233751   2.897   6.380   5.590  0.0189 -0.3404  0.5530
 4087TIP3    H133752   2.911   6.360   5.497 -0.5959  0.0895  0.3596
 4087TIP3    H233753   2.834   6.452   5.589 -1.1247 -1.3107  1.3372
 4088TIP3   OH233754   2.060   0.015   0.462  0.4670  0.2597 -0.0164
 4088TIP3    H133755   2.128   0.006   0.396 -1.7806 -1.8327 -2.1249
 4088TIP3    H233756   1.989   0.061   0.418 -0.6437 -0.2130  1.2474
 4089TIP3   OH233757   4.458   0.095  12.612  0.3920 -0.1769 -0.2215
 4089TIP3    H133758   4.529   0.146  12.652  1.8793 -2.1319 -0.2595
 4089TIP3    H233759   4.494   0.065  12.529 -0.7716 -0.5421 -0.5980
 4090TIP3   OH233760   4.692   3.654  14.605 -0.2717  0.0952 -0.2440
 4090TIP3    H133761   4.765   3.591  14.610 -0.5876 -0.2812 -0.3724
 4090TIP3    H233762   4.672   3.660  14.512  0.0419  0.7217 -0.2777
 4091TIP3   OH233763   4.320   6.140   0.867  0.1502 -0.2240  0.8309
 4091TIP3    H133764   4.261   6.098   0.804  0.1946  0.6823  0.1714
 4091TIP3    H233765   4.273   6.137   0.950  0.7609 -2.8757  1.1257
 4092TIP3   OH233766   4.248   4.673   1.983  0.4112 -0.6353  0.8648
 4092TIP3    H133767   4.331   4.633   2.010  1.5431  1.9284  1.3511
 4092TIP3    H233768   4.226   4.733   2.054 -0.4447  0.6993 -0.4964
 4093TIP3   OH233769   6.718   2.165  12.554 -0.5072 -0.6335 -0.1209
 4093TIP3    H133770   6.627   2.195  12.550 -0.9659 -2.1639 -1.8461
 4093TIP3    H233771   6.760   2.208  12.480 -0.5364 -2.1561 -1.0425
 4094TIP3   OH233772   6.343   5.676   4.619  0.3157  0.4094 -0.2422
 4094TIP3    H133773   6.262   5.645   4.661  0.6869  0.2821  0.3808
 4094TIP3    H233774   6.313   5.730   4.547 -0.3464 -0.5281 -0.6886
 4095TIP3   OH233775   0.147   2.955  12.875  0.2749 -0.1169  0.0452
 4095TIP3    H133776   0.239   2.936  12.891  0.1889 -0.1963  0.4659
 4095TIP3    H233777   0.102   2.917  12.951  0.1120  1.9412  1.0088
 4096TIP3   OH233778   2.330   3.589  17.253 -0.8418 -0.7680  0.2623
 4096TIP3    H133779   2.412   3.629  17.224 -0.9063  0.4047  1.6578
 4096TIP3    H233780   2.357   3.515  17.307 -0.7130 -0.5662  0.4717
 4097TIP3   OH233781   3.205   5.045   2.702 -0.3737  0.3568  0.1433
 4097TIP3    H133782   3.115   5.053   2.670 -0.0372  1.8820 -0.4654
 4097TIP3    H233783   3.258   5.086   2.634  0.9339 -1.7511 -0.1466
 4098TIP3   OH233784   3.490   2.035   2.660 -0.3806 -0.1759  0.9194
 4098TIP3    H133785   3.565   2.073   2.615 -1.0316  0.1714  0.1287
 4098TIP3    H233786   3.524   1.954   2.699  0.1764 -0.4809 -0.1947
 4099TIP3   OH233787   1.103   3.687  15.282 -0.6336  0.0715  0.0443
 4099TIP3    H133788   1.063   3.738  15.212 -3.8502 -2.1540  0.1429
 4099TIP3    H233789   1.076   3.730  15.363 -2.0119 -0.8114  0.0727
 4100TIP3   OH233790   2.859   3.702  16.250 -0.1468 -0.2270 -0.8908
 4100TIP3    H133791   2.860   3.790  16.289 -2.3387 -0.4818 -0.1552
 4100TIP3    H233792   2.940   3.661  16.279 -0.5642  0.4705  1.3872
 4101TIP3   OH233793   0.860   4.321   5.247 -0.5125 -0.1767  0.0423
 4101TIP3    H133794   0.901   4.305   5.332 -0.7491 -3.7181 -0.4141
 4101TIP3    H233795   0.796   4.250   5.238 -1.9949  1.3742 -2.1880
 4102TIP3   OH233796   2.884   1.260   2.518 -0.0613 -0.5680 -0.0928
 4102TIP3    H133797   2.878   1.224   2.607  1.0432  0.0847  0.2529
 4102TIP3    H233798   2.803   1.309   2.507 -0.0886 -0.4255  0.6647
 4103TIP3   OH233799   0.510   5.104  14.798 -0.5750 -0.6472  0.2238
 4103TIP3    H133800   0.559   5.069  14.723 -0.8936 -0.0968 -0.2407
 4103TIP3    H233801   0.421   5.072  14.785  0.0342 -3.3871  2.1422
 4104TIP3   OH233802   3.953   1.312   0.285 -0.1627 -0.1001  0.0003
 4104TIP3    H133803   3.982   1.271   0.366 -1.8675  0.3908  0.9022
 4104TIP3    H233804   4.004   1.393   0.279 -0.5787  0.2439  1.0070
 4105TIP3   OH233805   3.119   4.268  13.566 -0.0018  0.0993  0.1389
 4105TIP3    H133806   3.070   4.348  13.547 -0.4942  0.1355  1.4982
 4105TIP3    H233807   3.088   4.241  13.652  0.2393 -1.5058 -0.2604
 4106TIP3   OH233808   3.449   6.157   5.532 -0.2876 -0.8822  0.1091
 4106TIP3    H133809   3.516   6.089   5.536  1.1477  0.4768 -0.6231
 4106TIP3    H233810   3.419   6.166   5.623  1.4966 -0.5488  0.6836
 4107TIP3   OH233811   1.351   4.433   2.084 -0.0341  0.1171 -0.1095
 4107TIP3    H133812   1.344   4.385   2.002 -0.9286 -0.4260  0.2817
 4107TIP3    H233813   1.376   4.522   2.058 -1.4736  0.2579 -1.0528
 4108TIP3   OH233814   2.690   4.346   0.737 -0.1511 -0.1221  0.7392
 4108TIP3    H133815   2.736   4.404   0.798  1.2175  0.0868 -0.4700
 4108TIP3    H233816   2.752   4.333   0.665 -2.1855  0.5862 -1.1868
 4109TIP3   OH233817   2.154   0.961   5.752 -0.0715 -0.0051  0.2043
 4109TIP3    H133818   2.243   0.950   5.719  0.6126 -2.3711  2.6423
 4109TIP3    H233819   2.144   1.056   5.762  2.5162  0.2446  0.7877
 4110TIP3   OH233820   6.291   1.300  16.562  0.1857 -0.4641 -0.0401
 4110TIP3    H133821   6.320   1.264  16.478 -0.3823 -0.0532 -0.4142
 4110TIP3    H233822   6.327   1.240  16.627  2.1753  0.2208 -0.4689
 4111TIP3   OH233823   5.000   0.586   5.492  0.3223  0.3513  0.1969
 4111TIP3    H133824   4.982   0.658   5.431 -0.1704  0.8621  0.9312
 4111TIP3    H233825   4.928   0.590   5.556 -0.0766 -1.2147 -0.1330
 4112TIP3   OH233826   2.760   5.257  12.240 -0.3105 -0.0613  0.7128
 4112TIP3    H133827   2.750   5.325  12.173 -1.4160 -0.0980  0.8399
 4112TIP3    H233828   2.837   5.207  12.211 -1.4780 -0.8113 -1.1799
 4113TIP3   OH233829   4.267   2.834  11.984 -0.3441 -0.4639 -0.0109
 4113TIP3    H133830   4.216   2.808  12.060  0.4304 -0.7106  0.4277
 4113TIP3    H233831   4.205   2.881  11.928 -0.8109  0.0952  0.9697
 4114TIP3   OH233832   1.599   5.790   0.267 -0.1763  0.2353  0.2059
 4114TIP3    H133833   1.667   5.815   0.204  0.8624 -0.6028  0.9771
 4114TIP3    H233834   1.613   5.696   0.282 -1.9930 -0.1143 -0.2099
 4115TIP3   OH233835   0.645   1.550  14.079 -0.0770 -0.4227 -0.4297
 4115TIP3    H133836   0.683   1.582  14.161  0.1795 -0.9589 -0.3440
 4115TIP3    H233837   0.553   1.576  14.085  0.0722  0.0901 -0.2494
 4116TIP3   OH233838   1.548   4.067   1.977  0.6899  0.0813  0.0407
 4116TIP3    H133839   1.541   4.156   2.012  2.6423 -0.0376  0.7857
 4116TIP3    H233840   1.595   4.078   1.894  0.0009 -0.1617 -0.3935
 4117TIP3   OH233841   4.815   0.653   1.997  0.7250 -0.5331 -0.0391
 4117TIP3    H133842   4.809   0.731   2.052 -0.0192 -1.2593  0.9215
 4117TIP3    H233843   4.869   0.680   1.922  1.1401  0.6573  0.6869
 4118TIP3   OH233844   4.617   3.165  15.296  0.5513 -0.2141  0.2696
 4118TIP3    H133845   4.551   3.096  15.289  1.1977 -0.8274  0.1643
 4118TIP3    H233846   4.567   3.247  15.291 -0.0538 -0.6623 -1.2702
 4119TIP3   OH233847   0.154   0.920   0.318 -0.2365 -0.3717 -0.3503
 4119TIP3    H133848   0.177   1.011   0.333  0.4021 -0.6506  0.3966
 4119TIP3    H233849   0.066   0.923   0.280  0.0178  0.5768 -0.8710
 4120TIP3   OH233850   6.256   4.557   0.745  0.0663 -0.0120 -0.1730
 4120TIP3    H133851   6.174   4.596   0.714  0.3027  0.4233 -0.2468
 4120TIP3    H233852   6.277   4.491   0.679 -0.5414 -0.5430  0.1563
 4121TIP3   OH233853   0.236   3.666   1.699 -0.0386 -0.1681 -0.1968
 4121TIP3    H133854   0.280   3.597   1.749  0.5536  1.4216  1.5197
 4121TIP3    H233855   0.307   3.723   1.669 -0.6906  0.9618  0.3568
 4122TIP3   OH233856   3.625   5.779  16.819 -0.1584  0.4526  0.9162
 4122TIP3    H133857   3.608   5.866  16.783  0.5966  0.6444  1.0060
 4122TIP3    H233858   3.556   5.724  16.784  0.4691  0.6748 -0.6991
 4123TIP3   OH233859   4.244   6.567  11.310  0.1233 -0.2742 -0.6985
 4123TIP3    H133860   4.293   6.573  11.228  1.1736 -0.6600 -0.1062
 4123TIP3    H233861   4.231   6.658  11.336  0.0733 -0.1570 -1.1206
 4124TIP3   OH233862   0.612   0.592   5.355 -0.0745  0.2901  0.1146
 4124TIP3    H133863   0.698   0.600   5.314 -0.0613 -0.3869  0.0067
 4124TIP3    H233864   0.606   0.500   5.381 -1.0847  0.1494 -0.5825
 4125TIP3   OH233865   6.700   2.878  11.889  0.6851 -0.2201  0.0928
 4125TIP3    H133866   6.718   2.786  11.871  1.8921 -0.0843  0.5616
 4125TIP3    H233867   6.726   2.924  11.809  0.4095 -0.2404 -0.0108
 4126TIP3   OH233868   4.086   3.487   2.850  0.6443 -0.4970  0.0782
 4126TIP3    H133869   4.152   3.435   2.895  1.5718 -0.7830 -1.5820
 4126TIP3    H233870   4.047   3.427   2.786 -1.4548 -0.4237  1.2408
 4127TIP3   OH233871   0.571   3.433  11.758  0.3986 -0.4469  0.5108
 4127TIP3    H133872   0.547   3.448  11.667  0.1490  1.4721  0.8791
 4127TIP3    H233873   0.489   3.407  11.800  0.1124  0.5782  0.5917
 4128TIP3   OH233874   4.542   3.742  17.188  0.6752  0.7284 -0.1215
 4128TIP3    H133875   4.492   3.666  17.218  0.2459  1.0168 -0.1123
 4128TIP3    H233876   4.476   3.807  17.163  1.0277  0.6915 -1.1810
 4129TIP3   OH233877   1.559   1.281   0.841  0.1501 -0.3904  0.0216
 4129TIP3    H133878   1.581   1.319   0.927 -0.4278 -0.7589  0.3316
 4129TIP3    H233879   1.599   1.341   0.778  1.8801 -0.9194  0.5695
 4130TIP3   OH233880   3.308   3.844   0.111 -0.2389 -0.0713  0.0095
 4130TIP3    H133881   3.226   3.887   0.134  0.3025  0.7559  0.3890
 4130TIP3    H233882   3.367   3.916   0.089  0.7400 -0.6165  0.8723
 4131TIP3   OH233883   0.755   2.549   1.712 -0.5864 -0.6184 -0.0180
 4131TIP3    H133884   0.739   2.468   1.761 -2.1515 -0.3766 -0.0788
 4131TIP3    H233885   0.667   2.585   1.696  0.1563  2.2949  2.0427
 4132TIP3   OH233886   0.522   0.773   0.263  0.1355 -0.0980  0.5977
 4132TIP3    H133887   0.440   0.740   0.300 -0.4773  2.1918  1.3100
 4132TIP3    H233888   0.532   0.723   0.181 -3.3786  1.4696 -0.8843
 4133TIP3   OH233889   0.380   6.410  13.391 -0.5947 -0.2628 -0.5887
 4133TIP3    H133890   0.418   6.402  13.478 -1.4503 -1.0844 -0.2794
 4133TIP3    H233891   0.446   6.456  13.339  0.8519 -1.8014 -0.1201
 4134TIP3   OH233892   6.080   6.681  14.950 -0.4065  0.3282  0.6661
 4134TIP3    H133893   6.087   6.594  14.912 -0.2541  1.5854 -2.3231
 4134TIP3    H233894   6.162   6.694  14.997 -1.3890 -1.9953  3.1496
 4135TIP3   OH233895   2.578   6.403   4.659  0.0984  0.2383  0.3595
 4135TIP3    H133896   2.657   6.395   4.606 -0.5420 -1.8241 -0.3493
 4135TIP3    H233897   2.512   6.435   4.598 -0.6043 -2.0073 -0.1189
 4136TIP3   OH233898   6.778   6.770  14.721  0.3174  0.5059 -0.3698
 4136TIP3    H133899   6.863   6.815  14.717  0.6603 -0.1242 -0.1005
 4136TIP3    H233900   6.799   6.677  14.712 -0.0924  0.1170  2.3395
 4137TIP3   OH233901   3.203   2.063   2.650  0.4180  0.3000 -0.1070
 4137TIP3    H133902   3.159   2.040   2.732 -1.1509 -1.5960 -1.4123
 4137TIP3    H233903   3.296   2.065   2.671 -0.0333  0.8358  1.9207
 4138TIP3   OH233904   0.278   0.985   6.199  0.2158 -0.2027 -0.2323
 4138TIP3    H133905   0.307   1.064   6.154 -1.1872 -0.1242 -1.0311
 4138TIP3    H233906   0.183   0.993   6.202 -0.0210 -2.3385 -1.2130
 4139TIP3   OH233907   2.213   0.587   2.666  0.0771 -0.2730  0.0837
 4139TIP3    H133908   2.222   0.492   2.667 -1.1258 -0.4019 -0.0516
 4139TIP3    H233909   2.120   0.602   2.683  0.2476  0.8772  0.0373
 4140TIP3   OH233910   0.417   0.690  14.335  0.1987  0.8240 -0.3543
 4140TIP3    H133911   0.463   0.688  14.419  0.4104 -1.4571 -0.4885
 4140TIP3    H233912   0.344   0.630  14.347 -0.1088  0.9342 -1.6130
 4141TIP3   OH233913   4.822   2.206   1.207 -0.0358 -0.1650 -0.0965
 4141TIP3    H133914   4.918   2.210   1.206  0.0459 -0.1783  2.6688
 4141TIP3    H233915   4.801   2.131   1.153  1.4344  0.7416 -1.9880
 4142TIP3   OH233916   6.643   2.591  11.841  0.6364  0.2009 -0.6223
 4142TIP3    H133917   6.677   2.502  11.833  1.8948  0.6147  0.0270
 4142TIP3    H233918   6.591   2.604  11.762  1.0895 -0.8234 -1.0995
 4143TIP3   OH233919   5.520   4.052  13.766 -0.4186 -0.3227 -0.6411
 4143TIP3    H133920   5.577   3.975  13.760 -1.2825 -1.2539  2.0944
 4143TIP3    H233921   5.579   4.122  13.793 -0.2868 -0.9764  0.8389
 4144TIP3   OH233922   4.453   0.079   4.523  0.8483  0.0225 -0.0441
 4144TIP3    H133923   4.373   0.126   4.548 -0.9147 -2.7837 -0.1904
 4144TIP3    H233924   4.476   0.115   4.437 -1.6081 -0.6872 -1.0651
 4145TIP3   OH233925   3.423   0.369  13.766  0.3486  0.0522 -0.3807
 4145TIP3    H133926   3.475   0.415  13.700 -1.3711  0.5967 -1.3914
 4145TIP3    H233927   3.355   0.431  13.790 -0.1599 -0.8542  0.5316
 4146TIP3   OH233928   5.401   1.513   0.091 -0.4056  0.3323  0.2251
 4146TIP3    H133929   5.427   1.443   0.032 -0.8491 -0.5900  1.1136
 4146TIP3    H233930   5.477   1.527   0.148 -1.1135 -1.0042  1.5284
 4147TIP3   OH233931   4.808   3.270  13.019 -0.5894 -0.6099  0.1645
 4147TIP3    H133932   4.884   3.214  13.005  0.4589  0.5904  0.8796
 4147TIP3    H233933   4.833   3.327  13.092 -0.4562  2.7255 -2.3681
 4148TIP3   OH233934   6.674   3.428  13.464 -0.0325 -0.3908  0.4633
 4148TIP3    H133935   6.600   3.439  13.524 -1.0445 -1.4216 -0.5629
 4148TIP3    H233936   6.639   3.455  13.379  1.1645  0.3489  0.2042
 4149TIP3   OH233937   2.146   0.872  11.222  0.2577  0.1502 -0.0098
 4149TIP3    H133938   2.238   0.845  11.218  0.7514  1.8257 -0.8069
 4149TIP3    H233939   2.124   0.895  11.132 -0.4083  1.3959  0.4554
 4150TIP3   OH233940   4.181   4.410  12.468 -0.3381 -0.2192 -0.1513
 4150TIP3    H133941   4.188   4.316  12.486  0.7514 -0.0392  0.4549
 4150TIP3    H233942   4.271   4.437  12.448 -0.5213  0.8294  0.3901
 4151TIP3   OH233943   5.926   1.983   6.413  0.1255  0.4756  0.1075
 4151TIP3    H133944   5.863   1.915   6.438  0.3446 -0.0342 -0.7269
 4151TIP3    H233945   5.873   2.062   6.405 -0.1739  0.3531  0.8136
 4152TIP3   OH233946   3.055   2.777   1.428  0.5139 -0.3729 -0.0093
 4152TIP3    H133947   3.111   2.852   1.449  2.6215 -2.0148  0.4558
 4152TIP3    H233948   3.072   2.713   1.498 -1.4711 -1.1817 -0.2216
 4153TIP3   OH233949   5.977   6.640   6.333  0.2757  0.0595 -0.3482
 4153TIP3    H133950   5.969   6.696   6.255 -0.8905 -2.0947 -1.8253
 4153TIP3    H233951   5.887   6.620   6.357  0.6628 -0.0899  0.9890
 4154TIP3   OH233952   6.228   4.784   4.925 -0.0016  0.6715 -0.3530
 4154TIP3    H133953   6.150   4.749   4.882  0.9459 -2.7457  0.6194
 4154TIP3    H233954   6.298   4.775   4.859  0.5587 -0.6703  0.4144
 4155TIP3   OH233955   4.924   0.542  13.403  0.7559 -0.4170  0.2570
 4155TIP3    H133956   4.916   0.625  13.355 -0.3130 -0.6137  0.0797
 4155TIP3    H233957   5.010   0.547  13.446  0.3133  1.1785  0.9818
 4156TIP3   OH233958   0.565   4.166  11.234  0.0225 -0.5808 -0.3123
 4156TIP3    H133959   0.529   4.081  11.211  0.6510 -1.0413  0.4246
 4156TIP3    H233960   0.642   4.147  11.288  0.1837  0.4444 -0.1654
 4157TIP3   OH233961   5.581   4.639  14.204  0.3183  0.2310 -0.7553
 4157TIP3    H133962   5.560   4.556  14.160 -0.3994  0.5923 -1.1054
 4157TIP3    H233963   5.534   4.634  14.287  1.9191 -0.5846  0.1457
 4158TIP3   OH233964   2.452   6.767  13.925 -0.4641 -0.2373  0.2523
 4158TIP3    H133965   2.380   6.704  13.926 -0.3037 -0.4421 -0.5560
 4158TIP3    H233966   2.422   6.839  13.980 -1.0034 -0.6338  0.4763
 4159TIP3   OH233967   2.214   1.648  13.750 -0.5130  0.0852  0.3701
 4159TIP3    H133968   2.235   1.604  13.667  0.2049  1.0968  0.0023
 4159TIP3    H233969   2.221   1.579  13.816  0.1694 -0.4597 -0.2563
 4160TIP3   OH233970   4.508   5.748  11.910 -0.2234 -0.0307 -0.0754
 4160TIP3    H133971   4.435   5.695  11.878  1.2193 -1.0780 -1.7213
 4160TIP3    H233972   4.512   5.822  11.850 -0.4752  0.4941  0.5477
 4161TIP3   OH233973   2.177   4.188  11.690 -0.5726  1.0434 -0.3250
 4161TIP3    H133974   2.251   4.137  11.656 -0.9528 -0.8831  1.6207
 4161TIP3    H233975   2.208   4.279  11.688  1.8172  0.2846  0.3797
 4162TIP3   OH233976   4.679   6.696  10.545 -0.2156 -0.9260 -0.1855
 4162TIP3    H133977   4.680   6.601  10.558  0.7974 -1.0433 -1.1247
 4162TIP3    H233978   4.589   6.715  10.518 -0.2542 -1.6881 -0.5946
 4163TIP3   OH233979   6.105   5.718   5.483 -0.1124 -0.3442 -0.3201
 4163TIP3    H133980   6.094   5.678   5.569 -0.2255  2.7149  1.1688
 4163TIP3    H233981   6.020   5.760   5.465  0.1068 -0.4447 -1.6427
 4164TIP3   OH233982   6.411   4.361  14.260 -0.1699  0.4824  0.0262
 4164TIP3    H133983   6.436   4.425  14.327  0.3558 -0.4320  0.7219
 4164TIP3    H233984   6.329   4.394  14.224 -0.3520  1.0931  0.9857
 4165TIP3   OH233985   2.667   4.981   3.763  0.2309  0.2385  0.2050
 4165TIP3    H133986   2.620   5.064   3.769  1.1045  0.7266  0.4761
 4165TIP3    H233987   2.755   5.006   3.735  0.3658 -0.6451 -0.1687
 4166TIP3   OH233988   0.277   5.834   1.800 -0.8091 -0.2005 -0.4416
 4166TIP3    H133989   0.275   5.792   1.714  0.2801 -0.4386 -0.3515
 4166TIP3    H233990   0.264   5.762   1.862  0.7911 -0.3870 -0.3003
 4167TIP3   OH233991   5.418   0.821   1.763 -0.0449  0.1067 -0.0566
 4167TIP3    H133992   5.492   0.868   1.803 -0.0995  1.0173 -1.0003
 4167TIP3    H233993   5.401   0.748   1.823  0.5985  0.8028  0.9983
 4168TIP3   OH233994   2.545   6.102   2.086 -0.0107 -0.3846  0.0259
 4168TIP3    H133995   2.629   6.104   2.039  0.6803 -0.9856  1.2132
 4168TIP3    H233996   2.516   6.011   2.078  0.2684 -0.5619  1.0411
 4169TIP3   OH233997   2.181   1.575  14.032  0.4604 -0.7105  0.6688
 4169TIP3    H133998   2.275   1.590  14.043  0.6482 -0.4152 -1.2058
 4169TIP3    H233999   2.144   1.662  14.020  0.2225 -0.9590 -0.4849
 4170TIP3   OH234000   3.620   4.269   0.103 -0.1402 -0.4465 -0.4857
 4170TIP3    H134001   3.651   4.261   0.193  0.6613 -1.1744 -0.8144
 4170TIP3    H234002   3.580   4.184   0.084 -2.2557  0.4442 -0.1042
 4171TIP3   OH234003   2.431   0.272   4.155 -0.2465 -0.5857 -0.7125
 4171TIP3    H134004   2.383   0.210   4.210  0.4093  0.6546  1.2957
 4171TIP3    H234005   2.365   0.336   4.128 -0.5701 -1.2052 -1.4229
 4172TIP3   OH234006   4.712   1.542  12.250 -0.4684  0.2786  0.4431
 4172TIP3    H134007   4.651   1.525  12.321 -0.1619 -0.0471  0.6300
 4172TIP3    H234008   4.748   1.629  12.270  0.3943 -0.2609  1.2497
 4173TIP3   OH234009   2.403   2.222  13.248 -0.3985  0.4815 -0.7549
 4173TIP3    H134010   2.486   2.263  13.225  0.0149  0.2310  0.2743
 4173TIP3    H234011   2.337   2.274  13.202  0.3264  0.6283 -1.6474
 4174TIP3   OH234012   6.667   5.343  16.463 -0.5134 -0.0152 -0.0751
 4174TIP3    H134013   6.619   5.261  16.476  1.7590 -1.2914  0.5517
 4174TIP3    H234014   6.726   5.325  16.390 -0.5796  1.3466 -0.4729
 4175TIP3   OH234015   1.097   2.474   2.704 -0.1483  0.2348  0.8082
 4175TIP3    H134016   1.037   2.449   2.774 -1.0684 -0.1722 -0.1025
 4175TIP3    H234017   1.043   2.472   2.625  0.9854  0.2123  0.0231
 4176TIP3   OH234018   5.111   2.161   2.314 -0.1484  0.3308  0.2944
 4176TIP3    H134019   5.077   2.192   2.230  0.1446  3.3761  1.2481
 4176TIP3    H234020   5.033   2.133   2.362 -0.5628  0.8344 -0.0850
 4177TIP3   OH234021   3.306   3.558  16.452  0.0930  0.8609 -0.3714
 4177TIP3    H134022   3.386   3.507  16.438 -0.2037  0.8075 -1.9592
 4177TIP3    H234023   3.272   3.528  16.537  0.3507 -0.9958 -0.9133
 4178TIP3   OH234024   1.145   2.549   3.961  0.6329  0.2240 -0.1030
 4178TIP3    H134025   1.157   2.486   4.031  1.1089 -1.2352 -1.4797
 4178TIP3    H234026   1.210   2.617   3.979  1.3306 -0.5638  0.3913
 4179TIP3   OH234027   3.705   1.334   3.927  0.1918  0.1602  0.0103
 4179TIP3    H134028   3.647   1.268   3.889 -0.3839  1.0484 -0.6617
 4179TIP3    H234029   3.688   1.413   3.876  1.8591  0.4833 -0.0694
 4180TIP3   OH234030   0.484   1.420  16.279 -0.2757 -0.7317 -0.2600
 4180TIP3    H134031   0.468   1.327  16.293 -1.3702 -1.2721 -4.3311
 4180TIP3    H234032   0.540   1.423  16.201 -0.1857  2.0147 -0.1440
 4181TIP3   OH234033   0.219   3.849  13.971 -0.3004  0.3014 -0.2997
 4181TIP3    H134034   0.229   3.904  13.894  0.7296  2.5230  1.3696
 4181TIP3    H234035   0.296   3.867  14.025 -2.5484  1.3100  2.7645
 4182TIP3   OH234036   2.135   3.429  15.752  0.3157  0.2591 -0.1527
 4182TIP3    H134037   2.073   3.382  15.807 -4.4095  1.6045 -3.9351
 4182TIP3    H234038   2.129   3.520  15.782 -0.3196  0.5542 -1.1497
 4183TIP3   OH234039   0.285   2.032  12.446  0.3535 -0.4385  0.3931
 4183TIP3    H134040   0.212   1.970  12.446  0.6006 -0.7429  1.7174
 4183TIP3    H234041   0.338   2.006  12.521  1.6891 -0.0585 -0.3914
 4184TIP3   OH234042   3.197   4.311   3.713  0.2362  0.2494  0.4685
 4184TIP3    H134043   3.142   4.351   3.647  0.0550 -0.0227  0.4522
 4184TIP3    H234044   3.156   4.335   3.796 -0.2363 -0.4251  0.4380
 4185TIP3   OH234045   3.981   4.459  14.018 -0.0177 -0.0907  0.3904
 4185TIP3    H134046   4.045   4.530  14.014  0.7703 -0.8060  0.1005
 4185TIP3    H234047   3.993   4.412  13.936 -1.1552 -0.0333  0.1856
 4186TIP3   OH234048   5.672   1.505  16.377 -0.1292  0.2401  0.0070
 4186TIP3    H134049   5.623   1.541  16.451 -1.5000 -2.6706  0.6059
 4186TIP3    H234050   5.604   1.468  16.319  1.0504  0.7090 -1.7122
 4187TIP3   OH234051   4.442   1.978  14.911  0.8554 -0.1890 -0.0347
 4187TIP3    H134052   4.387   1.908  14.947  1.4020  0.4061  2.0667
 4187TIP3    H234053   4.390   2.058  14.924  1.0308  0.0332 -0.6788
 4188TIP3   OH234054   5.209   2.306  16.191 -0.4173 -0.1233  0.0912
 4188TIP3    H134055   5.301   2.300  16.165 -0.0422 -0.8449  1.5299
 4188TIP3    H234056   5.182   2.394  16.164  0.9433  0.4037  0.4145
 4189TIP3   OH234057   2.843   0.731   3.362 -0.1912  0.7574 -0.2798
 4189TIP3    H134058   2.925   0.707   3.320 -0.5432 -0.1549 -0.4706
 4189TIP3    H234059   2.825   0.659   3.423  0.2023  1.9525  1.2929
 4190TIP3   OH234060   4.027   5.256  16.245 -0.6567  0.4361  0.1192
 4190TIP3    H134061   4.104   5.238  16.191 -0.6122 -0.7275  0.5635
 4190TIP3    H234062   4.055   5.241  16.335 -0.5692  2.9498  0.5470
 4191TIP3   OH234063   3.228   3.918  16.810  0.7504  0.6026  0.1629
 4191TIP3    H134064   3.182   4.001  16.817 -0.2607  0.0820 -0.0300
 4191TIP3    H234065   3.163   3.853  16.839  1.5263 -0.1035  0.3206
 4192TIP3   OH234066   2.442   0.549   4.297  0.5285  0.2083  0.0865
 4192TIP3    H134067   2.356   0.508   4.297  1.1687 -1.2255 -2.3820
 4192TIP3    H234068   2.500   0.481   4.332  0.9722  0.4643 -0.1539
 4193TIP3   OH234069   2.298   6.242  16.243  0.1433  0.6678  0.5461
 4193TIP3    H134070   2.233   6.311  16.226  0.2241  0.8978  1.1372
 4193TIP3    H234071   2.329   6.215  16.157 -1.0682  0.2515  0.2278
 4194TIP3   OH234072   1.000   0.744   2.537  0.1851  0.1344 -0.0360
 4194TIP3    H134073   0.952   0.817   2.577 -0.3788 -0.4001  0.2587
 4194TIP3    H234074   0.933   0.692   2.493  0.5696 -0.2991 -0.1166
 4195TIP3   OH234075   3.365   4.545   1.170  0.0596 -0.7198  0.0837
 4195TIP3    H134076   3.377   4.472   1.110  0.4102 -0.5688 -0.0292
 4195TIP3    H234077   3.310   4.607   1.121  0.9612 -0.2645 -0.3655
 4196TIP3   OH234078   4.432   0.801  14.042  0.0804 -0.4507  0.2039
 4196TIP3    H134079   4.421   0.837  13.954  0.0923 -1.4001 -0.2007
 4196TIP3    H234080   4.477   0.869  14.092 -3.3509  1.6892  0.5726
 4197TIP3   OH234081   0.204   4.459  14.231 -0.2264  0.2100  0.0727
 4197TIP3    H134082   0.222   4.454  14.325 -0.2875 -0.0976  0.0678
 4197TIP3    H234083   0.239   4.377  14.196 -1.8579 -0.4953  0.0938
 4198TIP3   OH234084   6.751   2.987   4.837 -0.4495  0.9911 -0.0145
 4198TIP3    H134085   6.839   2.976   4.800  0.3296 -0.2291  2.1417
 4198TIP3    H234086   6.699   3.022   4.764  1.4739  0.3883 -1.7288
 4199TIP3   OH234087   6.780   6.235   5.918 -0.6276 -0.1259  0.1183
 4199TIP3    H134088   6.850   6.211   5.979  0.0183 -1.1269 -1.0046
 4199TIP3    H234089   6.720   6.287   5.971  0.1729 -0.5647  1.4956
 4200TIP3   OH234090   1.529   4.955  15.480 -0.3200  0.8678 -0.4459
 4200TIP3    H134091   1.516   4.861  15.490  2.0037  0.6202  0.5100
 4200TIP3    H234092   1.514   4.991  15.568  1.4652  1.0238 -0.1782
 4201TIP3   OH234093   2.258   6.300   4.278 -0.7602 -0.3985  0.3539
 4201TIP3    H134094   2.257   6.208   4.252 -0.4603 -0.1328 -0.6486
 4201TIP3    H234095   2.309   6.301   4.359 -0.3318 -1.0577  0.1047
 4202TIP3   OH234096   6.100   1.685   3.727  0.0288 -0.0380  0.1842
 4202TIP3    H134097   6.183   1.669   3.681  0.7218  0.8409  1.1146
 4202TIP3    H234098   6.082   1.603   3.772  0.8033  0.0091  0.5993
 4203TIP3   OH234099   1.673   1.273   2.137  0.0479  0.5212 -0.2997
 4203TIP3    H134100   1.665   1.184   2.170 -0.9899  0.4491 -0.7248
 4203TIP3    H234101   1.764   1.296   2.151  0.0695 -0.2206  0.7969
 4204TIP3   OH234102   0.053   1.216  16.291 -0.0848 -0.7628 -0.1260
 4204TIP3    H134103   0.102   1.180  16.217  0.3625 -0.8620  0.2148
 4204TIP3    H234104   0.046   1.143  16.352  0.5148 -0.3679  0.4136
 4205TIP3   OH234105   2.438   0.363  17.211  0.4885  0.1342 -0.3018
 4205TIP3    H134106   2.532   0.369  17.199  0.2800  0.5582 -1.7482
 4205TIP3    H234107   2.423   0.273  17.242  1.4812  0.4563  1.1488
 4206TIP3   OH234108   1.706   4.532  13.717 -0.3917  0.1112 -0.4542
 4206TIP3    H134109   1.736   4.540  13.808 -2.1766  0.8991  0.0818
 4206TIP3    H234110   1.692   4.438  13.706 -1.9761  0.1876  0.7017
 4207TIP3   OH234111   5.885   2.559  15.488 -0.3162  0.2864 -0.1022
 4207TIP3    H134112   5.797   2.557  15.449 -0.5344 -1.8319  0.4433
 4207TIP3    H234113   5.934   2.620  15.432 -1.5077 -0.2323 -1.7610
 4208TIP3   OH234114   1.054   3.180   1.474 -0.1124  1.2375 -0.4555
 4208TIP3    H134115   1.023   3.210   1.559 -0.2001  1.8379 -0.6939
 4208TIP3    H234116   1.148   3.194   1.476 -0.1525  1.5224 -0.5644
 4209TIP3   OH234117   6.043   6.613   0.258 -0.1844  0.0618 -0.0782
 4209TIP3    H134118   6.011   6.524   0.245  0.3500 -0.1304 -0.0635
 4209TIP3    H234119   5.977   6.654   0.314 -0.7753 -0.1190 -0.6341
 4210TIP3   OH234120   1.535   4.614  11.597  0.4601  0.2623  0.1489
 4210TIP3    H134121   1.560   4.528  11.633  0.4029  0.2215  0.0900
 4210TIP3    H234122   1.467   4.594  11.533  0.1986  0.3899  0.3902
 4211TIP3   OH234123   1.989   3.411   6.028 -0.2302  0.6118  0.1852
 4211TIP3    H134124   1.902   3.372   6.022 -0.0461 -0.2530  2.7548
 4211TIP3    H234125   2.050   3.338   6.021  0.3335  1.2385 -1.8550
 4212TIP3   OH234126   0.203   4.019  16.907 -0.7273 -0.3284 -0.5415
 4212TIP3    H134127   0.149   3.997  16.831 -2.3192 -1.8542  0.9841
 4212TIP3    H234128   0.143   4.064  16.967  0.7095  1.5835 -0.4879
 4213TIP3   OH234129   3.519   2.415   1.544 -0.0654 -0.0684  0.1318
 4213TIP3    H134130   3.542   2.504   1.570  1.0324 -0.3953  0.3038
 4213TIP3    H234131   3.602   2.368   1.540 -0.8421 -1.9496  3.2534
 4214TIP3   OH234132   4.383   5.195  13.021 -0.0876  0.0060  0.0173
 4214TIP3    H134133   4.436   5.274  13.029 -2.5255  2.0666 -2.8451
 4214TIP3    H234134   4.317   5.203  13.090 -0.6268  0.7386 -0.5777
 4215TIP3   OH234135   3.067   2.439   3.498 -0.1727  0.0281  0.1159
 4215TIP3    H134136   2.977   2.454   3.524  0.5097  2.0320  1.3903
 4215TIP3    H234137   3.118   2.454   3.578  1.3088 -1.0072 -0.6031
 4216TIP3   OH234138   1.763   4.913  13.458 -0.0967  0.1290  0.5216
 4216TIP3    H134139   1.805   4.829  13.439 -1.1139  0.0496 -1.3963
 4216TIP3    H234140   1.785   4.968  13.384 -0.2182  1.2888  1.3338
 4217TIP3   OH234141   0.427   1.993  17.238 -0.0895 -0.0676  0.1498
 4217TIP3    H134142   0.337   2.018  17.217  0.0928 -0.2540 -0.9080
 4217TIP3    H234143   0.461   2.065  17.291 -1.2158 -0.5174  1.5105
 4218TIP3   OH234144   5.369   1.392   3.453  0.4034  0.0907  0.2233
 4218TIP3    H134145   5.415   1.445   3.387 -0.4166 -1.0560 -1.3100
 4218TIP3    H234146   5.293   1.357   3.406  1.2498 -2.9346  1.0297
 4219TIP3   OH234147   1.985   2.726   2.481 -0.2085 -0.4133  0.6915
 4219TIP3    H134148   1.965   2.733   2.575  1.8357  1.0895  1.0416
 4219TIP3    H234149   2.066   2.776   2.470 -1.6395  1.3477 -2.2845
 4220TIP3   OH234150   5.049   4.145  16.791  0.2465 -0.1094 -0.1875
 4220TIP3    H134151   4.986   4.079  16.761  1.0269 -0.8191 -0.2979
 4220TIP3    H234152   5.010   4.229  16.767  0.5021 -0.6256 -2.5335
 4221TIP3   OH234153   3.810   3.776  13.050  0.0891  1.0833 -0.4665
 4221TIP3    H134154   3.899   3.777  13.014  0.6858  2.1795  1.0237
 4221TIP3    H234155   3.802   3.690  13.092  0.2720  0.8080 -0.9837
 4222TIP3   OH234156   1.978   1.925  14.612 -0.0522  0.5937 -0.2347
 4222TIP3    H134157   2.067   1.925  14.647 -0.7257  0.2676  1.5683
 4222TIP3    H234158   1.932   1.991  14.665 -1.6535 -1.4441  1.0142
 4223TIP3   OH234159   2.517   0.369  14.516  0.2145 -0.3389 -0.5687
 4223TIP3    H134160   2.559   0.289  14.546  0.5041  0.6408  1.7118
 4223TIP3    H234161   2.528   0.368  14.421  1.4938 -2.2710 -0.4151
 4224TIP3   OH234162   2.544   3.498  10.768 -0.2404 -0.2666 -0.4605
 4224TIP3    H134163   2.532   3.490  10.673  0.0220  3.8537 -0.9370
 4224TIP3    H234164   2.473   3.555  10.796  0.2562 -0.6674  1.6862
 4225TIP3   OH234165   3.989   1.364  12.628  0.4277  0.2787 -0.0611
 4225TIP3    H134166   3.994   1.269  12.639  0.6508  0.1448 -1.2492
 4225TIP3    H234167   3.919   1.376  12.564  0.6926  0.8936 -0.2322
 4226TIP3   OH234168   2.524   6.655   6.144  0.3134  0.7158  0.1525
 4226TIP3    H134169   2.599   6.711   6.164 -0.1327  1.6644 -0.7545
 4226TIP3    H234170   2.563   6.573   6.114  0.9708  0.2478  2.2515
 4227TIP3   OH234171   2.376   5.003   4.906  0.7659  0.1764 -0.6368
 4227TIP3    H134172   2.411   4.970   4.989 -0.2434 -1.5210 -0.8454
 4227TIP3    H234173   2.451   5.009   4.848  1.4503  1.1918  0.3467
 4228TIP3   OH234174   0.625   3.281  11.054  0.5272  0.2114  0.4484
 4228TIP3    H134175   0.681   3.352  11.021  0.7346  0.2444  0.8748
 4228TIP3    H234176   0.598   3.234  10.975  0.6339  0.5833  0.1870
 4229TIP3   OH234177   0.900   2.293  16.748  0.1271  0.2277  0.2252
 4229TIP3    H134178   0.897   2.278  16.654  1.2121 -0.5606  0.3058
 4229TIP3    H234179   0.809   2.284  16.777  0.0516 -1.2694 -0.4748
 4230TIP3   OH234180   6.533   6.653  15.674 -0.2143  0.3105 -0.2118
 4230TIP3    H134181   6.535   6.717  15.745  2.2355 -0.3307  0.3471
 4230TIP3    H234182   6.597   6.686  15.610 -1.5326  0.2582 -1.5769
 4231TIP3   OH234183   1.467   5.362   5.720 -0.1119  0.4537 -0.0661
 4231TIP3    H134184   1.454   5.268   5.735 -0.2986  0.5007  0.0693
 4231TIP3    H234185   1.560   5.370   5.698  0.5285  0.5499  2.4746
 4232TIP3   OH234186   4.109   1.518   0.189  0.1277  0.4056  0.3599
 4232TIP3    H134187   4.056   1.596   0.202 -0.9959 -0.2454 -0.2624
 4232TIP3    H234188   4.080   1.482   0.105  0.7001 -0.6226  0.5864
 4233TIP3   OH234189   2.863   3.180   4.557  0.3562 -0.1042 -0.3690
 4233TIP3    H134190   2.947   3.201   4.597  1.8027 -1.5380 -2.5428
 4233TIP3    H234191   2.820   3.264   4.545  0.0996  0.4090  3.6049
 4234TIP3   OH234192   5.665   2.458   4.511  0.1197  0.4133  0.1930
 4234TIP3    H134193   5.629   2.386   4.563  0.4938 -0.5640 -0.8783
 4234TIP3    H234194   5.615   2.535   4.538  0.4582 -0.0411  2.1422
 4235TIP3   OH234195   6.297   6.557  16.599 -0.0459  0.0203  0.2816
 4235TIP3    H134196   6.312   6.631  16.541 -0.0394 -0.6980 -0.6445
 4235TIP3    H234197   6.361   6.491  16.572 -1.6100 -1.2265 -0.4951
 4236TIP3   OH234198   6.199   2.524  16.064  0.4638 -0.1807 -0.2114
 4236TIP3    H134199   6.190   2.558  16.153 -1.2823  1.5817 -1.0188
 4236TIP3    H234200   6.221   2.600  16.010  0.1807 -0.9640 -1.4820
 4237TIP3   OH234201   5.627   2.677  12.026 -0.0100 -0.2175  0.1846
 4237TIP3    H134202   5.718   2.658  12.005  0.1183  1.6020 -1.0741
 4237TIP3    H234203   5.584   2.592  12.029  0.8833 -0.8795 -3.3048
 4238TIP3   OH234204   2.070   6.548   5.457 -0.0856 -0.3786 -0.7058
 4238TIP3    H134205   2.088   6.517   5.546  1.7222  2.3615 -0.0658
 4238TIP3    H234206   1.974   6.546   5.450 -0.2158 -1.1173  1.1172
 4239TIP3   OH234207   0.384   3.536   5.762 -0.2408  0.1745  0.1411
 4239TIP3    H134208   0.474   3.527   5.794 -0.3847 -0.5649  0.3465
 4239TIP3    H234209   0.370   3.630   5.756 -0.0727  0.3260  1.8692
 4240TIP3   OH234210   0.926   5.013  16.621  0.6784 -0.3253  0.0085
 4240TIP3    H134211   0.970   4.930  16.603  1.2443 -0.1283  0.4915
 4240TIP3    H234212   0.844   4.987  16.663  0.8635 -0.6441  0.1797
 4241TIP3   OH234213   3.260   3.506   6.398  0.6579 -0.2012  0.0292
 4241TIP3    H134214   3.208   3.522   6.477  0.6966 -0.8316  0.1879
 4241TIP3    H234215   3.316   3.583   6.391  1.2919 -0.5409  1.1365
 4242TIP3   OH234216   0.717   0.424  11.264 -0.2977  0.0398 -0.0150
 4242TIP3    H134217   0.631   0.391  11.240 -0.4524 -0.3961  1.0797
 4242TIP3    H234218   0.752   0.357  11.324 -0.1173  1.2869  1.3023
 4243TIP3   OH234219   1.494   1.229  13.585 -0.2654 -0.4927  0.6662
 4243TIP3    H134220   1.447   1.308  13.614 -0.4059 -0.1736 -0.4235
 4243TIP3    H234221   1.586   1.250  13.599 -0.3856 -0.7894  1.9906
 4244TIP3   OH234222   5.732   2.951   4.546 -0.1571  0.5550 -0.2711
 4244TIP3    H134223   5.679   3.001   4.608  0.8123 -0.6411  1.5388
 4244TIP3    H234224   5.671   2.886   4.509  0.0895 -1.0412  2.0506
 4245TIP3   OH234225   4.174   1.585  13.586  0.3662  0.6439 -0.3115
 4245TIP3    H134226   4.197   1.677  13.604  0.4213  0.8329 -1.2802
 4245TIP3    H234227   4.117   1.560  13.658  0.3521  1.4512 -0.0324
 4246TIP3   OH234228   5.145   1.854  16.724 -0.3447  0.1300  0.0754
 4246TIP3    H134229   5.162   1.904  16.804  1.3805 -1.7613  0.9201
 4246TIP3    H234230   5.050   1.842  16.723 -0.4158  0.4747  1.6529
 4247TIP3   OH234231   3.805   6.584  11.650  0.4767 -0.0706  0.4459
 4247TIP3    H134232   3.815   6.581  11.745  1.0832  0.8907  0.4266
 4247TIP3    H234233   3.885   6.627  11.620 -0.1289  0.4513 -0.4189
 4248TIP3   OH234234   6.728   3.082  14.040  0.3801  0.5796 -0.3110
 4248TIP3    H134235   6.822   3.068  14.048  0.5286  1.8104  0.2079
 4248TIP3    H234236   6.688   3.011  14.090  1.0774  1.4211  1.4859
 4249TIP3   OH234237   1.317   1.141   5.625  0.0144 -0.0720 -0.7847
 4249TIP3    H134238   1.263   1.095   5.689  0.8883 -1.1570 -0.8266
 4249TIP3    H234239   1.293   1.103   5.540  0.5852 -0.3050 -0.8438
 4250TIP3   OH234240   0.278   6.641   5.726  0.3733 -0.1550 -0.2953
 4250TIP3    H134241   0.275   6.546   5.728 -2.0481 -0.0948  0.4409
 4250TIP3    H234242   0.299   6.663   5.635  0.1569 -1.3867 -0.6473
 4251TIP3   OH234243   2.845   6.244   2.693  0.0842 -0.0794  0.7520
 4251TIP3    H134244   2.923   6.202   2.655 -0.8342 -0.4698 -0.7383
 4251TIP3    H234245   2.824   6.189   2.769  0.5216 -0.7158  0.4234
 4252TIP3   OH234246   1.022   4.614   1.837 -0.2159  0.4907 -0.2232
 4252TIP3    H134247   1.100   4.657   1.802  0.4486 -0.5532 -0.0333
 4252TIP3    H234248   0.998   4.666   1.914  0.6245  0.4729  0.0525
 4253TIP3   OH234249   0.383   1.215   5.329  0.1829 -0.7015 -0.4580
 4253TIP3    H134250   0.386   1.121   5.351 -0.0474 -0.5162  0.3641
 4253TIP3    H234251   0.471   1.247   5.351 -0.3953 -0.2801  1.2523
 4254TIP3   OH234252   6.254   5.283  13.357 -0.1499 -0.0739  0.5562
 4254TIP3    H134253   6.313   5.349  13.324  1.6026 -1.3825  1.0129
 4254TIP3    H234254   6.280   5.270  13.448 -0.4786 -1.3867  0.4752
 4255TIP3   OH234255   6.452   4.154   5.407  0.1977  0.4275  0.0786
 4255TIP3    H134256   6.372   4.116   5.443 -0.6762  0.9571 -1.2630
 4255TIP3    H234257   6.522   4.098   5.439 -0.6734  0.1467  1.5404
 4256TIP3   OH234258   2.769   0.250  14.808  0.2350  0.2708 -0.0399
 4256TIP3    H134259   2.730   0.304  14.876 -0.3964 -2.2984  1.7196
 4256TIP3    H234260   2.698   0.233  14.746  0.6585  2.1119 -1.0757
 4257TIP3   OH234261   6.265   0.046  15.952 -0.3262  0.2013  0.1461
 4257TIP3    H134262   6.291  -0.043  15.928  3.2137  0.4300  2.7663
 4257TIP3    H234263   6.257   0.044  16.047  1.0783  2.9520  0.3960
 4258TIP3   OH234264   2.788   0.007   3.274  0.0459 -0.1032 -0.3972
 4258TIP3    H134265   2.822   0.081   3.223 -0.6354  0.3312 -0.2440
 4258TIP3    H234266   2.832   0.014   3.359 -0.8097  0.7892 -0.0047
 4259TIP3   OH234267   2.799   0.665  13.037 -0.4438 -0.1648  0.0244
 4259TIP3    H134268   2.721   0.611  13.050  0.1809 -1.0601  0.1418
 4259TIP3    H234269   2.854   0.613  12.978  0.5932 -0.1042  0.9099
 4260TIP3   OH234270   3.244   0.207  15.248 -0.4992 -0.4491  0.4010
 4260TIP3    H134271   3.270   0.155  15.172  0.7828  0.2381  0.3673
 4260TIP3    H234272   3.155   0.177  15.267 -0.9754 -0.3730 -1.5868
 4261TIP3   OH234273   1.876   6.064  10.431  0.0969  0.1576  0.2492
 4261TIP3    H134274   1.967   6.062  10.401  0.5410  0.6294  1.5163
 4261TIP3    H234275   1.859   5.974  10.460  0.0494 -0.0165 -0.3227
 4262TIP3   OH234276   0.908   3.506   3.692  0.4752  0.0453  0.3513
 4262TIP3    H134277   0.929   3.586   3.741  0.5494 -0.0297  0.4434
 4262TIP3    H234278   0.823   3.524   3.652  0.2981  0.0128  0.7146
 4263TIP3   OH234279   5.299   5.341   1.414 -0.2689 -0.1420  0.8142
 4263TIP3    H134280   5.278   5.379   1.329 -1.4750 -0.9587  0.7489
 4263TIP3    H234281   5.347   5.410   1.460  0.4286  0.2761 -0.5431
 4264TIP3   OH234282   6.592   3.107   5.016 -0.4450 -0.3173  0.5888
 4264TIP3    H134283   6.664   3.143   5.066  0.6828 -1.0296 -0.4843
 4264TIP3    H234284   6.629   3.091   4.929 -1.9234 -0.5769 -0.0068
 4265TIP3   OH234285   4.494   6.135  12.595  0.3711  0.3938  0.7137
 4265TIP3    H134286   4.453   6.115  12.679  1.9101  0.2118  1.4316
 4265TIP3    H234287   4.480   6.057  12.542  1.9299 -0.6540  1.7993
 4266TIP3   OH234288   2.628   3.838   3.965 -0.0685  0.4931 -0.3517
 4266TIP3    H134289   2.673   3.914   4.004  0.0058  0.9254 -1.2614
 4266TIP3    H234290   2.697   3.772   3.956 -0.3499 -0.0620  1.3926
 4267TIP3   OH234291   1.762   3.077   5.220  0.2224  0.3901  0.1032
 4267TIP3    H134292   1.683   3.126   5.199 -1.9463 -2.5455  1.1313
 4267TIP3    H234293   1.770   3.083   5.315 -1.0259 -2.5660  0.4381
 4268TIP3   OH234294   3.370   1.769   4.232  0.9989  0.8710  0.2728
 4268TIP3    H134295   3.361   1.854   4.274  0.1844  0.3041  1.2688
 4268TIP3    H234296   3.281   1.733   4.230  1.2379  0.3097 -0.7053
 4269TIP3   OH234297   0.163   1.948  13.176  0.4713  0.4135  0.7044
 4269TIP3    H134298   0.240   1.891  13.173  0.0695 -0.2080  1.6689
 4269TIP3    H234299   0.190   2.027  13.130  0.5945 -1.0602 -1.8586
 4270TIP3   OH234300   6.480   1.170  12.880  0.3834  0.5160 -0.3484
 4270TIP3    H134301   6.478   1.229  12.955  0.6946  0.4885 -0.3198
 4270TIP3    H234302   6.564   1.125  12.886  0.4717  0.6125 -0.7893
 4271TIP3   OH234303   1.886   1.526  11.320 -0.4376 -0.0932  0.4778
 4271TIP3    H134304   1.975   1.539  11.355 -0.2386 -1.1488  0.3738
 4271TIP3    H234305   1.848   1.614  11.320  0.9315  0.5196 -0.3729
 4272TIP3   OH234306   3.889   1.436  16.688 -0.3696 -0.1515  0.5166
 4272TIP3    H134307   3.836   1.516  16.678  0.4972  0.6594  2.3160
 4272TIP3    H234308   3.961   1.462  16.745  0.2999 -2.0565  0.5536
 4273TIP3   OH234309   4.056   2.222  14.673 -0.5247 -0.1424  0.0525
 4273TIP3    H134310   4.079   2.280  14.601  2.2825 -0.9594  0.2552
 4273TIP3    H234311   3.976   2.261  14.710 -0.0664  2.1996 -1.3291
 4274TIP3   OH234312   5.981   2.775  11.652  0.2117 -0.3108  0.2097
 4274TIP3    H134313   5.959   2.756  11.743  2.2073 -2.0216  0.3734
 4274TIP3    H234314   5.915   2.728  11.601 -1.0919  0.8922  0.7392
 4275TIP3   OH234315   5.465   2.999   4.834  0.1645  0.0560 -0.3875
 4275TIP3    H134316   5.422   3.073   4.878 -1.6924 -2.0897  1.5428
 4275TIP3    H234317   5.415   2.988   4.753 -1.1595 -0.5926  0.4869
 4276TIP3   OH234318   4.679   6.416   2.180 -0.2118 -0.0959  0.5109
 4276TIP3    H134319   4.646   6.448   2.096  0.3963 -1.0927 -0.1035
 4276TIP3    H234320   4.600   6.406   2.234 -0.6470  0.0962 -0.0846
 4277TIP3   OH234321   3.145   6.767  12.884 -0.0737 -0.5665  0.2111
 4277TIP3    H134322   3.119   6.841  12.830  0.3281 -0.2921  0.3862
 4277TIP3    H234323   3.163   6.697  12.822  1.5520  0.1033 -0.1038
 4278TIP3   OH234324   5.841   5.733   3.802  0.0838 -0.3839 -0.2894
 4278TIP3    H134325   5.772   5.668   3.813 -0.3026  0.0126 -0.3374
 4278TIP3    H234326   5.921   5.682   3.788  0.3356 -0.8951  2.7801
 4279TIP3   OH234327   4.951   4.560  14.019  0.5134  0.3916 -0.1270
 4279TIP3    H134328   4.943   4.651  13.991 -0.0710  0.4455  0.2055
 4279TIP3    H234329   4.872   4.517  13.987  0.2181  0.2715  0.7351
 4280TIP3   OH234330   4.853   0.950   4.995 -0.2138 -0.3985  0.2608
 4280TIP3    H134331   4.885   0.931   4.907  0.6746  1.0186  0.2622
 4280TIP3    H234332   4.766   0.988   4.981 -1.1940 -2.6313  0.1587
 4281TIP3   OH234333   1.096   5.114  16.985  0.6014 -0.0775  0.3263
 4281TIP3    H134334   1.162   5.106  16.915  1.4472  0.6887  1.0241
 4281TIP3    H234335   1.012   5.116  16.939  1.0488 -1.2576 -0.5602
 4282TIP3   OH234336   6.169   3.005  14.174 -0.2616 -0.4096  0.5837
 4282TIP3    H134337   6.081   3.012  14.137  0.2184 -0.2435 -0.5412
 4282TIP3    H234338   6.198   3.095  14.186  0.7821 -0.4376 -1.5456
 4283TIP3   OH234339   0.112   4.118  15.165 -0.2360 -0.5307 -0.6194
 4283TIP3    H134340   0.158   4.154  15.088  1.6971 -1.9493 -0.1600
 4283TIP3    H234341   0.127   4.024  15.160 -0.7436 -0.7101  1.0946
 4284TIP3   OH234342   6.422   1.998  11.827  0.0019  0.6650 -0.3158
 4284TIP3    H134343   6.389   2.087  11.832  0.1488  0.6687  1.0588
 4284TIP3    H234344   6.417   1.966  11.918 -0.0446 -0.7143 -0.7874
 4285TIP3   OH234345   2.967   4.929   3.075  0.1172 -0.3284  0.1731
 4285TIP3    H134346   2.956   4.914   3.169 -0.6433  3.8314  0.8707
 4285TIP3    H234347   2.902   4.874   3.033 -0.3825 -1.3046  2.1761
 4286TIP3   OH234348   6.466   4.161  11.845 -0.3292 -0.1004  0.4461
 4286TIP3    H134349   6.458   4.123  11.758 -1.4705 -0.6866  0.7948
 4286TIP3    H234350   6.439   4.090  11.905 -0.8870  0.7263  1.1868
 4287TIP3   OH234351   0.293   1.187   4.163  0.2869 -0.0138 -1.0851
 4287TIP3    H134352   0.215   1.150   4.122 -0.2709  1.6974 -1.6009
 4287TIP3    H234353   0.336   1.236   4.093  0.3260  1.3860 -0.0998
 4288TIP3   OH234354   4.443   3.604  16.482 -0.1103 -0.3156  0.3437
 4288TIP3    H134355   4.469   3.552  16.559  1.3205 -1.1781 -0.7127
 4288TIP3    H234356   4.357   3.639  16.506 -0.1996 -1.5177  1.8907
 4289TIP3   OH234357   4.441   1.020   1.515 -0.1649  0.7294 -0.5192
 4289TIP3    H134358   4.375   0.965   1.473 -2.5975  1.1129  2.6182
 4289TIP3    H234359   4.496   0.958   1.562 -0.8348  0.7133  0.2503
 4290TIP3   OH234360   4.907   2.557  12.873 -0.0065  0.5360  0.2923
 4290TIP3    H134361   4.885   2.511  12.954  0.6149  0.4999  0.4428
 4290TIP3    H234362   4.960   2.495  12.823 -1.0372  0.2741 -0.4901
 4291TIP3   OH234363   1.268   6.212   5.600  0.5814 -0.0392  0.5915
 4291TIP3    H134364   1.326   6.284   5.624  1.5092 -1.2910  2.2279
 4291TIP3    H234365   1.208   6.204   5.674  0.3907 -0.8506  0.3489
 4292TIP3   OH234366   4.560   1.040  14.141  0.2234  0.1719 -0.0038
 4292TIP3    H134367   4.536   1.127  14.111 -0.3322 -0.4380 -1.3517
 4292TIP3    H234368   4.646   1.024  14.103 -0.1500 -0.2994 -0.6519
 4293TIP3   OH234369   1.453   5.309  16.734 -0.3854 -0.3902  0.4738
 4293TIP3    H134370   1.548   5.318  16.741 -0.5800  0.4537  2.4430
 4293TIP3    H234371   1.434   5.328  16.643  1.2784  0.0470  0.1965
 4294TIP3   OH234372   3.671   0.398  15.493 -0.3054  0.2744  0.1587
 4294TIP3    H134373   3.595   0.456  15.495  0.3505  1.1604 -0.2644
 4294TIP3    H234374   3.733   0.436  15.555  0.6559  0.7858 -1.0833
 4295TIP3   OH234375   4.029   0.540   0.502  0.3627  0.2894 -0.1459
 4295TIP3    H134376   4.091   0.611   0.489  1.0034 -0.4501 -1.2120
 4295TIP3    H234377   4.036   0.487   0.423  1.4227 -2.1220  1.5143
 4296TIP3   OH234378   0.236   2.073  11.506  0.0874  0.2683  0.5717
 4296TIP3    H134379   0.258   2.142  11.568  0.7934  0.2174  0.3845
 4296TIP3    H234380   0.299   2.003  11.525 -1.3146 -0.7635  1.4920
 4297TIP3   OH234381   0.949   2.023   1.796 -0.0434 -0.1044 -0.3197
 4297TIP3    H134382   0.977   2.108   1.830 -0.8464 -0.0967  0.3343
 4297TIP3    H234383   1.020   1.997   1.736  0.0801  1.1552 -0.7554
 4298TIP3   OH234384   2.817   6.441  16.067 -0.0110 -0.3192  0.0511
 4298TIP3    H134385   2.767   6.367  16.102  0.3942 -0.2623  0.7730
 4298TIP3    H234386   2.789   6.448  15.976  2.2428 -3.3958 -0.9734
 4299TIP3   OH234387   2.019   3.158   5.120  0.6157  0.0580 -0.4126
 4299TIP3    H134388   1.930   3.163   5.154  0.5153  1.0924 -0.8308
 4299TIP3    H234389   2.066   3.106   5.186  0.1628  1.1232  0.7707
 4300TIP3   OH234390   2.355   5.550   0.096  0.1622 -0.1662  0.0489
 4300TIP3    H134391   2.284   5.490   0.074  0.0907 -0.0661  0.0083
 4300TIP3    H234392   2.312   5.632   0.117  0.2342 -0.2342  0.4850
 4301TIP3   OH234393   2.748   0.569   4.959 -0.3093  0.0282  0.4501
 4301TIP3    H134394   2.793   0.502   5.012  0.9442 -1.3362 -2.2587
 4301TIP3    H234395   2.772   0.651   5.001  3.6346 -0.7616 -0.0034
 4302TIP3   OH234396   6.662   5.768   3.327  0.0512  0.8255  0.0039
 4302TIP3    H134397   6.696   5.847   3.369  2.8043 -0.2294 -0.1381
 4302TIP3    H234398   6.668   5.701   3.394  0.6286  0.0650 -0.7912
 4303TIP3   OH234399   3.711   6.160   3.918  0.3003 -0.5735  1.1101
 4303TIP3    H134400   3.722   6.090   3.853  1.9303 -1.5924  2.4301
 4303TIP3    H234401   3.685   6.114   3.998 -1.1711  0.6198  1.3381
 4304TIP3   OH234402   1.256   3.005   5.076  0.7540 -0.2685  0.2621
 4304TIP3    H134403   1.313   2.933   5.049 -0.4188 -1.1404  0.0640
 4304TIP3    H234404   1.201   3.021   4.999 -1.3392 -1.4994  1.4463
 4305TIP3   OH234405   6.656   4.203   2.562  0.2853  0.0551 -0.7837
 4305TIP3    H134406   6.620   4.267   2.499 -0.8451 -1.1672 -1.4169
 4305TIP3    H234407   6.579   4.163   2.601  0.9702 -1.5661 -1.0635
 4306TIP3   OH234408   0.293   4.296  12.430  0.7068  0.1203 -0.6887
 4306TIP3    H134409   0.243   4.215  12.434 -1.0352  1.1522 -1.2431
 4306TIP3    H234410   0.352   4.291  12.506 -0.6992 -0.8069  0.3662
 4307TIP3   OH234411   0.334   5.515   3.601 -0.0408 -0.2154  0.5142
 4307TIP3    H134412   0.419   5.507   3.558  0.2864  0.3328  1.0534
 4307TIP3    H234413   0.291   5.587   3.555  1.0199  1.5820  2.2402
 4308TIP3   OH234414   4.888   3.180  15.448 -0.0989 -0.4583  0.2308
 4308TIP3    H134415   4.823   3.176  15.378  1.5298  0.0170 -1.3664
 4308TIP3    H234416   4.902   3.088  15.473 -0.1192 -0.7087 -0.6474
 4309TIP3   OH234417   2.702   1.421   3.117 -0.1925  0.0751  0.4210
 4309TIP3    H134418   2.733   1.510   3.138  1.8395 -0.4607 -0.1828
 4309TIP3    H234419   2.759   1.364   3.168  0.1060 -0.9685 -1.0562
 4310TIP3   OH234420   4.081   4.669  14.346 -0.5399 -0.0604  0.0461
 4310TIP3    H134421   4.106   4.598  14.286  0.5119  0.9527 -0.7493
 4310TIP3    H234422   4.013   4.631  14.401 -0.4907 -1.4719 -0.8314
 4311TIP3   OH234423   6.779   2.040  11.635 -0.8067 -0.4497  0.0935
 4311TIP3    H134424   6.856   2.008  11.589 -1.2716 -1.8846  0.2762
 4311TIP3    H234425   6.716   1.968  11.630 -1.8760  0.4319  0.5537
 4312TIP3   OH234426   3.638   0.274  16.153  0.0796 -0.0889  0.6326
 4312TIP3    H134427   3.608   0.328  16.080  1.3186  0.8956  0.8226
 4312TIP3    H234428   3.618   0.326  16.231  1.0970  0.0174  0.8296
 4313TIP3   OH234429   6.417   2.524   3.732 -0.2800 -0.1909  0.1472
 4313TIP3    H134430   6.417   2.512   3.637  0.3368 -2.4543  0.4022
 4313TIP3    H234431   6.510   2.523   3.756 -0.3806  1.5435  0.6565
 4314TIP3   OH234432   4.812   3.058   2.166 -0.3858 -0.1436 -0.4731
 4314TIP3    H134433   4.731   3.010   2.183  0.1557 -0.4055  1.5428
 4314TIP3    H234434   4.790   3.149   2.186  0.1221 -0.3839  1.2576
 4315TIP3   OH234435   3.723   1.158   4.953 -0.1476 -0.3932  0.0999
 4315TIP3    H134436   3.691   1.117   4.872 -1.4515  2.1667 -0.7322
 4315TIP3    H234437   3.816   1.136   4.957  0.4022  1.1307 -3.1835
 4316TIP3   OH234438   4.233   0.229  10.905  0.0522 -0.3534  0.1070
 4316TIP3    H134439   4.250   0.318  10.934 -4.1316  1.5444 -2.7341
 4316TIP3    H234440   4.194   0.186  10.981 -0.1065  0.9762  0.7911
 4317TIP3   OH234441   3.644   3.794  17.132 -0.0917  0.0243  0.2659
 4317TIP3    H134442   3.612   3.704  17.121 -1.3686  0.1062  3.0050
 4317TIP3    H234443   3.728   3.785  17.176 -0.6025  0.1928  1.2882
 4318TIP3   OH234444   1.689   0.663   4.389  0.4303  0.4121 -0.0153
 4318TIP3    H134445   1.749   0.591   4.371 -1.3710 -0.7755 -1.4507
 4318TIP3    H234446   1.699   0.721   4.313 -0.3276  0.1257 -0.3407
 4319TIP3   OH234447   6.776   6.783   4.636 -0.3421 -0.0083  0.3785
 4319TIP3    H134448   6.782   6.876   4.617  3.4256 -0.3155 -0.3433
 4319TIP3    H234449   6.754   6.778   4.729  2.2820  1.6582  1.1391
 4320TIP3   OH234450   3.859   4.731   3.417  0.2805 -0.3717  0.0091
 4320TIP3    H134451   3.818   4.649   3.445  0.1556  0.1748  1.5131
 4320TIP3    H234452   3.801   4.764   3.348 -1.5207  0.0714  1.6598
 4321TIP3   OH234453   1.650   3.859   3.274  0.1550 -0.1003  0.1504
 4321TIP3    H134454   1.719   3.857   3.208  1.1804  0.3856  1.1949
 4321TIP3    H234455   1.591   3.929   3.246 -0.3293 -1.0025 -1.1396
 4322TIP3   OH234456   5.351   0.651   2.636  0.4694  0.2658 -0.3179
 4322TIP3    H134457   5.396   0.660   2.552  0.5182  1.9759 -0.1347
 4322TIP3    H234458   5.349   0.557   2.653  3.7626  0.1222 -0.4387
 4323TIP3   OH234459   2.941   5.757  16.488 -0.4116  1.2989  0.2004
 4323TIP3    H134460   3.012   5.814  16.457 -0.0533  1.4567  1.2712
 4323TIP3    H234461   2.907   5.801  16.566  0.8863 -0.6722  1.9570
 4324TIP3   OH234462   6.215   0.313   5.748 -0.0330 -0.1087  0.4036
 4324TIP3    H134463   6.197   0.221   5.732 -0.5137 -0.1824  1.3021
 4324TIP3    H234464   6.166   0.333   5.829 -0.3048  1.0391 -0.0349
 4325TIP3   OH234465   1.457   3.315   0.832 -0.1247  0.1222  0.6061
 4325TIP3    H134466   1.399   3.344   0.762  0.0939 -2.7249 -0.8407
 4325TIP3    H234467   1.542   3.353   0.811 -0.2753  0.0182 -0.1915
 4326TIP3   OH234468   1.134   2.079   4.934  0.5492 -0.4136  0.0535
 4326TIP3    H134469   1.067   2.042   4.877 -1.1659  2.0922  0.3621
 4326TIP3    H234470   1.151   2.165   4.897  2.5078 -0.4264  0.8853
 4327TIP3   OH234471   2.654   0.644   5.845 -0.0028 -0.2373  0.4293
 4327TIP3    H134472   2.734   0.697   5.848 -0.1945  0.3998 -3.1183
 4327TIP3    H234473   2.686   0.555   5.829  0.0979 -0.4157  1.5926
 4328TIP3   OH234474   4.856   2.989  15.709  0.4384  0.2263  0.1817
 4328TIP3    H134475   4.802   2.920  15.671 -0.9902  1.2257  0.3618
 4328TIP3    H234476   4.794   3.048  15.751  1.8482  0.0121  2.6978
 4329TIP3   OH234477   1.426   3.798  10.813 -0.0791  0.4407  0.0266
 4329TIP3    H134478   1.381   3.773  10.732 -0.0247  0.0239  0.1219
 4329TIP3    H234479   1.458   3.886  10.797 -0.3262  0.4726 -0.2985
 4330TIP3   OH234480   4.719   3.663  10.949 -0.4818  0.3031  1.0003
 4330TIP3    H134481   4.810   3.654  10.978 -0.5487 -3.2681  0.3771
 4330TIP3    H234482   4.726   3.694  10.858  0.2565 -1.9741  0.2337
 4331TIP3   OH234483   5.998   0.810  11.466 -0.1843 -0.6009  0.2313
 4331TIP3    H134484   6.077   0.853  11.498  0.2902  0.3359 -2.1207
 4331TIP3    H234485   5.991   0.836  11.374 -3.1862 -0.7060  0.3571
 4332TIP3   OH234486   2.729   6.207  16.956 -0.7599  0.0629  0.0111
 4332TIP3    H134487   2.825   6.204  16.952 -0.8331 -1.9535 -0.5026
 4332TIP3    H234488   2.710   6.244  17.042  0.4816  1.0550 -0.1219
 4333TIP3   OH234489   3.094   3.588   3.345  0.2614 -0.4085  0.1688
 4333TIP3    H134490   3.099   3.494   3.326 -0.3615 -0.2388 -0.8977
 4333TIP3    H234491   3.161   3.603   3.412 -0.8152 -1.9218  1.6097
 4334TIP3   OH234492   6.071   1.573  13.391 -0.0146 -0.4237  0.4907
 4334TIP3    H134493   6.057   1.480  13.407 -2.6315 -0.2850 -0.5870
 4334TIP3    H234494   6.063   1.614  13.477 -1.7177 -0.9199  0.5829
 4335TIP3   OH234495   1.070   3.406  13.543  0.5574  0.3459  0.1924
 4335TIP3    H134496   1.087   3.487  13.494  0.5432  0.3408  0.1799
 4335TIP3    H234497   1.056   3.436  13.633 -1.0551  0.5260 -0.0887
 4336TIP3   OH234498   3.389   1.383   6.005  0.5623  0.2984  0.5903
 4336TIP3    H134499   3.437   1.302   6.018 -0.4772 -0.0994  2.1206
 4336TIP3    H234500   3.324   1.384   6.076 -1.5195  0.9254 -1.2539
 4337TIP3   OH234501   2.539   5.996   5.752 -0.0698  0.3897  0.6493
 4337TIP3    H134502   2.631   5.994   5.728 -0.3471  2.2598 -0.7051
 4337TIP3    H234503   2.532   6.068   5.815 -0.6280  0.3512  0.6399
 4338TIP3   OH234504   6.338   6.576   4.464 -0.0535 -0.4467 -0.1706
 4338TIP3    H134505   6.402   6.558   4.396 -1.3518  0.2758 -1.6198
 4338TIP3    H234506   6.343   6.670   4.478 -1.1390 -0.2946 -0.6870
 4339TIP3   OH234507   2.141   4.133   1.697  0.4652  0.2693  0.0468
 4339TIP3    H134508   2.165   4.221   1.667  0.0485  0.1914 -0.5213
 4339TIP3    H234509   2.072   4.147   1.762  0.2944  0.3545 -0.1526
 4340TIP3   OH234510   5.612   0.396  11.950  0.5727 -0.4181 -0.1093
 4340TIP3    H134511   5.517   0.406  11.955  0.7956  1.9594  0.1643
 4340TIP3    H234512   5.626   0.303  11.930 -1.8834 -0.3894 -2.2670
 4341TIP3   OH234513   5.439   2.465  12.011  0.2349 -0.2748 -0.2928
 4341TIP3    H134514   5.375   2.440  12.077  0.0008 -1.0401 -0.8113
 4341TIP3    H234515   5.391   2.466  11.929  1.0415 -1.5698 -0.7946
 4342TIP3   OH234516   4.912   2.657  11.392  1.0624  0.2485 -0.5674
 4342TIP3    H134517   4.979   2.592  11.414  0.7352 -0.2159 -0.9161
 4342TIP3    H234518   4.879   2.686  11.476  2.5709  1.4122 -0.3556
 4343TIP3   OH234519   1.437   5.954   3.271 -0.4113  0.1968  0.0125
 4343TIP3    H134520   1.342   5.957   3.282 -0.3508 -1.2626  1.1965
 4343TIP3    H234521   1.471   5.938   3.360  0.9654  1.2080 -0.3214
 4344TIP3   OH234522   6.711   4.499   1.168  0.3711  0.1122  0.2723
 4344TIP3    H134523   6.742   4.588   1.181  1.1152 -0.3314  1.6456
 4344TIP3    H234524   6.784   4.444   1.197 -0.0289 -0.9365 -0.7029
 4345TIP3   OH234525   6.687   6.361   1.581  0.3573 -0.8182  0.3724
 4345TIP3    H134526   6.751   6.425   1.610 -1.1704  0.5239  0.8314
 4345TIP3    H234527   6.703   6.284   1.635  0.0113  0.3505  2.1625
 4346TIP3   OH234528   6.218   3.411   5.358 -0.4367 -0.4410  0.4837
 4346TIP3    H134529   6.312   3.415   5.341 -0.0358  0.1081  2.6351
 4346TIP3    H234530   6.186   3.342   5.299  0.7692  1.4260 -2.4513
 4347TIP3   OH234531   4.300   2.466  12.946 -0.3516  0.1313  0.0278
 4347TIP3    H134532   4.327   2.391  12.893 -2.3947 -1.5194  1.2482
 4347TIP3    H234533   4.365   2.472  13.015 -1.3329 -1.9179  1.1880
 4348TIP3   OH234534   2.988   5.003  15.645  0.0088  0.2934 -0.2733
 4348TIP3    H134535   3.030   4.967  15.723  0.8746 -0.4463 -1.0600
 4348TIP3    H234536   2.944   4.929  15.605  1.1375  0.2595 -1.4848
 4349TIP3   OH234537   6.392   3.857   3.747  0.5811  0.5924  0.1031
 4349TIP3    H134538   6.412   3.950   3.753  1.6758  0.2798  1.5474
 4349TIP3    H234539   6.338   3.849   3.668  0.8865  2.3674 -0.3029
 4350TIP3   OH234540   5.669   3.748   4.859 -0.6271 -0.1206 -0.4103
 4350TIP3    H134541   5.604   3.777   4.923  0.3312 -1.6608  1.3053
 4350TIP3    H234542   5.637   3.664   4.828 -0.2426 -0.1520 -0.7276
 4351TIP3   OH234543   1.507   4.379   1.155 -0.5239 -0.2424  0.7720
 4351TIP3    H134544   1.558   4.302   1.180  0.4182 -0.1918 -0.9334
 4351TIP3    H234545   1.569   4.451   1.157 -0.7074 -0.0355 -0.4825
 4352TIP3   OH234546   2.179   1.874   5.918 -0.7966 -0.3652  0.5679
 4352TIP3    H134547   2.232   1.835   5.988 -0.9669  2.1563  2.1618
 4352TIP3    H234548   2.213   1.834   5.837  0.2703 -2.3566  1.9666
 4353TIP3   OH234549   4.192   6.716   3.704  0.4797  0.5595 -0.1259
 4353TIP3    H134550   4.229   6.732   3.617  1.4939 -0.9603  0.0107
 4353TIP3    H234551   4.253   6.655   3.745 -1.1318 -0.4112  0.8628
 4354TIP3   OH234552   1.427   2.416   3.106 -0.8140  0.2434 -0.2370
 4354TIP3    H134553   1.401   2.326   3.123 -2.4407  1.2439  3.2124
 4354TIP3    H234554   1.522   2.416   3.112 -0.8072 -1.2532 -0.2595
 4355TIP3   OH234555   0.700   0.520  11.882 -0.3628 -0.5536  0.0954
 4355TIP3    H134556   0.730   0.435  11.914  0.1773 -0.9790 -1.4505
 4355TIP3    H234557   0.650   0.499  11.803 -1.2266  0.4834  0.3607
 4356TIP3   OH234558   6.422   6.718   0.822  0.5473  0.2181  0.2353
 4356TIP3    H134559   6.490   6.651   0.824 -1.5470 -2.1116 -1.7734
 4356TIP3    H234560   6.356   6.687   0.884 -1.1051 -0.4485 -1.7613
 4357TIP3   OH234561   5.391   2.123  11.528 -0.3642 -0.2661 -0.2789
 4357TIP3    H134562   5.421   2.033  11.516 -2.6079 -0.7805 -2.2129
 4357TIP3    H234563   5.365   2.127  11.620  2.5489 -0.7005  0.6146
 4358TIP3   OH234564   6.568   4.264   3.387 -0.3248  0.4808 -0.2362
 4358TIP3    H134565   6.572   4.359   3.374  0.4582  0.4682 -0.1414
 4358TIP3    H234566   6.635   4.229   3.328  0.0988  0.0732  0.4815
 4359TIP3   OH234567   2.512   0.314  11.945 -0.9605 -0.1272 -0.0456
 4359TIP3    H134568   2.515   0.223  11.976  1.6862  0.2349  0.9153
 4359TIP3    H234569   2.423   0.343  11.964 -1.1931 -1.8389  1.6577
 4360TIP3   OH234570   4.222   0.072  10.668  0.6349 -0.0877 -0.2092
 4360TIP3    H134571   4.143   0.020  10.681  0.1581  0.0937 -2.2771
 4360TIP3    H234572   4.242   0.107  10.754 -0.6826 -1.3522  0.6308
 4361TIP3   OH234573   5.336   6.525  10.630  0.7181 -0.6048 -0.5794
 4361TIP3    H134574   5.340   6.595  10.564  1.0317  0.7439  0.8280
 4361TIP3    H234575   5.245   6.496  10.629  0.1420  1.1142  0.0861
 4362TIP3   OH234576   0.598   2.408  14.547 -0.5740 -0.3020  0.1644
 4362TIP3    H134577   0.593   2.481  14.486 -1.1782 -0.2750  0.2443
 4362TIP3    H234578   0.507   2.380  14.559 -0.5172  0.0093  1.4141
 4363TIP3   OH234579   4.726   0.839  10.770 -0.2604 -0.1005 -0.1947
 4363TIP3    H134580   4.782   0.858  10.694 -1.0715 -0.5784 -0.9175
 4363TIP3    H234581   4.671   0.767  10.741 -1.2430  0.3572  0.5235
 4364TIP3   OH234582   5.142   4.365  16.993  0.1797 -0.1865  0.1691
 4364TIP3    H134583   5.074   4.345  17.058  0.5698  0.2327  0.7143
 4364TIP3    H234584   5.136   4.294  16.929 -0.0249 -0.7583  0.8160
 4365TIP3   OH234585   4.976   6.719   0.281  0.0560 -0.1151 -0.3373
 4365TIP3    H134586   5.001   6.773   0.207 -0.4104 -0.8163 -1.0176
 4365TIP3    H234587   5.019   6.635   0.265  1.6610  0.3875  1.2627
 4366TIP3   OH234588   2.675   1.829   5.519  0.3552 -0.1254  0.0978
 4366TIP3    H134589   2.733   1.891   5.563  0.8391 -1.3724  1.2515
 4366TIP3    H234590   2.726   1.797   5.445  1.3833 -1.6270  1.4195
 4367TIP3   OH234591   5.848   3.801   0.563 -0.2664  0.2120 -0.1533
 4367TIP3    H134592   5.925   3.773   0.514  2.0971  3.1477  1.6813
 4367TIP3    H234593   5.785   3.827   0.496  0.8124 -1.0168 -1.6786
 4368TIP3   OH234594   5.840   1.583   6.185  0.0225  0.1323  0.0978
 4368TIP3    H134595   5.864   1.524   6.256 -0.4582 -1.0745 -0.7281
 4368TIP3    H234596   5.909   1.649   6.184  1.6695 -1.5668 -0.2815
 4369TIP3   OH234597   4.429   5.219   0.246 -0.0170  0.3227  0.7275
 4369TIP3    H134598   4.456   5.137   0.205 -0.6806  0.5054 -0.0733
 4369TIP3    H234599   4.474   5.287   0.196 -0.0228  0.4923  0.9497
 4370TIP3   OH234600   4.500   1.810   5.574 -0.4805  0.2538 -0.0287
 4370TIP3    H134601   4.474   1.885   5.520  1.8571  2.9736  2.4762
 4370TIP3    H234602   4.418   1.778   5.611 -1.6151  1.1127 -1.7381
 4371TIP3   OH234603   0.858   5.853   3.222 -0.1200  0.1797 -0.3468
 4371TIP3    H134604   0.771   5.874   3.257 -0.2246  1.5140 -1.3761
 4371TIP3    H234605   0.860   5.895   3.136  1.4519 -0.0870 -0.4488
 4372TIP3   OH234606   1.900   2.898   1.490 -0.2348 -0.2155  0.4456
 4372TIP3    H134607   1.867   2.959   1.555  1.4254 -0.4761  1.5890
 4372TIP3    H234608   1.991   2.881   1.517  0.4443 -0.4723 -1.8321
 4373TIP3   OH234609   4.212   5.674  12.697  0.5193  0.7925 -0.2794
 4373TIP3    H134610   4.159   5.680  12.777 -0.0069 -0.3619 -0.5298
 4373TIP3    H234611   4.301   5.660  12.729  0.4135  0.9993  0.1168
 4374TIP3   OH234612   2.665   0.416   0.797  0.1124  0.0059  0.8807
 4374TIP3    H134613   2.683   0.505   0.768  0.8342  0.1269  1.6779
 4374TIP3    H234614   2.623   0.374   0.722  1.4927  0.4551 -0.1489
 4375TIP3   OH234615   1.058   5.616  16.148  0.3041 -0.0278 -0.2247
 4375TIP3    H134616   1.045   5.571  16.232 -3.0619  1.0532 -0.1202
 4375TIP3    H234617   1.049   5.546  16.082  3.2915 -0.9387  0.2685
 4376TIP3   OH234618   1.018   4.399  11.374  0.2068  0.3891 -0.2138
 4376TIP3    H134619   0.947   4.352  11.330 -0.8686  0.2962  1.5845
 4376TIP3    H234620   1.098   4.357  11.343 -0.7036 -2.2443  0.9062
 4377TIP3   OH234621   6.264   4.641  16.110 -0.4313 -0.3307 -0.0413
 4377TIP3    H134622   6.196   4.685  16.160  0.6580  0.0583  1.1238
 4377TIP3    H234623   6.257   4.549  16.135 -1.4542 -0.5374 -1.0245
 4378TIP3   OH234624   4.495   3.988  13.641 -0.1154 -0.3853  0.0489
 4378TIP3    H134625   4.575   4.035  13.665  0.2088 -1.8457  1.9733
 4378TIP3    H234626   4.526   3.914  13.588 -0.7841  2.5337 -4.7067
 4379TIP3   OH234627   2.747   2.297  17.172  0.2763  0.5506  0.3057
 4379TIP3    H134628   2.757   2.382  17.215  1.0276 -0.2280  1.7052
 4379TIP3    H234629   2.686   2.314  17.100  0.6734  2.3402  0.3664
 4380TIP3   OH234630   5.820   1.298  15.220 -0.7032 -0.6431  0.3413
 4380TIP3    H134631   5.811   1.217  15.169 -2.3863 -0.2741  0.0424
 4380TIP3    H234632   5.732   1.315  15.254 -0.7953  2.0419 -1.0867
 4381TIP3   OH234633   3.710   2.012   0.231  0.4059  0.5984 -0.1159
 4381TIP3    H134634   3.697   2.075   0.302 -0.1373 -0.6119  0.8767
 4381TIP3    H234635   3.721   1.928   0.275  0.4598 -0.1142 -1.4564
 4382TIP3   OH234636   0.601   2.649   6.417 -0.3969  0.0755 -0.8701
 4382TIP3    H134637   0.601   2.554   6.405  1.7278  0.1085 -1.3342
 4382TIP3    H234638   0.510   2.675   6.404 -0.7769 -1.7461 -1.9753
 4383TIP3   OH234639   0.024   2.648  16.148  0.2651  0.4135 -0.2278
 4383TIP3    H134640   0.007   2.737  16.117 -1.5826  0.1395 -0.1095
 4383TIP3    H234641  -0.004   2.649  16.239  1.0867 -0.0619  0.0319
 4384TIP3   OH234642   6.470   0.842   2.953  0.2244 -0.1352  0.2114
 4384TIP3    H134643   6.477   0.920   3.007  1.2725  0.7986 -1.2598
 4384TIP3    H234644   6.424   0.871   2.874  2.3627 -0.5151 -1.2125
 4385TIP3   OH234645   6.788   0.390   2.820 -0.4131  0.0363  0.4879
 4385TIP3    H134646   6.743   0.306   2.806 -1.4369  0.4801  1.0568
 4385TIP3    H234647   6.809   0.420   2.732  0.5199 -1.1122  0.3026
 4386TIP3   OH234648   4.764   1.259  11.605  0.1463  0.1651 -1.0437
 4386TIP3    H134649   4.803   1.178  11.638  0.7556  0.9570  0.2466
 4386TIP3    H234650   4.763   1.250  11.510  0.3642 -1.2825 -0.9059
 4387TIP3   OH234651   2.254   0.070   4.287 -0.0522  0.5274 -0.4334
 4387TIP3    H134652   2.233   0.107   4.373  1.8048  2.3456 -0.7071
 4387TIP3    H234653   2.170   0.040   4.253 -0.8776  0.1584  1.8373
 4388TIP3   OH234654   2.159   4.436   3.264 -0.5028  0.2811  0.2540
 4388TIP3    H134655   2.096   4.457   3.333 -0.8442 -0.8211  0.2888
 4388TIP3    H234656   2.116   4.464   3.183  0.0099  1.8200  0.5173
 4389TIP3   OH234657   5.033   6.414   5.586  0.6599 -0.3443 -0.4566
 4389TIP3    H134658   5.019   6.486   5.647  0.0547  0.0804 -1.0948
 4389TIP3    H234659   4.953   6.362   5.591 -0.4875  1.1069 -2.7785
 4390TIP3   OH234660   6.751   5.537   5.115 -0.0504  0.3381  0.2153
 4390TIP3    H134661   6.831   5.519   5.164 -0.7391  0.3899  1.3591
 4390TIP3    H234662   6.770   5.618   5.067  0.9673 -0.2389 -0.3925
 4391TIP3   OH234663   0.614   4.559   4.734  0.0136  0.3898  0.2520
 4391TIP3    H134664   0.671   4.513   4.797  0.5365  0.2307 -0.3292
 4391TIP3    H234665   0.629   4.513   4.651 -1.7268 -0.2906  0.3000
 4392TIP3   OH234666   1.988   0.690   0.677 -0.0110 -0.1396 -0.3803
 4392TIP3    H134667   1.960   0.779   0.699  1.9871  0.0594  1.4438
 4392TIP3    H234668   1.993   0.645   0.761  1.8482 -1.1345 -1.0062
 4393TIP3   OH234669   4.376   2.188   4.256  0.4458  0.5441  0.1600
 4393TIP3    H134670   4.414   2.171   4.170  0.7526  0.7032  0.2646
 4393TIP3    H234671   4.451   2.198   4.314  0.2434  0.7871  0.3794
 4394TIP3   OH234672   0.940   0.249  14.335  0.2971  0.4978  0.2455
 4394TIP3    H134673   0.934   0.166  14.381 -0.3100  0.6591  0.4569
 4394TIP3    H234674   0.897   0.233  14.251  0.2756  0.5729  0.2422
 4395TIP3   OH234675   4.068   1.172  12.278  0.6775  0.2803  0.0275
 4395TIP3    H134676   4.135   1.167  12.346 -2.2541 -0.1478  3.0545
 4395TIP3    H234677   4.014   1.094  12.291 -0.8169  0.9390 -1.8536
 4396TIP3   OH234678   3.237   1.729   5.450 -0.6775 -0.4339  0.1017
 4396TIP3    H134679   3.177   1.679   5.394 -0.4884 -0.3324 -0.1952
 4396TIP3    H234680   3.293   1.776   5.388 -1.4787  0.8968  0.3836
 4397TIP3   OH234681   6.336   0.750  12.032 -0.5067 -0.4181  0.0540
 4397TIP3    H134682   6.384   0.831  12.015  1.4739 -1.8029 -1.0597
 4397TIP3    H234683   6.371   0.717  12.114 -1.9974  0.3175  1.0169
 4398TIP3   OH234684   3.732   3.098   4.342 -0.1609  0.1818 -0.1200
 4398TIP3    H134685   3.795   3.092   4.271 -0.0680 -2.4667  0.1459
 4398TIP3    H234686   3.649   3.120   4.299  0.6430  2.3178 -0.6113
 4399TIP3   OH234687   2.434   4.098  15.930 -0.1931  0.2286  0.0202
 4399TIP3    H134688   2.456   4.006  15.917 -1.3294 -0.0163 -0.2165
 4399TIP3    H234689   2.468   4.119  16.017  1.0775 -0.0921 -0.3787
 4400TIP3   OH234690   3.207   2.292  17.283  0.9999 -0.2035  0.3274
 4400TIP3    H134691   3.278   2.252  17.333  0.7583 -1.1214 -0.0466
 4400TIP3    H234692   3.193   2.377  17.324  1.7716 -0.3526  0.9086
 4401TIP3   OH234693   6.574   6.445   0.234 -0.3916 -0.0500  0.8185
 4401TIP3    H134694   6.489   6.475   0.200 -0.0814 -0.9121 -0.7379
 4401TIP3    H234695   6.638   6.485   0.176  0.2575  0.3295  1.7974
 4402TIP3   OH234696   0.129   2.500  11.942 -0.1158 -0.5267  0.0326
 4402TIP3    H134697   0.143   2.522  11.849 -0.5568 -0.4033 -0.0078
 4402TIP3    H234698   0.109   2.585  11.983 -1.9594 -0.8548 -0.1431
 4403TIP3   OH234699   5.594   4.067  12.301  0.0418 -0.0510 -0.2959
 4403TIP3    H134700   5.559   4.003  12.363 -0.3258 -0.9576 -1.4196
 4403TIP3    H234701   5.684   4.080  12.330  0.3264 -1.5753 -0.4150
 4404TIP3   OH234702   2.865   5.975  11.108 -0.3615 -0.3111 -0.4578
 4404TIP3    H134703   2.902   5.917  11.174  0.9517  0.6770 -0.3138
 4404TIP3    H234704   2.878   5.929  11.025  1.9199  0.3504 -0.5015
 4405TIP3   OH234705   5.475   4.569  16.609 -0.1750  0.7771  0.6858
 4405TIP3    H134706   5.474   4.647  16.554  0.3442  1.0940  1.1266
 4405TIP3    H234707   5.567   4.557  16.632 -0.2400 -0.0002  0.5741
 4406TIP3   OH234708   5.747   1.650   1.114  0.2210  0.1257  0.4107
 4406TIP3    H134709   5.730   1.699   1.194 -0.6073  1.2011 -0.4162
 4406TIP3    H234710   5.730   1.712   1.043 -0.2856 -1.1732 -0.6325
 4407TIP3   OH234711   0.249   5.038  11.198 -0.5375 -0.5287  0.1794
 4407TIP3    H134712   0.165   4.996  11.212 -1.2725  0.2129 -1.8078
 4407TIP3    H234713   0.297   4.977  11.141 -0.6552  0.1574 -0.6618
 4408TIP3   OH234714   2.191   6.707   0.690  0.0608  0.3447 -0.4090
 4408TIP3    H134715   2.162   6.759   0.615  1.3591  1.7262  0.0156
 4408TIP3    H234716   2.127   6.726   0.759 -0.2101  0.3575 -0.6634
 4409TIP3   OH234717   1.529   2.077   4.140 -0.0785 -0.2234  0.1931
 4409TIP3    H134718   1.506   2.168   4.159  0.1907 -0.0085 -0.4866
 4409TIP3    H234719   1.499   2.028   4.217 -1.8390  0.1921 -0.2098
 4410TIP3   OH234720   1.481   6.722  14.038  0.1123  0.2556  0.5566
 4410TIP3    H134721   1.519   6.634  14.039  1.4335  0.8075  1.8588
 4410TIP3    H234722   1.403   6.714  13.983 -0.5238 -2.0427  1.7044
 4411TIP3   OH234723   1.940   5.398  15.139  0.4520 -0.2820  0.6260
 4411TIP3    H134724   2.005   5.468  15.138  1.2737 -1.0222  1.2527
 4411TIP3    H234725   1.944   5.360  15.051 -0.0072  0.4739  0.2824
 4412TIP3   OH234726   0.015   2.136  15.726  0.0048 -0.1299 -0.2245
 4412TIP3    H134727  -0.003   2.227  15.702  0.4079 -0.0223 -0.1236
 4412TIP3    H234728  -0.042   2.119  15.801 -0.2604 -0.0414 -0.4080
 4413TIP3   OH234729   3.007   2.280   0.294 -0.0311  0.0336 -0.7983
 4413TIP3    H134730   3.057   2.233   0.361 -1.5521 -0.9123 -0.2936
 4413TIP3    H234731   3.027   2.233   0.212 -1.0884 -1.1560 -0.3886
 4414TIP3   OH234732   2.491   0.585  13.360  0.5013  0.2733  0.3200
 4414TIP3    H134733   2.410   0.632  13.377 -0.1950 -0.8263  0.0758
 4414TIP3    H234734   2.540   0.591  13.443 -0.8145 -1.0015  1.2060
 4415TIP3   OH234735   5.495   2.121  14.821  0.3902  0.2406  0.3229
 4415TIP3    H134736   5.497   2.096  14.728  0.3888  1.1767  0.0680
 4415TIP3    H234737   5.503   2.038  14.868 -0.2661 -0.3043 -0.5100
 4416TIP3   OH234738   1.993   1.096   4.664 -0.1790 -0.5723  0.1348
 4416TIP3    H134739   1.967   1.080   4.573 -0.2952 -0.0211  0.0694
 4416TIP3    H234740   1.953   1.024   4.713 -0.5428 -0.5855 -0.1778
 4417TIP3   OH234741   5.298   3.637   0.797 -0.4100 -0.0070 -0.0093
 4417TIP3    H134742   5.281   3.567   0.735  1.9045 -1.2415  0.7047
 4417TIP3    H234743   5.367   3.690   0.756 -0.9689  0.9096  0.2032
 4418TIP3   OH234744   3.638   0.199   1.579 -0.3601 -0.8974  0.2594
 4418TIP3    H134745   3.733   0.195   1.594  0.0002  1.2433 -1.2577
 4418TIP3    H234746   3.614   0.288   1.603 -1.6014 -0.7398 -1.4928
 4419TIP3   OH234747   0.193   6.067  10.897 -0.2976 -0.6269  0.5934
 4419TIP3    H134748   0.203   6.155  10.859  0.7435 -0.5254  1.0818
 4419TIP3    H234749   0.099   6.050  10.894 -0.3311 -0.2722 -1.2618
 4420TIP3   OH234750   6.059   5.627   3.154 -0.1195 -0.2701 -0.4642
 4420TIP3    H134751   6.064   5.714   3.115  1.4773  0.5303  1.4963
 4420TIP3    H234752   5.993   5.581   3.101  0.6394  1.3770 -2.9208
 4421TIP3   OH234753   5.735   4.475  14.795 -0.1745  0.2059  1.1048
 4421TIP3    H134754   5.819   4.521  14.803  0.3444 -0.5832  0.2578
 4421TIP3    H234755   5.682   4.510  14.866  0.0962  2.3796  0.2836
 4422TIP3   OH234756   0.189   3.307  17.011 -0.0564  0.4219 -0.5634
 4422TIP3    H134757   0.212   3.331  16.922  1.0201  1.1501 -0.0987
 4422TIP3    H234758   0.172   3.390  17.056  0.1615  0.1092  0.1127
 4423TIP3   OH234759   1.073   1.384  11.544  0.3812 -0.2499  0.3849
 4423TIP3    H134760   1.095   1.292  11.529 -1.1666 -0.6872  0.7580
 4423TIP3    H234761   1.087   1.426  11.459 -0.7500 -1.1956 -0.2754
 4424TIP3   OH234762   6.407   2.675   1.381  0.2060 -0.2234  0.3964
 4424TIP3    H134763   6.314   2.652   1.379  0.2846 -0.7502  1.7157
 4424TIP3    H234764   6.412   2.746   1.445  0.9261 -1.3388  1.6064
 4425TIP3   OH234765   6.297   5.321  14.542  0.1270  0.2556 -0.3905
 4425TIP3    H134766   6.203   5.330  14.559  0.4437  0.4420  1.3889
 4425TIP3    H234767   6.319   5.235  14.579  0.7723  0.4847 -0.2408
 4426TIP3   OH234768   5.040   3.395   4.900 -0.1368  0.1243 -0.3109
 4426TIP3    H134769   5.031   3.367   4.809  0.4757  0.8785 -0.6021
 4426TIP3    H234770   5.011   3.319   4.951  0.1055 -0.5165 -1.1192
 4427TIP3   OH234771   3.095   4.411  16.476 -0.2853 -0.0294 -0.0311
 4427TIP3    H134772   3.088   4.498  16.516 -0.7276  0.8353 -1.9647
 4427TIP3    H234773   3.110   4.352  16.550  0.2714  1.7159  1.2762
 4428TIP3   OH234774   5.394   0.614  12.352 -0.4213 -0.3724 -0.4072
 4428TIP3    H134775   5.406   0.692  12.296 -0.2322 -0.4653 -0.4967
 4428TIP3    H234776   5.305   0.585  12.333 -0.8594  0.4190  0.3858
 4429TIP3   OH234777   1.167   2.616  15.224 -0.0049  0.2596  0.1295
 4429TIP3    H134778   1.257   2.596  15.199 -0.2409 -0.7861  0.0791
 4429TIP3    H234779   1.143   2.546  15.285 -0.8565  0.4040 -0.0345
 4430TIP3   OH234780   3.493   3.920  16.575  0.1324  0.7067 -0.3984
 4430TIP3    H134781   3.507   3.865  16.652 -0.7323 -0.2998 -0.9436
 4430TIP3    H234782   3.481   4.008  16.610  1.7653  0.6087  0.4720
 4431TIP3   OH234783   4.425   5.733   3.906  0.4832  0.3234 -0.2360
 4431TIP3    H134784   4.497   5.794   3.925  1.2427 -1.1782  1.8079
 4431TIP3    H234785   4.350   5.769   3.954  1.2695 -1.0384  2.0661
 4432TIP3   OH234786   3.923   5.947  14.595  0.5032  0.0328 -0.1080
 4432TIP3    H134787   4.005   5.921  14.553  0.1173 -0.3605 -0.6277
 4432TIP3    H234788   3.946   5.958  14.687  1.0307 -0.5470 -0.1650
 4433TIP3   OH234789   3.410   5.264  14.809  0.9344  0.2327  0.9589
 4433TIP3    H134790   3.476   5.278  14.741  1.2603 -2.0025  0.7853
 4433TIP3    H234791   3.411   5.170  14.824 -0.0240  0.5573  3.1858
 4434TIP3   OH234792   2.234   5.795  16.616 -0.4306 -0.1473 -0.1285
 4434TIP3    H134793   2.277   5.738  16.552 -0.2779 -1.1713  0.8564
 4434TIP3    H234794   2.301   5.860  16.639 -0.1748 -0.3425 -0.3180
 4435TIP3   OH234795   5.917   0.608  16.988 -0.2022  0.7672 -0.0198
 4435TIP3    H134796   5.937   0.534  16.930 -1.7079  0.3349 -0.0025
 4435TIP3    H234797   5.823   0.622  16.978 -0.3139  1.2949  1.6200
 4436TIP3   OH234798   0.589   3.695  15.847 -0.2475 -0.6792 -0.4198
 4436TIP3    H134799   0.642   3.765  15.886  1.3481 -0.8762 -2.1601
 4436TIP3    H234800   0.606   3.619  15.903  1.6017 -0.8290 -1.1377
 4437TIP3   OH234801   0.592   3.191  15.436  0.5123  0.0270  0.0339
 4437TIP3    H134802   0.677   3.234  15.435  1.0811 -1.1153 -1.0607
 4437TIP3    H234803   0.593   3.136  15.513  0.9437 -0.3574 -0.2518
 4438TIP3   OH234804   5.341   3.693  11.233 -0.4097  0.5029 -0.1460
 4438TIP3    H134805   5.315   3.604  11.258  0.3559 -0.1683 -1.6480
 4438TIP3    H234806   5.353   3.689  11.138  0.4376  1.9963 -0.1257
 4439TIP3   OH234807   0.893   3.308  11.660  0.2180 -0.2141  0.1917
 4439TIP3    H134808   0.819   3.247  11.663  0.5299 -0.6039  0.1652
 4439TIP3    H234809   0.862   3.383  11.609  0.3778 -1.1156 -1.2799
 4440TIP3   OH234810   4.069   0.447   5.275  0.8878 -0.2279 -0.1527
 4440TIP3    H134811   4.026   0.448   5.360 -0.2695 -1.0377 -0.7167
 4440TIP3    H234812   4.152   0.402   5.290  0.9390  0.1341  0.6615
 4441TIP3   OH234813   6.249   0.446   1.612  0.1121  0.1085  0.0925
 4441TIP3    H134814   6.302   0.465   1.690  0.1683  0.1560  0.0436
 4441TIP3    H234815   6.300   0.380   1.564  0.3479  0.4863 -0.1816
 4442TIP3   OH234816   0.651   5.048  13.233  0.4372 -0.1334 -0.0526
 4442TIP3    H134817   0.599   4.983  13.280 -0.4990 -0.3718 -1.4107
 4442TIP3    H234818   0.739   5.009  13.227 -0.4810 -1.9595 -2.1677
 4443TIP3   OH234819   3.164   5.213  12.735 -0.4735  0.1713 -0.7441
 4443TIP3    H134820   3.135   5.302  12.715  0.5232  1.3672  2.7741
 4443TIP3    H234821   3.259   5.220  12.741 -0.5393 -0.6590  1.6112
 4444TIP3   OH234822   3.908   1.139   4.009 -0.0131 -0.5737  0.9082
 4444TIP3    H134823   3.852   1.205   3.967 -0.4630 -0.3353  1.8462
 4444TIP3    H234824   3.847   1.071   4.037  0.2803 -0.7477  1.1241
 4445TIP3   OH234825   4.446   0.089   3.696  0.1178 -0.1404  0.1698
 4445TIP3    H134826   4.494   0.092   3.779  2.5544 -0.9204 -1.1521
 4445TIP3    H234827   4.422  -0.003   3.686  1.1667 -0.3177 -0.7197
 4446TIP3   OH234828   1.854   5.119   1.909  0.2189 -0.1533 -0.0293
 4446TIP3    H134829   1.914   5.174   1.958 -0.0024  0.2615 -0.2259
 4446TIP3    H234830   1.887   5.122   1.819  0.4896 -0.7293  0.0441
 4447TIP3   OH234831   2.875   2.409  14.593  0.1418 -0.2282  0.0025
 4447TIP3    H134832   2.844   2.500  14.602 -1.4460 -0.7116 -0.3374
 4447TIP3    H234833   2.851   2.368  14.676 -1.3924 -0.9634 -0.7873
 4448TIP3   OH234834   1.603   2.858  12.993  0.0190 -0.5021 -0.2197
 4448TIP3    H134835   1.588   2.841  13.086 -0.7403  1.1150 -0.0296
 4448TIP3    H234836   1.580   2.950  12.982 -0.9466 -0.9662 -2.2397
 4449TIP3   OH234837   5.479   0.893  11.869 -0.0585 -0.0002  0.4123
 4449TIP3    H134838   5.517   0.905  11.956 -2.2391 -0.0022  1.3943
 4449TIP3    H234839   5.479   0.981  11.831  1.3480 -0.0764  0.2074
 4450TIP3   OH234840   5.673   6.164  16.710  0.1544 -0.0647  0.7616
 4450TIP3    H134841   5.737   6.219  16.666 -1.3043  0.2324 -1.0711
 4450TIP3    H234842   5.607   6.226  16.742 -1.0457 -0.6571 -0.5413
 4451TIP3   OH234843   3.818   6.148  13.553  0.0257 -0.0211 -0.1222
 4451TIP3    H134844   3.853   6.234  13.577  1.1665 -0.5006  0.0042
 4451TIP3    H234845   3.725   6.152  13.576  0.1895  0.9872  0.3959
 4452TIP3   OH234846   0.603   0.763   2.123 -0.2595 -0.3810 -0.8068
 4452TIP3    H134847   0.660   0.697   2.084 -0.6143 -0.5750 -1.0061
 4452TIP3    H234848   0.623   0.844   2.076 -1.3170 -0.8073 -2.0092
 4453TIP3   OH234849   0.242   2.449  14.083  0.7232  0.2600 -0.1465
 4453TIP3    H134850   0.169   2.390  14.100  1.5251 -0.6791  0.0856
 4453TIP3    H234851   0.316   2.411  14.131  0.7755  2.5283  1.6709
 4454TIP3   OH234852   5.425   3.777  14.721  0.3204  0.0985 -0.1055
 4454TIP3    H134853   5.422   3.684  14.745  1.6782  0.4241  1.4659
 4454TIP3    H234854   5.377   3.822  14.790 -1.1832  0.5024 -1.3793
 4455TIP3   OH234855   3.873   1.028  13.424  0.0824 -0.5304 -0.1868
 4455TIP3    H134856   3.864   1.071  13.339 -1.7316  0.1749  0.3451
 4455TIP3    H234857   3.967   1.022  13.438  0.3870  0.2040 -1.8159
 4456TIP3   OH234858   4.437   0.603  17.081 -0.1076 -0.3583  0.7883
 4456TIP3    H134859   4.498   0.677  17.075 -0.2390 -0.1837  1.5388
 4456TIP3    H234860   4.350   0.643  17.072 -0.1533 -0.4904  0.6488
 4457TIP3   OH234861   5.528   2.517  17.250  0.0500  0.1062 -0.0316
 4457TIP3    H134862   5.467   2.590  17.253 -0.2431 -0.1376  0.0593
 4457TIP3    H234863   5.529   2.482  17.340 -0.3023 -0.3925 -0.2155
 4458TIP3   OH234864   4.906   3.907   2.725 -0.3077  0.4682  0.3003
 4458TIP3    H134865   4.843   3.971   2.694 -0.9996  0.6627  2.0560
 4458TIP3    H234866   4.982   3.959   2.752  0.8605  0.1986 -2.2994
 4459TIP3   OH234867   1.704   2.721   0.373  0.3271 -0.2629  0.7105
 4459TIP3    H134868   1.744   2.645   0.331 -0.1874 -0.4671  0.5731
 4459TIP3    H234869   1.718   2.707   0.467 -0.5432 -0.9946  0.7467
 4460TIP3   OH234870   6.717   1.055  10.830  0.0903 -0.5798 -0.3169
 4460TIP3    H134871   6.677   0.982  10.877 -0.8312  0.5365  0.6623
 4460TIP3    H234872   6.643   1.105  10.795  0.6975  0.1379 -0.5941
 4461TIP3   OH234873   5.687   6.112   5.235 -0.2154  0.0025  0.0090
 4461TIP3    H134874   5.595   6.116   5.260 -0.7869 -0.1983 -1.9733
 4461TIP3    H234875   5.720   6.034   5.279 -0.9176  0.2157  0.9346
 4462TIP3   OH234876   0.015   5.214   4.207  0.2032 -0.4546 -0.1976
 4462TIP3    H134877   0.024   5.276   4.279 -0.0065  0.0594 -0.6131
 4462TIP3    H234878   0.025   5.128   4.248 -1.9067 -0.2653  0.7570
 4463TIP3   OH234879   1.051   1.074   4.322  0.0585 -0.4939 -0.1112
 4463TIP3    H134880   1.028   1.048   4.232  1.3784 -0.1180 -0.5616
 4463TIP3    H234881   0.969   1.064   4.371 -0.9366  0.2941 -1.5777
 4464TIP3   OH234882   3.563   1.320   5.113  0.0396 -0.1218 -0.1134
 4464TIP3    H134883   3.626   1.297   5.045  0.8774 -1.8277  1.2050
 4464TIP3    H234884   3.491   1.259   5.101  0.3818 -0.7162  0.7762
 4465TIP3   OH234885   3.087   5.391  10.704 -0.3507 -0.1800 -0.1932
 4465TIP3    H134886   3.032   5.349  10.638 -0.8676  1.2580 -0.6852
 4465TIP3    H234887   3.122   5.468  10.661 -0.7772  0.8381  1.2545
 4466TIP3   OH234888   4.924   1.012  13.807  0.1203 -0.2209  0.1605
 4466TIP3    H134889   4.899   1.065  13.732  1.0298 -1.3241 -0.9263
 4466TIP3    H234890   5.016   0.990  13.793 -0.3632 -2.5121  0.3267
 4467TIP3   OH234891   1.720   6.773   6.300 -0.6594  0.3824 -0.5622
 4467TIP3    H134892   1.779   6.738   6.368 -1.9151  0.7728  0.7460
 4467TIP3    H234893   1.695   6.859   6.333 -2.7359 -0.1813 -0.6373
 4468TIP3   OH234894   4.287   1.512  12.302 -0.0989  0.4748 -0.1151
 4468TIP3    H134895   4.306   1.605  12.298 -1.3366  0.8021  1.2247
 4468TIP3    H234896   4.192   1.506  12.293 -0.0935 -0.6101  0.4254
 4469TIP3   OH234897   5.376   0.216   4.710 -0.0426  0.0152 -0.1211
 4469TIP3    H134898   5.427   0.182   4.636 -0.0829 -1.3131  0.4477
 4469TIP3    H234899   5.299   0.160   4.714 -0.9207  1.2091 -0.1755
 4470TIP3   OH234900   2.126   4.187  11.003 -0.7174 -0.0077  0.2605
 4470TIP3    H134901   2.040   4.146  10.989 -0.6502 -0.0608  0.0030
 4470TIP3    H234902   2.182   4.115  11.032 -0.9078  0.1437  0.9949
 4471TIP3   OH234903   6.689   6.326  12.157 -0.6279 -0.4632  0.1197
 4471TIP3    H134904   6.715   6.323  12.065 -0.6309  1.3034  0.0469
 4471TIP3    H234905   6.746   6.263  12.200  1.6058  1.0005 -0.5663
 4472TIP3   OH234906   0.232   0.379   6.006 -0.5462 -0.0276  0.5415
 4472TIP3    H134907   0.310   0.433   5.994 -1.5754  1.5971  0.9285
 4472TIP3    H234908   0.255   0.294   5.968  1.1236  0.6676 -0.0576
 4473TIP3   OH234909   3.652   5.605   0.769  0.5271  0.7946 -0.2186
 4473TIP3    H134910   3.637   5.527   0.715 -1.2648  0.5085  0.6750
 4473TIP3    H234911   3.685   5.571   0.852  2.1322  1.1680 -0.6713
 4474TIP3   OH234912   6.622   2.822  12.833  0.0480  1.0560  0.0331
 4474TIP3    H134913   6.685   2.777  12.777 -0.6233  1.3760 -0.9819
 4474TIP3    H234914   6.609   2.763  12.907 -0.5514 -0.2651 -1.1106
 4475TIP3   OH234915   4.454   4.554   1.612  0.5490 -0.0548 -0.1937
 4475TIP3    H134916   4.451   4.630   1.555  0.8399 -0.9245 -1.3871
 4475TIP3    H234917   4.538   4.561   1.656  0.8677 -0.0437 -0.8003
 4476TIP3   OH234918   4.314   4.191  17.029  0.5454 -0.2085  0.2811
 4476TIP3    H134919   4.302   4.129  17.101 -1.0755 -0.5745 -0.2820
 4476TIP3    H234920   4.400   4.170  16.993  0.7518 -0.9719  1.2040
 4477TIP3   OH234921   2.624   3.564  17.202  0.0050 -0.2606  0.1501
 4477TIP3    H134922   2.602   3.494  17.141 -2.1042 -0.2824  0.9110
 4477TIP3    H234923   2.663   3.520  17.277  0.2306 -0.4508 -0.0741
 4478TIP3   OH234924   6.346   4.365  15.563 -0.0721  0.1699  0.4694
 4478TIP3    H134925   6.384   4.301  15.624  1.4223 -0.6940 -1.3288
 4478TIP3    H234926   6.418   4.425  15.543 -0.5135  0.3725 -0.5483
 4479TIP3   OH234927   1.721   2.387   3.120 -0.5609 -0.2698 -0.0166
 4479TIP3    H134928   1.697   2.369   3.030  0.1994 -0.5367 -0.1733
 4479TIP3    H234929   1.752   2.303   3.154 -1.4713 -0.3207  0.6940
 4480TIP3   OH234930   0.243   4.969   3.349 -0.3025 -0.3645  0.2935
 4480TIP3    H134931   0.190   4.943   3.425 -1.0142 -0.2179 -0.1479
 4480TIP3    H234932   0.284   5.051   3.375 -1.2452  0.1422  0.1956
 4481TIP3   OH234933   2.523   3.760   2.308  0.0573 -0.2357  0.4126
 4481TIP3    H134934   2.548   3.802   2.390 -1.6617 -0.9530  1.3270
 4481TIP3    H234935   2.507   3.668   2.332 -2.2463 -0.0626 -0.3452
 4482TIP3   OH234936   0.335   4.475  15.882  0.3483 -0.3081 -0.4549
 4482TIP3    H134937   0.313   4.559  15.843 -3.9589  0.0053  2.3098
 4482TIP3    H234938   0.415   4.492  15.932 -0.2753  2.0641 -0.2251
 4483TIP3   OH234939   3.125   3.486   3.826  0.6058  0.0108  0.1116
 4483TIP3    H134940   3.141   3.452   3.738  0.2776 -0.7041  0.3271
 4483TIP3    H234941   3.096   3.410   3.877  1.3923  0.2983  0.9963
 4484TIP3   OH234942   5.601   2.252  11.925 -0.3096  0.3136 -0.7488
 4484TIP3    H134943   5.517   2.283  11.959  1.0603  2.3143  0.9110
 4484TIP3    H234944   5.595   2.265  11.831 -2.3385 -0.7751 -0.7974
 4485TIP3   OH234945   2.629   2.219   3.540  0.7999  0.1274  0.0590
 4485TIP3    H134946   2.678   2.170   3.606 -0.7398  1.8243  2.5956
 4485TIP3    H234947   2.555   2.163   3.518 -1.7039  1.6493  3.9487
 4486TIP3   OH234948   3.119   6.551  10.913  0.7127 -0.5035  0.0924
 4486TIP3    H134949   3.090   6.638  10.886  0.1493 -1.3501 -2.1038
 4486TIP3    H234950   3.176   6.568  10.989  0.5271  1.7488 -0.2241
 4487TIP3   OH234951   1.968   2.258  13.316  0.7211 -0.0322 -0.0780
 4487TIP3    H134952   2.037   2.213  13.268  0.8977 -0.7488  0.8252
 4487TIP3    H234953   1.987   2.351  13.304  1.6461 -0.2209 -0.1251
 4488TIP3   OH234954   2.539   5.461   5.913 -0.4351  0.0546  0.4541
 4488TIP3    H134955   2.577   5.447   5.999  0.3288  0.5069  0.1925
 4488TIP3    H234956   2.557   5.553   5.893  1.1076 -0.5281 -1.0207
 4489TIP3   OH234957   4.216   0.062  11.692  0.5980 -0.0890  0.1572
 4489TIP3    H134958   4.121   0.051  11.695  0.6708 -0.3361  2.5238
 4489TIP3    H234959   4.236   0.068  11.599 -1.6940 -0.3832 -0.3964
 4490TIP3   OH234960   2.862   0.576  16.574 -0.3170 -0.0248  0.0953
 4490TIP3    H134961   2.876   0.658  16.526  0.9778  0.1773  0.7808
 4490TIP3    H234962   2.774   0.583  16.610 -0.5036  0.7251 -0.5003
 4491TIP3   OH234963   5.580   1.524   1.927  0.7973  0.3439 -0.2444
 4491TIP3    H134964   5.666   1.486   1.940  0.6950  0.2602  0.2184
 4491TIP3    H234965   5.581   1.604   1.980  0.4306  0.0978  0.1331
 4492TIP3   OH234966   4.772   1.902   5.667 -0.1839 -0.0459 -0.3285
 4492TIP3    H134967   4.771   1.885   5.762 -1.9505  2.7648  0.2241
 4492TIP3    H234968   4.695   1.857   5.634 -0.0413 -0.3198 -0.2870
 4493TIP3   OH234969   0.825   5.191  11.055 -0.2624  0.0974 -0.1467
 4493TIP3    H134970   0.842   5.248  10.980  1.8425 -1.2947 -0.7624
 4493TIP3    H234971   0.749   5.140  11.028  1.5369 -1.6517 -2.1294
 4494TIP3   OH234972   4.577   2.247  12.585  0.3467 -0.1889 -0.0304
 4494TIP3    H134973   4.547   2.257  12.675  0.0320 -0.3553 -0.1133
 4494TIP3    H234974   4.640   2.318  12.572 -0.4113  0.4981 -0.0179
 4495TIP3   OH234975   1.905   3.316   4.077  0.0820 -0.1367  0.5536
 4495TIP3    H134976   1.822   3.357   4.052  1.6821  2.9953  0.1558
 4495TIP3    H234977   1.902   3.313   4.173 -1.0908 -1.4102  0.4954
 4496TIP3   OH234978   4.483   5.670   0.758  0.3829  0.5504 -0.7457
 4496TIP3    H134979   4.571   5.635   0.738 -0.4907 -0.6984 -2.5903
 4496TIP3    H234980   4.497   5.764   0.768  2.2290  0.1481  0.8139
 4497TIP3   OH234981   1.736   3.903   4.856 -0.1935 -0.0448  0.2283
 4497TIP3    H134982   1.645   3.873   4.851  0.1525 -0.7416 -2.7291
 4497TIP3    H234983   1.743   3.971   4.789  1.0723  1.0981  1.4993
 4498TIP3   OH234984   4.592   0.032  13.125  0.3967  0.1900  0.1702
 4498TIP3    H134985   4.564   0.088  13.198 -1.5333  0.3011 -0.6157
 4498TIP3    H234986   4.526   0.047  13.058  0.4297 -2.2543 -0.4400
 4499TIP3   OH234987   2.113   1.975   2.242 -0.5598  0.1910 -0.0083
 4499TIP3    H134988   2.134   2.030   2.166 -0.4058 -1.9590 -1.5825
 4499TIP3    H234989   2.019   1.988   2.255 -0.6523  0.3334 -0.7714
 4500TIP3   OH234990   4.713   0.276   4.904  0.3546  0.3223 -0.0774
 4500TIP3    H134991   4.738   0.361   4.939  0.3586  0.4006 -0.2702
 4500TIP3    H234992   4.739   0.279   4.812  0.9640 -0.1272  0.0751
 4501TIP3   OH234993   4.875   0.956  11.633 -0.0895 -0.5663 -0.7168
 4501TIP3    H134994   4.884   0.863  11.612 -1.9992 -0.6275 -1.3163
 4501TIP3    H234995   4.829   0.956  11.718  1.8274 -0.1975  0.3419
 4502TIP3   OH234996   5.407   2.908   2.640  0.0275 -0.5112 -0.2699
 4502TIP3    H134997   5.366   2.988   2.672  1.0805 -0.1576  0.2025
 4502TIP3    H234998   5.382   2.840   2.703  2.4645  0.2697  1.5926
 4503TIP3   OH234999   3.712   6.472  14.908  0.0693  0.8745 -0.0955
 4503TIP3    H135000   3.723   6.380  14.883 -0.6564  0.5966  0.5700
 4503TIP3    H235001   3.761   6.481  14.989  1.3372  1.4452 -0.9203
 4504TIP3   OH235002   1.638   3.778  13.669  0.2720  0.0839  0.1838
 4504TIP3    H135003   1.575   3.761  13.599  1.0348 -0.5891 -0.3569
 4504TIP3    H235004   1.656   3.692  13.706 -1.5498  0.6500  2.4936
 4505TIP3   OH235005   2.192   6.147   1.204 -0.0867  0.1478 -0.1055
 4505TIP3    H135006   2.213   6.239   1.217  1.4123 -0.0848 -0.8800
 4505TIP3    H235007   2.097   6.146   1.192 -0.2155  1.4915  0.7218
 4506TIP3   OH235008   4.918   5.256  12.294  0.3024  0.2960  0.0058
 4506TIP3    H135009   4.844   5.252  12.355  0.7054 -0.7784  0.4357
 4506TIP3    H235010   4.916   5.345  12.260 -0.7517  0.4974  0.5651
 4507TIP3   OH235011   6.117   4.840   4.105  0.3485  0.1160  0.1269
 4507TIP3    H135012   6.133   4.903   4.034 -1.3465 -0.7721 -1.0726
 4507TIP3    H235013   6.025   4.853   4.128  0.6514 -0.2320  1.5604
 4508TIP3   OH235014   2.957   6.777  10.948 -0.1438 -0.0240  0.1359
 4508TIP3    H135015   2.933   6.850  11.004 -2.2693  0.2950 -1.1165
 4508TIP3    H235016   2.875   6.728  10.936  1.3252 -2.9437  1.3800
 4509TIP3   OH235017   5.000   4.760  16.200  0.0740 -0.1696  0.0014
 4509TIP3    H135018   4.984   4.676  16.158 -2.3609 -0.5884  1.6715
 4509TIP3    H235019   5.019   4.820  16.128 -1.9877 -1.3091 -1.5251
 4510TIP3   OH235020   3.016   1.221   3.126 -0.4070  0.4120  0.3487
 4510TIP3    H135021   2.949   1.255   3.185  0.1466  1.5727  0.3365
 4510TIP3    H235022   3.093   1.210   3.182 -0.4320 -0.3357  0.2395
 4511TIP3   OH235023   5.936   3.216   2.649 -0.3429  0.3387  0.4829
 4511TIP3    H135024   6.002   3.247   2.587  0.0647 -0.4592  0.5153
 4511TIP3    H235025   5.957   3.262   2.731 -0.5433  0.9743  0.1766
 4512TIP3   OH235026   6.035   0.342   0.061  0.1216 -0.1948  0.0262
 4512TIP3    H135027   6.059   0.411   0.123  2.7021  1.2588 -2.4372
 4512TIP3    H235028   6.066   0.261   0.101 -1.0158  0.3040  1.9784
 4513TIP3   OH235029   1.598   1.977   0.073 -0.3343 -0.7498 -0.1151
 4513TIP3    H135030   1.596   1.957  -0.020  1.0843  1.4146 -0.6363
 4513TIP3    H235031   1.529   2.042   0.085 -0.0212 -0.4825  0.2350
 4514TIP3   OH235032   2.310   6.237  12.304 -0.7794  0.1224 -0.0724
 4514TIP3    H135033   2.269   6.311  12.347 -1.1542 -0.4510  0.5624
 4514TIP3    H235034   2.366   6.276  12.237 -1.7730  0.9266 -0.4347
 4515TIP3   OH235035   2.912   1.843  17.168 -0.8084 -0.0477 -0.0425
 4515TIP3    H135036   2.847   1.789  17.213 -1.2424 -1.3309 -2.1545
 4515TIP3    H235037   2.863   1.920  17.139 -0.3757  1.1250  2.2267
 4516TIP3   OH235038   4.247   1.130   3.162 -0.2660 -0.0006 -0.0706
 4516TIP3    H135039   4.175   1.094   3.215 -0.9126  0.4460 -0.6414
 4516TIP3    H235040   4.306   1.056   3.149 -0.7645 -0.4466  0.1634
 4517TIP3   OH235041   2.986   1.035   4.157  0.4114 -0.6341  0.4111
 4517TIP3    H135042   3.065   0.994   4.192 -0.7042 -0.6981  2.9871
 4517TIP3    H235043   2.943   0.966   4.106  0.7285 -1.3678  1.1358
 4518TIP3   OH235044   0.533   2.706  15.243 -0.6757  0.0339  0.0348
 4518TIP3    H135045   0.562   2.633  15.298 -2.5513  0.2685  1.3715
 4518TIP3    H235046   0.612   2.759  15.231  0.1154 -0.8462  1.2120
 4519TIP3   OH235047   5.170   1.309   3.297 -0.6507 -0.1137 -0.1946
 4519TIP3    H135048   5.137   1.393   3.331 -0.6658  0.1983 -0.9737
 4519TIP3    H235049   5.163   1.317   3.202 -3.5542 -2.1814 -0.2087
 4520TIP3   OH235050   5.524   2.420  14.926  0.9011  0.4576 -0.2595
 4520TIP3    H135051   5.503   2.337  14.883  1.6782  0.8158 -1.3318
 4520TIP3    H235052   5.592   2.459  14.872 -1.1922  2.9575 -1.1816
 4521TIP3   OH235053   6.158   1.550   1.730 -0.3363  0.4274 -0.0595
 4521TIP3    H135054   6.191   1.535   1.642  1.7167 -2.1832  1.0736
 4521TIP3    H235055   6.229   1.598   1.774 -1.3813  1.7982  0.1862
 4522TIP3   OH235056   0.596   2.660  12.102  0.1748 -0.0607 -0.0041
 4522TIP3    H135057   0.616   2.746  12.139  0.2502 -0.1938  0.2644
 4522TIP3    H235058   0.632   2.598  12.165 -0.2840 -0.2950  0.0287
 4523TIP3   OH235059   5.601   3.953   2.042  0.3624  0.1875 -0.4062
 4523TIP3    H135060   5.685   3.953   1.996  0.0317  1.9609 -1.0235
 4523TIP3    H235061   5.624   3.934   2.133  1.5530  1.7188 -0.3732
 4524TIP3   OH235062   6.667   2.907   5.842  0.2472 -0.0455 -0.6358
 4524TIP3    H135063   6.755   2.878   5.816  0.3089  0.4670 -1.0163
 4524TIP3    H235064   6.680   2.948   5.927  0.6942  1.6209 -1.4767
 4525TIP3   OH235065   4.158   2.620   5.821 -0.4524  0.2976 -0.4562
 4525TIP3    H135066   4.109   2.702   5.824 -1.8288 -0.4573 -1.8261
 4525TIP3    H235067   4.151   2.591   5.730 -1.6254 -2.3049  0.4194
 4526TIP3   OH235068   6.551   2.943  13.453  0.2835 -0.0486  0.6039
 4526TIP3    H135069   6.609   3.017  13.470  0.2664  0.3600 -1.0204
 4526TIP3    H235070   6.609   2.867  13.451  0.4587  0.0693  1.0795
 4527TIP3   OH235071   4.396   3.098   2.434  0.2440 -0.0879  0.3460
 4527TIP3    H135072   4.470   3.064   2.484  2.0175  1.0777 -1.4421
 4527TIP3    H235073   4.385   3.037   2.361 -2.4729 -1.9016  2.1806
 4528TIP3   OH235074   0.941   5.338  14.249  0.0523  0.7589  0.0507
 4528TIP3    H135075   0.940   5.422  14.295 -0.3139  0.6361  0.2761
 4528TIP3    H235076   0.849   5.312  14.247  0.1644  0.3689 -0.0254
 4529TIP3   OH235077   1.944   4.266  14.055 -0.6073 -0.3430  0.0384
 4529TIP3    H135078   2.011   4.198  14.056  0.9077  1.1363  0.7642
 4529TIP3    H235079   1.875   4.232  14.112 -0.8285 -2.2032 -1.3085
 4530TIP3   OH235080   1.032   1.458  11.952 -0.0827 -0.2237  0.4567
 4530TIP3    H135081   1.054   1.545  11.917 -0.1177  1.5795  4.6501
 4530TIP3    H235082   0.937   1.451  11.941 -0.3817  1.1765  1.8585
 4531TIP3   OH235083   2.300   1.126  17.038 -0.4935  0.0602  0.6263
 4531TIP3    H135084   2.346   1.075  17.105 -1.6980  1.6829  2.7664
 4531TIP3    H235085   2.329   1.215  17.052  0.1130  0.2719 -1.8191
 4532TIP3   OH235086   3.404   3.988   5.213  0.0631  0.6626 -0.1946
 4532TIP3    H135087   3.417   4.069   5.164  0.3932 -0.0745 -1.3634
 4532TIP3    H235088   3.492   3.949   5.218 -0.1114  0.3215  0.2752
 4533TIP3   OH235089   3.077   6.715  15.226 -0.0909 -0.4954 -0.0903
 4533TIP3    H135090   3.085   6.772  15.302 -0.5719  0.4328 -0.7338
 4533TIP3    H235091   3.129   6.758  15.158 -2.9850  0.8618 -1.5462
 4534TIP3   OH235092   4.509   0.212   5.509 -0.1747 -0.3372  0.6877
 4534TIP3    H135093   4.551   0.168   5.435  1.3227 -0.1327  1.3989
 4534TIP3    H235094   4.553   0.297   5.514 -1.9652  0.6388  0.3004
 4535TIP3   OH235095   4.996   6.288   4.500 -0.6511 -0.4241 -0.3221
 4535TIP3    H135096   5.032   6.227   4.565 -1.1043  0.7227  1.0115
 4535TIP3    H235097   5.073   6.330   4.462 -0.4055 -0.8090 -0.2574
 4536TIP3   OH235098   6.562   6.127  13.771 -0.2993 -0.0705 -0.1628
 4536TIP3    H135099   6.549   6.099  13.862  0.3337 -1.2254 -0.4133
 4536TIP3    H235100   6.618   6.060  13.734 -2.2060 -0.7089 -1.9848
 4537TIP3   OH235101   5.454   3.919   0.535  0.3350 -0.6551 -0.2328
 4537TIP3    H135102   5.479   3.849   0.595  1.3732  1.0830  1.4373
 4537TIP3    H235103   5.359   3.925   0.543  0.3215 -1.3384  0.1870
 4538TIP3   OH235104   3.573   3.247   5.599  0.0101  0.0926  0.0726
 4538TIP3    H135105   3.649   3.305   5.608 -1.2883  1.6887  1.0061
 4538TIP3    H235106   3.514   3.294   5.540 -1.0197 -0.3263  0.7677
 4539TIP3   OH235107   5.755   1.454  10.781 -0.5780  0.6053  0.0327
 4539TIP3    H135108   5.660   1.452  10.767 -1.1408 -1.1358  3.5918
 4539TIP3    H235109   5.772   1.537  10.826 -0.4727  0.7418 -0.2584
 4540TIP3   OH235110   3.766   2.638  13.441 -0.3540 -0.4967 -0.6033
 4540TIP3    H135111   3.801   2.550  13.449  1.5477  0.1907 -1.0465
 4540TIP3    H235112   3.747   2.665  13.531 -0.9056 -1.3266 -0.4666
 4541TIP3   OH235113   0.752   1.225   2.006 -0.1332  0.0719  0.3998
 4541TIP3    H135114   0.665   1.253   1.978 -0.5893  0.2107  1.8603
 4541TIP3    H235115   0.780   1.161   1.941 -0.9179  0.7430 -0.6138
 4542TIP3   OH235116   1.744   5.109   0.460 -0.2641 -0.0821 -0.2074
 4542TIP3    H135117   1.827   5.098   0.414 -0.3978 -1.3100 -0.1895
 4542TIP3    H235118   1.768   5.150   0.544  0.4300 -1.1356  0.1208
 4543TIP3   OH235119   0.688   2.439   5.768  0.1038  0.3937  0.2064
 4543TIP3    H135120   0.761   2.381   5.790  0.4944  0.6146 -0.4860
 4543TIP3    H235121   0.632   2.385   5.712 -0.6213  0.0018  1.2821
 4544TIP3   OH235122   5.845   4.568  11.567 -0.3977  0.2300 -0.3160
 4544TIP3    H135123   5.866   4.661  11.565 -1.2251  0.4106 -1.8386
 4544TIP3    H235124   5.749   4.565  11.562 -0.5216 -0.6563  2.0859
 4545TIP3   OH235125   5.337   0.635  14.602 -0.4336 -0.3808 -0.8834
 4545TIP3    H135126   5.329   0.726  14.630 -1.2831 -0.7652  0.1435
 4545TIP3    H235127   5.253   0.595  14.624 -0.2721 -1.2752 -1.8526
 4546TIP3   OH235128   0.424   2.147  16.560 -0.2711  0.4628  0.4655
 4546TIP3    H135129   0.463   2.093  16.491  2.8723  1.1030  1.6384
 4546TIP3    H235130   0.330   2.128  16.555  0.5040 -3.6165 -0.4035
 4547TIP3   OH235131   6.132   5.037  11.390  0.6758  0.0500  0.5902
 4547TIP3    H135132   6.151   5.128  11.411  2.0269 -0.5639  2.1310
 4547TIP3    H235133   6.036   5.031  11.393  0.5731  1.4436  0.3074
 4548TIP3   OH235134   2.502   2.237  16.314 -0.0930 -0.4011 -1.0063
 4548TIP3    H135135   2.504   2.244  16.218 -0.9111  1.0174 -0.9241
 4548TIP3    H235136   2.412   2.213  16.334 -0.5789  1.8264 -0.4405
 4549TIP3   OH235137   5.541   0.774  12.842  0.3563  0.3868 -0.0301
 4549TIP3    H135138   5.539   0.869  12.849 -0.6334  0.3084  0.8313
 4549TIP3    H235139   5.533   0.757  12.748  0.8695  1.1514 -0.2205
 4550TIP3   OH235140   4.653   0.033  15.359  0.2124 -0.5486 -0.4828
 4550TIP3    H135141   4.598   0.105  15.391  0.9521  0.1614 -0.7855
 4550TIP3    H235142   4.645   0.037  15.264  0.0225 -1.0580 -0.4896
 4551TIP3   OH235143   5.541   6.465  12.864 -0.6487 -0.0448  0.1669
 4551TIP3    H135144   5.452   6.499  12.856 -0.4677  0.3305 -0.2992
 4551TIP3    H235145   5.597   6.537  12.834 -0.0968  0.2907  1.8815
 4552TIP3   OH235146   0.210   4.199  13.289  0.5082 -0.5144  0.2872
 4552TIP3    H135147   0.173   4.154  13.212  0.7610 -1.7312  0.8796
 4552TIP3    H235148   0.304   4.199  13.274  0.4947  0.0417  0.1775
 4553TIP3   OH235149   1.331   3.174   1.533  0.1935 -0.2615 -0.1251
 4553TIP3    H135150   1.370   3.112   1.594  0.2561 -1.5731 -1.4497
 4553TIP3    H235151   1.360   3.260   1.562  0.2807 -0.8742  1.6262
 4554TIP3   OH235152   4.449   1.517   1.426  0.2191 -0.1156 -0.6132
 4554TIP3    H135153   4.518   1.453   1.441 -0.8044 -0.7070  1.8579
 4554TIP3    H235154   4.372   1.465   1.403 -0.7963  0.0996  2.0673
 4555TIP3   OH235155   1.000   6.194  16.768 -0.2226 -0.1153 -0.2419
 4555TIP3    H135156   0.959   6.129  16.711 -0.1080  2.7766 -3.8334
 4555TIP3    H235157   1.082   6.217  16.723 -0.2389  2.4604  0.9445
 4556TIP3   OH235158   5.445   2.177  16.462 -0.0510 -0.5865 -0.3268
 4556TIP3    H135159   5.399   2.255  16.493 -0.4089 -1.6454  1.8721
 4556TIP3    H235160   5.376   2.120  16.430 -0.0101 -0.9300  0.1880
 4557TIP3   OH235161   5.869   2.834  15.601 -0.0754  0.2778 -0.2274
 4557TIP3    H135162   5.784   2.803  15.631  0.6806 -1.2887  0.3192
 4557TIP3    H235163   5.893   2.774  15.530  1.1662 -0.0731  0.4862
 4558TIP3   OH235164   2.326   4.971  12.362  0.5621 -0.0001 -0.1572
 4558TIP3    H135165   2.410   5.000  12.328  0.7539  0.0733  0.3669
 4558TIP3    H235166   2.315   4.882  12.328  1.3629 -0.4260  0.6640
 4559TIP3   OH235167   1.290   5.578   5.689 -0.2024 -0.1583 -0.2625
 4559TIP3    H135168   1.362   5.637   5.712  0.2312 -0.9436  0.4305
 4559TIP3    H235169   1.328   5.491   5.697 -0.6905 -0.5156 -1.7968
 4560TIP3   OH235170   4.019   1.231   2.807  0.3099  0.2049 -0.6498
 4560TIP3    H135171   4.002   1.324   2.794  0.4651  0.2351 -0.6304
 4560TIP3    H235172   4.104   1.227   2.850 -0.5701  0.1376  1.1115
 4561TIP3   OH235173   3.955   4.278  11.209 -0.6726  0.3920  0.1980
 4561TIP3    H135174   3.993   4.301  11.124 -0.9600 -0.7200 -0.2446
 4561TIP3    H235175   3.940   4.184  11.203 -1.7408  0.5064  1.0785
 4562TIP3   OH235176   4.609   6.052  16.019  0.7410 -0.4702  0.3813
 4562TIP3    H135177   4.513   6.057  16.021  0.7796  0.3982  0.5843
 4562TIP3    H235178   4.637   6.142  16.039  1.6062 -0.8611  0.9267
 4563TIP3   OH235179   4.371   4.975  15.647 -0.9358 -0.3173  0.0024
 4563TIP3    H135180   4.342   5.046  15.705  0.0154  0.3411 -0.3009
 4563TIP3    H235181   4.292   4.924  15.630 -1.5107  0.3061  0.7375
 4564TIP3   OH235182   5.417   4.328  15.325 -0.3816 -0.0865 -0.5407
 4564TIP3    H135183   5.327   4.316  15.296  0.3505 -1.1883 -2.4420
 4564TIP3    H235184   5.466   4.347  15.245  1.7163 -3.3371 -0.1070
 4565TIP3   OH235185   6.735   4.966   6.371 -0.3709 -0.7891  0.2483
 4565TIP3    H135186   6.784   4.888   6.347 -0.0932 -0.1072 -1.4725
 4565TIP3    H235187   6.720   5.012   6.288 -1.0595  0.6760  1.1528
 4566TIP3   OH235188   2.638   2.412  13.190 -0.6669 -0.2286 -0.1390
 4566TIP3    H135189   2.712   2.469  13.208 -1.1473 -0.0364  1.2522
 4566TIP3    H235190   2.675   2.340  13.138  0.8579 -1.0661  2.0337
 4567TIP3   OH235191   4.832   0.248  15.141  0.1937  0.5178  0.0810
 4567TIP3    H135192   4.830   0.173  15.081 -1.3662  0.9355 -0.4238
 4567TIP3    H235193   4.740   0.262  15.163  0.6201  1.3966  1.2930
 4568TIP3   OH235194   1.029   5.286  16.558  0.3367 -0.3562  0.1862
 4568TIP3    H135195   0.984   5.205  16.581 -1.3194  0.3528 -0.4854
 4568TIP3    H235196   1.103   5.291  16.619 -0.7641 -1.3000  1.6216
 4569TIP3   OH235197   4.716   3.540  13.892 -0.0800 -0.2312  0.4016
 4569TIP3    H135198   4.746   3.564  13.804 -0.3902 -0.4993  0.2212
 4569TIP3    H235199   4.788   3.565  13.949 -0.1340  0.5174  0.1444
 4570TIP3   OH235200   1.776   1.447   6.051 -0.2161 -0.0172 -0.0710
 4570TIP3    H135201   1.785   1.465   6.144  1.8830  0.3424 -0.3107
 4570TIP3    H235202   1.861   1.471   6.013 -0.1113 -2.6121 -1.6524
 4571TIP3   OH235203   3.258   5.451  16.383 -0.4413 -0.3629 -0.4510
 4571TIP3    H135204   3.177   5.417  16.422  0.3969 -0.5708  1.1542
 4571TIP3    H235205   3.230   5.492  16.301 -2.4137  1.0342  0.8850
 4572TIP3   OH235206   2.497   6.185   5.151 -0.4286  0.0475 -0.4603
 4572TIP3    H135207   2.407   6.193   5.183 -0.3424 -1.7363  0.2977
 4572TIP3    H235208   2.498   6.101   5.104  0.8386  0.0656 -0.4790
 4573TIP3   OH235209   2.862   2.207  15.239 -0.6906  0.1800 -0.4783
 4573TIP3    H135210   2.927   2.219  15.308 -0.9194 -0.5107 -0.1383
 4573TIP3    H235211   2.871   2.115  15.213 -0.7074  0.3937 -1.2672
 4574TIP3   OH235212   4.407   5.241  12.290 -0.3709 -0.1852  0.7050
 4574TIP3    H135213   4.316   5.212  12.300 -0.4573 -0.6603 -1.3339
 4574TIP3    H235214   4.450   5.170  12.241  0.9234  0.3762  1.0003
 4575TIP3   OH235215   6.003   6.354   0.210  0.1370 -0.5831 -0.0582
 4575TIP3    H135216   5.954   6.287   0.162 -0.1989 -2.4538  2.7095
 4575TIP3    H235217   6.016   6.315   0.297 -0.5745  3.2232  1.8297
 4576TIP3   OH235218   2.055   1.047   1.461 -0.0967 -0.0676 -0.1751
 4576TIP3    H135219   2.034   0.975   1.521  0.6940 -0.9808 -0.9715
 4576TIP3    H235220   1.972   1.070   1.420 -0.9129  1.5495  2.3315
 4577TIP3   OH235221   5.030   4.733  12.076  0.4445 -0.6614 -0.3551
 4577TIP3    H135222   5.096   4.785  12.030  0.6597 -0.8717 -0.2834
 4577TIP3    H235223   4.993   4.795  12.140 -1.5180  0.3240 -2.3767
 4578TIP3   OH235224   5.840   4.904   1.485 -0.1180  0.4308  0.0981
 4578TIP3    H135225   5.907   4.971   1.473 -0.9045  1.6028  1.9334
 4578TIP3    H235226   5.827   4.866   1.398  1.0086  2.0137 -0.7820
 4579TIP3   OH235227   5.789   4.049   4.669 -0.3846 -0.0866 -0.2644
 4579TIP3    H135228   5.859   4.051   4.604  0.1521 -1.3734  0.2645
 4579TIP3    H235229   5.818   4.110   4.737 -1.1125  1.5406 -1.3623
 4580TIP3   OH235230   4.518   6.354  14.493 -0.5306 -0.4005 -0.5997
 4580TIP3    H135231   4.498   6.355  14.587  2.5807  1.1072  0.1061
 4580TIP3    H235232   4.487   6.439  14.462  1.8812  0.7263 -0.0873
 4581TIP3   OH235233   3.856   1.204  15.609 -0.0620  0.1700  0.8593
 4581TIP3    H135234   3.906   1.211  15.690 -2.4331 -1.5580  2.5686
 4581TIP3    H235235   3.814   1.289  15.600  0.6972  0.5782  1.1133
 4582TIP3   OH235236   6.131   6.286   3.417 -0.1795 -0.1410  0.0856
 4582TIP3    H135237   6.122   6.194   3.442 -2.5993  0.3840  1.3560
 4582TIP3    H235238   6.052   6.328   3.452  1.5091  2.6708  0.6849
 4583TIP3   OH235239   5.460   1.728   5.365  0.0325 -0.2932  0.0263
 4583TIP3    H135240   5.441   1.662   5.432 -0.1948 -1.2236 -0.9456
 4583TIP3    H235241   5.515   1.792   5.409  1.2085 -1.7225  0.6689
 4584TIP3   OH235242   4.495   1.680  16.196  0.0812  0.0574 -0.0716
 4584TIP3    H135243   4.435   1.620  16.152 -1.8589  1.8747  0.0143
 4584TIP3    H235244   4.441   1.728  16.258  1.6832  1.5213  0.2490
 4585TIP3   OH235245   5.136   0.848   5.203 -0.4643 -0.2856 -0.4755
 4585TIP3    H135246   5.055   0.856   5.154 -1.0891 -0.0925  0.5670
 4585TIP3    H235247   5.109   0.853   5.295  0.6868 -0.5366 -0.1120
 4586TIP3   OH235248   0.500   4.115  13.282  0.0510 -0.3346 -0.2538
 4586TIP3    H135249   0.584   4.151  13.253  0.3192 -1.0332 -0.3628
 4586TIP3    H235250   0.519   4.075  13.367  0.4707 -2.8859 -1.4904
 4587TIP3   OH235251   4.433   2.535   4.257 -0.5161 -0.5685  0.5912
 4587TIP3    H135252   4.503   2.548   4.321 -0.3442  1.1516  0.0804
 4587TIP3    H235253   4.470   2.474   4.194  0.5798  0.3947  0.2751
 4588TIP3   OH235254   2.149   1.887  13.561 -0.7457 -0.1439  0.7127
 4588TIP3    H135255   2.212   1.938  13.613 -1.9383  0.8746  1.1840
 4588TIP3    H235256   2.201   1.852  13.489  0.8645 -1.2511  2.3368
 4589TIP3   OH235257   4.111   5.530   4.045 -0.5733  0.7404 -0.7055
 4589TIP3    H135258   4.124   5.597   4.112  0.9096 -0.0312 -0.1960
 4589TIP3    H235259   4.200   5.501   4.023 -1.2560 -2.0745  0.1153
 4590TIP3   OH235260   6.299   3.662  15.065  0.0017 -0.3479  0.1942
 4590TIP3    H135261   6.211   3.673  15.100  0.1799 -1.7801  1.1075
 4590TIP3    H235262   6.328   3.751  15.046 -2.0166  0.0897 -1.0838
 4591TIP3   OH235263   5.100   1.274   0.289  0.0372  0.0549 -0.0293
 4591TIP3    H135264   5.007   1.291   0.306  0.2047 -1.2495  2.3900
 4591TIP3    H235265   5.146   1.316   0.362  1.2590 -0.4402 -0.4981
 4592TIP3   OH235266   3.246   5.701  13.087 -0.3985 -0.0813 -0.8992
 4592TIP3    H135267   3.249   5.785  13.043  2.5287  0.2327 -0.2158
 4592TIP3    H235268   3.228   5.722  13.179 -0.2440 -0.2272 -0.8335
 4593TIP3   OH235269   3.455   5.269  13.371 -0.3031 -0.5981 -0.2948
 4593TIP3    H135270   3.468   5.293  13.462  0.7152 -0.2758 -0.5202
 4593TIP3    H235271   3.417   5.347  13.331  0.4488 -0.2891 -0.4209
 4594TIP3   OH235272   3.188   6.797   0.899 -0.3527 -0.0377  0.4364
 4594TIP3    H135273   3.177   6.712   0.858  1.1054 -0.1226  0.1848
 4594TIP3    H235274   3.117   6.850   0.864 -0.8676 -0.9583  0.0764
 4595TIP3   OH235275   4.125   4.690  14.031  0.2541 -0.5107 -0.0356
 4595TIP3    H135276   4.171   4.706  13.949  0.1289  0.1944  0.0232
 4595TIP3    H235277   4.106   4.778  14.064  0.4271 -0.7952  0.8180
 4596TIP3   OH235278   0.019   4.369   0.614 -0.2517 -0.4321  0.2989
 4596TIP3    H135279   0.094   4.341   0.667 -0.2742  0.6088  0.8810
 4596TIP3    H235280   0.057   4.414   0.540 -0.2997  0.2468  0.6819
 4597TIP3   OH235281   1.180   2.129   5.199  0.3030 -0.5734 -0.7195
 4597TIP3    H135282   1.245   2.063   5.222 -1.3690 -2.3934 -1.1070
 4597TIP3    H235283   1.167   2.120   5.105  0.0475  0.2968 -0.7774
 4598TIP3   OH235284   3.278   5.648  12.120 -0.8872  0.2683 -0.1369
 4598TIP3    H135285   3.209   5.665  12.056 -0.4052  0.1834 -0.6868
 4598TIP3    H235286   3.358   5.677  12.076 -0.4508 -0.5553  0.1028
 4599TIP3   OH235287   4.916   1.235  14.021  0.0903  0.7095  0.4489
 4599TIP3    H135288   5.011   1.222  14.015 -0.0932  0.1073 -1.5730
 4599TIP3    H235289   4.879   1.159  13.975 -1.3629  1.2200  0.7570
 4600TIP3   OH235290   2.772   2.531   4.134 -0.1471 -0.2875 -0.4110
 4600TIP3    H135291   2.710   2.602   4.115  0.7217  0.6393  0.2005
 4600TIP3    H235292   2.756   2.510   4.226  1.1157  0.6159  0.0207
 4601TIP3   OH235293   0.251   3.473  15.360 -0.6385  0.0961 -0.5915
 4601TIP3    H135294   0.331   3.514  15.326 -0.9938  1.1662 -0.1533
 4601TIP3    H235295   0.280   3.388  15.393 -0.0422 -0.3909 -2.3085
 4602TIP3   OH235296   1.954   3.800   2.067  0.3704 -0.0123  0.1157
 4602TIP3    H135297   1.960   3.796   2.163  0.7517 -0.8512  0.0676
 4602TIP3    H235298   1.865   3.828   2.050  0.5933  1.0916  0.7325
 4603TIP3   OH235299   2.138   4.714  15.473 -0.3283 -0.5287 -0.6376
 4603TIP3    H135300   2.200   4.758  15.531  0.5721 -0.9778 -1.2464
 4603TIP3    H235301   2.058   4.767  15.479  0.1511  0.1310  0.0569
 4604TIP3   OH235302   6.518   0.365   1.727 -0.7641 -0.2664 -0.4355
 4604TIP3    H135303   6.514   0.374   1.822 -1.4176  1.4154 -0.6003
 4604TIP3    H235304   6.520   0.271   1.711  0.5066 -0.5476  1.2835
 4605TIP3   OH235305   2.105   4.872  16.580 -0.0905  0.2384 -0.1696
 4605TIP3    H135306   2.086   4.894  16.671 -0.0318  0.4841 -0.2165
 4605TIP3    H235307   2.135   4.781  16.583  0.2359  0.3547  0.1014
 4606TIP3   OH235308   4.575   4.308   1.387 -0.0457 -0.7226  0.0692
 4606TIP3    H135309   4.501   4.368   1.378 -0.0606 -0.7644 -0.0998
 4606TIP3    H235310   4.552   4.252   1.461 -1.7473 -2.9278 -2.0214
 4607TIP3   OH235311   4.687   2.706   4.712 -0.6027 -0.2088  0.4064
 4607TIP3    H135312   4.690   2.655   4.793  0.9036 -0.3823  0.2569
 4607TIP3    H235313   4.703   2.642   4.642  0.8484  0.3858  0.1839
 4608TIP3   OH235314   0.475   6.512  12.135 -0.5996 -0.2464 -0.2620
 4608TIP3    H135315   0.385   6.482  12.125 -0.9483  0.8197 -0.3756
 4608TIP3    H235316   0.487   6.523  12.229 -0.6509 -0.2025 -0.2606
 4609TIP3   OH235317   4.053   1.522  13.850 -0.0004 -0.0169 -0.1684
 4609TIP3    H135318   4.073   1.479  13.933 -1.5875  0.2166  0.3551
 4609TIP3    H235319   4.080   1.612  13.863 -0.2434  0.0186  0.1042
 4610TIP3   OH235320   4.212   5.435  12.978  0.1987  0.0351 -0.3522
 4610TIP3    H135321   4.194   5.529  12.971  1.4191  0.1530 -2.1632
 4610TIP3    H235322   4.248   5.425  13.066 -1.4082  1.0047  0.4392
 4611TIP3   OH235323   0.559   0.044  12.469 -0.5120  0.1038  0.3006
 4611TIP3    H135324   0.654   0.033  12.463 -0.3465  2.6622 -2.8079
 4611TIP3    H235325   0.525   0.007  12.388 -1.8979  1.7926  0.0885
 4612TIP3   OH235326   4.702   0.344  13.001 -0.1461 -0.0980  0.0075
 4612TIP3    H135327   4.653   0.275  13.046 -0.0910  0.6495  1.2453
 4612TIP3    H235328   4.699   0.418  13.061  1.3084  0.4052 -0.5259
 4613TIP3   OH235329   4.255   2.587   2.937  0.4023  0.2658 -0.1537
 4613TIP3    H135330   4.264   2.673   2.978 -0.2853 -0.0019  0.5579
 4613TIP3    H235331   4.163   2.565   2.947  0.3824 -0.1469 -1.1647
 4614TIP3   OH235332   5.472   2.562   5.841  0.5451  0.7051  0.0319
 4614TIP3    H135333   5.446   2.639   5.893  0.2182  0.0085  0.9093
 4614TIP3    H235334   5.390   2.533   5.800  1.3425  3.2775 -3.6836
 4615TIP3   OH235335   3.222   1.078   4.578 -0.0252  0.8014  0.3686
 4615TIP3    H135336   3.275   1.128   4.516 -0.0360 -1.9389 -1.9393
 4615TIP3    H235337   3.275   1.001   4.599 -1.5480 -0.1221  0.9306
 4616TIP3   OH235338   0.101   6.804  14.042 -0.0316  0.0453  0.3914
 4616TIP3    H135339   0.092   6.898  14.032 -0.0551  0.1671  1.4583
 4616TIP3    H235340   0.102   6.770  13.953 -1.2842  0.9348  0.0307
 4617TIP3   OH235341   2.019   6.213   4.181  0.5700  0.4669 -0.0623
 4617TIP3    H135342   2.069   6.291   4.205  2.0262 -0.8495  1.3194
 4617TIP3    H235343   1.948   6.210   4.245  0.3503  0.8063 -0.2896
 4618TIP3   OH235344   2.810   5.481  16.881  0.2759 -0.0201 -0.6671
 4618TIP3    H135345   2.814   5.454  16.973 -2.5184  0.0573 -0.4593
 4618TIP3    H235346   2.861   5.416  16.834  0.1997 -1.1208  0.7513
 4619TIP3   OH235347   0.401   5.713  17.104  0.2341 -0.7612  0.1747
 4619TIP3    H135348   0.377   5.625  17.132 -0.8380 -0.3337  0.5938
 4619TIP3    H235349   0.486   5.702  17.062  0.4821 -1.8650  0.9541
 4620TIP3   OH235350   0.323   6.797  12.250  0.8279 -0.0900  0.3502
 4620TIP3    H135351   0.291   6.879  12.286 -0.7688 -0.4761 -0.1540
 4620TIP3    H235352   0.249   6.736  12.258  1.5298 -1.0915 -0.5373
 4621TIP3   OH235353   2.378   0.643   2.450 -0.5955  0.0483  0.0765
 4621TIP3    H135354   2.361   0.559   2.407 -0.1010  0.3599 -0.7375
 4621TIP3    H235355   2.312   0.648   2.520  0.2256 -1.6067  0.9859
 4622TIP3   OH235356   2.205   3.204   0.115  0.0223 -0.2685 -0.6045
 4622TIP3    H135357   2.202   3.112   0.140 -0.0821  0.2607  1.4075
 4622TIP3    H235358   2.120   3.221   0.074 -0.4217 -0.7572  0.1217
 4623TIP3   OH235359   6.370   1.201  14.861  0.0000  0.4234 -0.9673
 4623TIP3    H135360   6.372   1.255  14.782  2.4329 -0.1116 -1.3337
 4623TIP3    H235361   6.355   1.112  14.828  0.1551  0.3158 -0.7470
 4624TIP3   OH235362   3.921   2.960  14.714 -0.3072  0.3053  0.2891
 4624TIP3    H135363   3.843   3.017  14.713 -0.5360 -0.0127 -0.4307
 4624TIP3    H235364   3.898   2.887  14.656  0.6332  0.3555 -0.1543
 4625TIP3   OH235365   1.141   2.760   2.070  0.1632 -0.9134 -0.5152
 4625TIP3    H135366   1.080   2.705   2.022  0.1893 -1.6225  0.2630
 4625TIP3    H235367   1.107   2.763   2.159  0.4951 -0.1728 -0.4047
 4626TIP3   OH235368   5.666   3.512  11.956 -0.1505  0.5680  0.0832
 4626TIP3    H135369   5.703   3.573  12.020  0.1407  0.8318 -0.3331
 4626TIP3    H235370   5.719   3.432  11.967  1.4969  1.4127 -1.4924
 4627TIP3   OH235371   4.566   5.690   4.733 -0.1572 -0.1421 -0.3225
 4627TIP3    H135372   4.529   5.769   4.772 -0.9953 -0.7510  0.1404
 4627TIP3    H235373   4.647   5.675   4.782 -0.0610  0.3619 -0.3260
 4628TIP3   OH235374   3.460   4.638  12.033  0.0412 -0.0032  0.1005
 4628TIP3    H135375   3.390   4.656  11.970  1.4142 -0.2731 -1.5501
 4628TIP3    H235376   3.533   4.692  12.003  0.6258  0.0909  1.6643
 4629TIP3   OH235377   3.692   5.372  13.522  0.5610  0.0064 -0.3309
 4629TIP3    H135378   3.649   5.303  13.573  1.2205 -0.3549 -0.2655
 4629TIP3    H235379   3.748   5.417  13.585 -0.2472  0.9388 -0.2569
 4630TIP3   OH235380   3.859   0.989  16.913 -0.0305  0.4153 -0.1038
 4630TIP3    H135381   3.877   1.081  16.929  0.1475  0.2029  0.9516
 4630TIP3    H235382   3.783   0.969  16.967  0.1791 -0.1625 -0.0177
 4631TIP3   OH235383   5.989   3.151  16.515  0.2679 -0.5547 -0.2544
 4631TIP3    H135384   5.958   3.100  16.589  2.0954  0.1102  1.0024
 4631TIP3    H235385   5.915   3.207  16.491 -0.5892 -1.3398  0.5624
 4632TIP3   OH235386   1.020   3.149   2.095 -0.5470 -0.2364 -0.0809
 4632TIP3    H135387   0.981   3.109   2.172 -2.4764  1.8816  0.1014
 4632TIP3    H235388   0.946   3.173   2.040  0.6613  0.8234 -1.2814
 4633TIP3   OH235389   2.831   6.685  14.970 -0.0336 -0.1428  0.5984
 4633TIP3    H135390   2.876   6.604  14.943 -0.0963  0.5813 -1.8254
 4633TIP3    H235391   2.900   6.751  14.972 -0.2313  0.0479  1.2027
 4634TIP3   OH235392   2.545   2.862  15.394  0.0531 -0.1645 -0.5183
 4634TIP3    H135393   2.513   2.854  15.484  1.9162 -1.1686  0.0985
 4634TIP3    H235394   2.498   2.937  15.358 -2.5836 -1.2798  0.4626
 4635TIP3   OH235395   2.613   2.265   4.654 -0.0469  0.4409  0.0614
 4635TIP3    H135396   2.631   2.232   4.742  0.5913 -0.1543 -0.2811
 4635TIP3    H235397   2.519   2.253   4.642 -0.5016  2.3833  1.4087
 4636TIP3   OH235398   1.493   3.232   5.905 -0.1570 -0.4352  0.3042
 4636TIP3    H135399   1.399   3.223   5.891 -0.2101  0.3249  0.1171
 4636TIP3    H235400   1.528   3.144   5.893 -0.6072 -0.3828 -1.5662
 4637TIP3   OH235401   5.152   1.478   4.096  0.2019 -0.2475  0.4959
 4637TIP3    H135402   5.076   1.442   4.143  0.5396 -2.4759 -0.5943
 4637TIP3    H235403   5.122   1.486   4.006  0.7480  0.4976  0.3749
 4638TIP3   OH235404   1.020   3.282  15.684  0.0338  0.0875  0.2577
 4638TIP3    H135405   1.112   3.264  15.704  0.1780 -2.4934 -2.4336
 4638TIP3    H235406   1.022   3.363  15.633  0.9021 -0.3760 -0.4569
 4639TIP3   OH235407   2.374   2.440  16.023 -0.0422 -0.0999 -0.2252
 4639TIP3    H135408   2.329   2.438  15.938 -1.1360 -1.8406  0.3654
 4639TIP3    H235409   2.441   2.372  16.016  1.0474  0.9715 -0.3097
 4640TIP3   OH235410   3.553   0.319  12.425  0.0734  0.3278  0.1250
 4640TIP3    H135411   3.460   0.331  12.444 -0.9869 -3.2909 -2.1861
 4640TIP3    H235412   3.585   0.264  12.496 -0.3942 -1.2115 -0.8385
 4641TIP3   OH235413   6.552   6.396   6.727  0.4121 -0.1629 -0.4573
 4641TIP3    H135414   6.480   6.379   6.788  1.0382 -0.9564  0.0660
 4641TIP3    H235415   6.534   6.484   6.693 -0.0194  0.2185  0.7511
 4642TIP3   OH235416   2.013   3.628  14.244 -0.1912 -0.2683  0.0409
 4642TIP3    H135417   2.030   3.721  14.234  2.3738 -0.4309  2.2288
 4642TIP3    H235418   1.934   3.624  14.297 -1.8201  0.6023 -2.2540
 4643TIP3   OH235419   0.283   5.546  16.522 -0.3407  0.2108 -0.1344
 4643TIP3    H135420   0.225   5.558  16.447  0.1846  2.1656 -0.2576
 4643TIP3    H235421   0.371   5.554  16.487  0.0013 -1.7251  0.2300
 4644TIP3   OH235422   6.072   2.245   5.711 -0.3979  0.0254 -0.2295
 4644TIP3    H135423   5.985   2.207   5.726 -0.3527 -0.2880 -0.7602
 4644TIP3    H235424   6.055   2.318   5.651 -0.4082  0.5061  0.3464
 4645TIP3   OH235425   6.373   4.887  11.466 -0.0284  0.4782 -0.1155
 4645TIP3    H135426   6.286   4.914  11.436 -0.3503  0.5420  0.8662
 4645TIP3    H235427   6.380   4.922  11.554 -0.2621 -2.1883  1.0132
 4646TIP3   OH235428   4.355   6.755   5.935  0.0289 -0.5086  0.0500
 4646TIP3    H135429   4.358   6.771   5.841  2.5786  0.2598  0.2073
 4646TIP3    H235430   4.345   6.841   5.974  1.4245 -0.5337  0.5220
 4647TIP3   OH235431   2.969   1.830  12.751 -0.3412 -0.1014  0.0113
 4647TIP3    H135432   2.930   1.763  12.807 -0.6702  0.2847  0.2464
 4647TIP3    H235433   3.024   1.781  12.690 -1.5152 -0.6948 -0.5926
 4648TIP3   OH235434   1.377   0.185   0.939 -0.6523  0.1526  0.5518
 4648TIP3    H135435   1.297   0.228   0.906 -2.0676 -2.6900  0.1077
 4648TIP3    H235436   1.379   0.207   1.032 -3.6046 -2.0434  1.2214
 4649TIP3   OH235437   0.801   4.328   0.164 -0.3468  0.5528 -0.1743
 4649TIP3    H135438   0.709   4.317   0.139 -0.5809  1.0423  0.4348
 4649TIP3    H235439   0.807   4.284   0.249  0.0879  0.1507 -0.4136
 4650TIP3   OH235440   1.841   4.411   2.778  0.5915  0.0415  0.1472
 4650TIP3    H135441   1.900   4.473   2.735  2.2118 -0.5112  1.5086
 4650TIP3    H235442   1.849   4.331   2.725  0.1097  0.3492 -0.3925
 4651TIP3   OH235443   6.360   0.562   0.503 -0.3940  0.3755 -0.8730
 4651TIP3    H135444   6.378   0.656   0.501 -1.1855  0.5701  0.7663
 4651TIP3    H235445   6.312   0.548   0.584  0.2970 -1.5527 -0.7638
 4652TIP3   OH235446   1.337   3.528  13.218  0.7781  0.1050  0.2604
 4652TIP3    H135447   1.366   3.538  13.127 -0.0416 -2.9596 -0.4071
 4652TIP3    H235448   1.290   3.608  13.237  2.4776  1.5523 -1.4334
 4653TIP3   OH235449   5.010   4.355  16.401 -0.1586  0.1270 -0.0537
 4653TIP3    H135450   4.976   4.350  16.490  0.6773 -0.9780  0.2144
 4653TIP3    H235451   5.096   4.395  16.410 -0.2468  0.4010 -0.4114
 4654TIP3   OH235452   4.232   2.235   3.169 -0.1089  0.0392 -0.6570
 4654TIP3    H135453   4.182   2.312   3.197  1.2962  0.1976  1.5713
 4654TIP3    H235454   4.320   2.268   3.152  0.3090 -0.9189 -0.4309
 4655TIP3   OH235455   2.735   2.154   3.780  0.1968 -0.1932  0.0070
 4655TIP3    H135456   2.729   2.217   3.852  0.6037  0.0492 -0.1686
 4655TIP3    H235457   2.826   2.126   3.780 -0.1247 -1.2740  0.4893
 4656TIP3   OH235458   1.618   1.222  12.851  1.4311 -0.2368 -0.5856
 4656TIP3    H135459   1.578   1.174  12.779 -0.0475 -0.0500  0.0981
 4656TIP3    H235460   1.653   1.155  12.909  0.6720 -0.4526 -0.3743
 4657TIP3   OH235461   0.346   4.664   4.406 -0.0477 -0.2250 -0.4959
 4657TIP3    H135462   0.312   4.709   4.329  1.7659  0.0076 -1.1787
 4657TIP3    H235463   0.317   4.573   4.396  0.2888 -0.2264 -1.5311
 4658TIP3   OH235464   5.930   0.115  13.213  0.1198  0.0173  0.3984
 4658TIP3    H135465   5.878   0.113  13.133  0.1011 -1.4296  0.4493
 4658TIP3    H235466   5.884   0.178  13.269  1.7235  3.2855 -1.7767
 4659TIP3   OH235467   1.916   2.028  12.840  0.4508  0.2937  0.0496
 4659TIP3    H135468   1.995   2.020  12.787  0.4549  0.1018  0.0836
 4659TIP3    H235469   1.902   2.122  12.848 -1.0415  0.3484 -2.5330
 4660TIP3   OH235470   1.646   3.425   4.917 -0.3699  0.2259 -0.5619
 4660TIP3    H135471   1.683   3.337   4.914 -1.2463 -0.2221  1.2028
 4660TIP3    H235472   1.554   3.413   4.893 -0.5023  0.6577 -0.2772
 4661TIP3   OH235473   3.911   4.635   5.949 -0.3782  0.2585 -0.1507
 4661TIP3    H135474   3.844   4.676   6.004 -1.5436 -0.8952 -0.7087
 4661TIP3    H235475   3.975   4.601   6.011 -0.0274  1.8217  0.3665
 4662TIP3   OH235476   6.015   6.548  17.057  0.2770 -0.4989 -0.4297
 4662TIP3    H135477   6.063   6.514  16.981  0.8288  1.8313 -1.1776
 4662TIP3    H235478   6.045   6.639  17.065 -1.5135 -0.0242  1.1631
 4663TIP3   OH235479   3.857   5.969  15.709  0.2717  0.1318  0.3528
 4663TIP3    H135480   3.862   6.001  15.619  1.6949 -0.5096  0.2033
 4663TIP3    H235481   3.788   6.023  15.749  0.0460  0.8275 -0.9450
 4664TIP3   OH235482   4.528   0.932  11.364 -0.5049 -0.2569 -0.0283
 4664TIP3    H135483   4.452   0.976  11.327  0.6399  1.3856 -0.4749
 4664TIP3    H235484   4.511   0.928  11.458 -0.3506  1.7341  0.1015
 4665TIP3   OH235485   2.467   2.406  17.227 -0.3562 -0.1770  0.0367
 4665TIP3    H135486   2.414   2.454  17.163  2.1849  1.9545 -0.5467
 4665TIP3    H235487   2.477   2.467  17.300  3.3008  0.4403 -0.9044
 4666TIP3   OH235488   5.968   3.301  14.479  0.2767 -0.4226  1.1754
 4666TIP3    H135489   5.890   3.304  14.534 -0.3888  0.5411  0.1742
 4666TIP3    H235490   6.001   3.391  14.479  0.4131 -0.4681  0.2024
 4667TIP3   OH235491   1.197   6.274   0.187 -0.0530  0.4032  0.2356
 4667TIP3    H135492   1.285   6.284   0.150 -0.5281  1.5691 -0.6080
 4667TIP3    H235493   1.163   6.195   0.146  0.1268  0.6499 -0.3906
 4668TIP3   OH235494   2.447   3.693   4.148 -0.3943  0.0524  0.4205
 4668TIP3    H135495   2.447   3.746   4.227  0.6540 -0.2470  0.6221
 4668TIP3    H235496   2.496   3.745   4.084  2.6371 -1.6347  1.2860
 4669TIP3   OH235497   5.791   4.796   2.872 -0.0905  0.5703 -0.0092
 4669TIP3    H135498   5.724   4.729   2.857  0.0781  0.2233  0.7710
 4669TIP3    H235499   5.847   4.792   2.795  0.1083 -0.4127  0.1788
 4670TIP3   OH235500   2.488   5.686  11.457  0.3746 -0.1272 -0.2681
 4670TIP3    H135501   2.557   5.752  11.455 -0.8894  1.2327 -0.1855
 4670TIP3    H235502   2.476   5.661  11.365  0.2041  0.4422 -0.3974
 4671TIP3   OH235503   5.236   5.336  15.350  0.0573 -0.1833 -0.1536
 4671TIP3    H135504   5.259   5.414  15.400 -1.4596  1.8060 -2.4614
 4671TIP3    H235505   5.153   5.307  15.387  0.0393 -0.0175 -0.0645
 4672TIP3   OH235506   2.727   6.793   1.852 -0.1287 -0.0137 -0.0112
 4672TIP3    H135507   2.789   6.866   1.853 -0.2191  0.0691 -0.5256
 4672TIP3    H235508   2.747   6.746   1.772  0.3327 -0.9049  0.6231
 4673TIP3   OH235509   3.122   3.865  16.548  0.5113  0.4526  0.3516
 4673TIP3    H135510   3.187   3.834  16.484  1.2861 -0.9407  1.7688
 4673TIP3    H235511   3.173   3.881  16.627 -0.9405 -1.1898  1.6505
 4674TIP3   OH235512   0.659   1.755   0.754  0.2570  0.1624 -0.0323
 4674TIP3    H135513   0.663   1.682   0.692  0.5545 -0.2951  0.5182
 4674TIP3    H235514   0.649   1.713   0.840  2.2808  0.6911  0.4894
 4675TIP3   OH235515   3.695   5.963  16.030  0.4379  0.1853 -0.0947
 4675TIP3    H135516   3.731   5.878  16.053  0.6599  0.0241 -0.9905
 4675TIP3    H235517   3.615   5.942  15.981 -0.7098  0.5332  1.6057
 4676TIP3   OH235518   4.789   1.431  11.097  0.0681  0.0090 -0.5527
 4676TIP3    H135519   4.784   1.438  11.002  2.3077 -1.9071 -0.8484
 4676TIP3    H235520   4.801   1.522  11.127 -2.8542  0.9012 -1.8711
 4677TIP3   OH235521   5.896   6.054  14.651 -0.1928  0.4065 -0.0126
 4677TIP3    H135522   5.861   6.136  14.615 -0.7784  0.7345  1.2939
 4677TIP3    H235523   5.985   6.076  14.680  0.1697  0.2171 -0.9466
 4678TIP3   OH235524   0.361   5.900   0.858  0.3897  0.3538 -0.1505
 4678TIP3    H135525   0.292   5.872   0.919 -1.0365  0.6905 -1.5692
 4678TIP3    H235526   0.375   5.992   0.878  0.0239  0.4263 -0.2209
 4679TIP3   OH235527   0.141   6.292  12.571 -1.1184  0.0278 -0.1730
 4679TIP3    H135528   0.215   6.349  12.553 -2.4517  1.1642 -2.1661
 4679TIP3    H235529   0.075   6.349  12.610 -1.8006 -0.5100 -0.5239
 4680TIP3   OH235530   1.067   2.883   3.485  0.3453  0.1139 -0.0768
 4680TIP3    H135531   1.079   2.801   3.532  1.6958  0.4292  0.1478
 4680TIP3    H235532   0.983   2.917   3.516 -0.4861 -1.4443 -0.5911
 4681TIP3   OH235533   1.467   5.073  13.622  0.6332 -0.0896 -0.2621
 4681TIP3    H135534   1.392   5.085  13.564  0.2582 -0.2583  0.1838
 4681TIP3    H235535   1.496   5.162  13.644  0.5032 -0.0254 -0.3555
 4682TIP3   OH235536   0.445   5.198   5.975 -0.0064 -0.4324  0.2144
 4682TIP3    H135537   0.422   5.286   5.945  0.9935 -0.1278  0.3468
 4682TIP3    H235538   0.398   5.188   6.058 -1.9551 -0.8935 -0.9032
 4683TIP3   OH235539   4.283   4.974   3.101 -0.6297  0.5616  0.0636
 4683TIP3    H135540   4.205   5.019   3.071 -0.5535  1.3987  1.0982
 4683TIP3    H235541   4.356   5.031   3.075 -0.4344  0.3248  0.0820
 4684TIP3   OH235542   1.471   5.483  11.801  0.4176 -0.5883  0.2502
 4684TIP3    H135543   1.495   5.440  11.719  0.5014 -0.0903  0.0169
 4684TIP3    H235544   1.545   5.465  11.859  0.7599 -0.1876 -0.0579
 4685TIP3   OH235545   0.526   1.083  15.923 -0.2583 -0.9215 -0.2972
 4685TIP3    H135546   0.596   1.122  15.976 -0.8533  0.4661 -0.5202
 4685TIP3    H235547   0.552   1.102  15.832 -2.5443  2.5626 -0.3325
 4686TIP3   OH235548   3.519   2.995   1.165 -0.6340 -0.2019 -0.3464
 4686TIP3    H135549   3.503   2.989   1.260  1.0547  0.9874  0.0360
 4686TIP3    H235550   3.571   2.917   1.145 -0.4665 -0.1392 -0.1643
 4687TIP3   OH235551   0.824   1.576   1.149 -0.5032  0.4059 -0.4917
 4687TIP3    H135552   0.913   1.548   1.170 -0.1235 -0.1616 -2.7513
 4687TIP3    H235553   0.790   1.612   1.231  1.2207 -0.8707  0.8157
 4688TIP3   OH235554   4.262   6.770   2.390 -0.7402 -0.0383  0.2060
 4688TIP3    H135555   4.167   6.759   2.390 -0.7193 -0.5027 -1.9357
 4688TIP3    H235556   4.296   6.681   2.404 -0.6328  0.0688  0.6076
 4689TIP3   OH235557   6.636   6.120   1.759 -0.2950 -0.5804 -0.1348
 4689TIP3    H135558   6.726   6.098   1.786 -0.2061 -1.0087 -0.7715
 4689TIP3    H235559   6.582   6.097   1.834 -0.0818 -2.0346 -0.4254
 4690TIP3   OH235560   2.215   6.614  13.781 -0.5407 -0.6494  0.1163
 4690TIP3    H135561   2.279   6.569  13.726 -0.6749 -1.3532  0.5218
 4690TIP3    H235562   2.155   6.545  13.810 -0.7874 -0.2011  0.7077
 4691TIP3   OH235563   0.773   4.612  12.277  0.3799 -0.3687  0.3255
 4691TIP3    H135564   0.739   4.606  12.188 -2.2317 -1.3924  1.3428
 4691TIP3    H235565   0.850   4.555  12.277  0.4667 -0.2826 -1.2798
 4692TIP3   OH235566   1.408   1.350   2.230  0.2735 -0.4372  0.1682
 4692TIP3    H135567   1.490   1.308   2.207  0.3675 -1.3298  2.0545
 4692TIP3    H235568   1.420   1.380   2.320 -1.6670 -1.1035  0.6787
 4693TIP3   OH235569   0.984   0.826   6.226  0.4120  0.7794 -0.2621
 4693TIP3    H135570   0.937   0.869   6.297  1.3469  0.3066  0.6577
 4693TIP3    H235571   0.941   0.742   6.216  0.6235  0.6281  0.1079
 4694TIP3   OH235572   1.786   2.455   3.792  0.0490  0.7182 -0.0573
 4694TIP3    H135573   1.774   2.507   3.713  1.5143 -0.4032 -1.0212
 4694TIP3    H235574   1.869   2.484   3.828 -0.7547  1.4478  1.2782
 4695TIP3   OH235575   4.499   0.975  11.649  0.3240  0.0179  0.1425
 4695TIP3    H135576   4.543   1.002  11.730 -0.0135 -0.7831  0.5960
 4695TIP3    H235577   4.407   0.999  11.663  0.6068  1.7606 -0.8337
 4696TIP3   OH235578   4.493   2.248   3.100 -0.4757 -0.0546  0.0327
 4696TIP3    H135579   4.533   2.240   3.186  1.4769  1.6742 -0.6731
 4696TIP3    H235580   4.550   2.197   3.042  0.7401  2.4022 -0.9779
 4697TIP3   OH235581   3.161   2.540   5.320 -0.6900  0.8056  0.1800
 4697TIP3    H135582   3.146   2.447   5.335  0.0555  0.6404 -0.0890
 4697TIP3    H235583   3.218   2.543   5.243 -0.3660  1.4624  0.4421
 4698TIP3   OH235584   5.298   2.331  13.303  0.4763 -0.7455  0.4756
 4698TIP3    H135585   5.301   2.414  13.352 -2.0477 -0.9222  1.0265
 4698TIP3    H235586   5.259   2.269  13.365 -0.1278 -1.6731 -0.8136
 4699TIP3   OH235587   5.734   3.501   4.630 -0.5842  0.4000  0.3079
 4699TIP3    H135588   5.689   3.504   4.715 -0.2332  0.2770  0.4973
 4699TIP3    H235589   5.745   3.408   4.612 -0.2231  0.4331  0.3559
 4700TIP3   OH235590   5.741   0.530   5.648 -0.2002 -0.2670 -0.0844
 4700TIP3    H135591   5.832   0.557   5.656  0.1154 -1.5002  0.7862
 4700TIP3    H235592   5.708   0.575   5.571  1.2275 -0.0069 -0.5426
 4701TIP3   OH235593   0.446   4.616  14.516  0.1779  0.3137 -0.0593
 4701TIP3    H135594   0.512   4.586  14.578 -0.2967 -0.6325 -0.0065
 4701TIP3    H235595   0.493   4.622  14.433  0.9047  1.9333  0.4462
 4702TIP3   OH235596   4.668   6.562  12.465  0.2622  0.0673 -0.0617
 4702TIP3    H135597   4.648   6.569  12.372 -1.1319  2.1932  0.3840
 4702TIP3    H235598   4.725   6.636  12.484 -0.9396  0.6931  1.1637
 4703TIP3   OH235599   0.747   5.322   0.630 -0.4870 -0.0391 -0.7134
 4703TIP3    H135600   0.775   5.252   0.690  0.0328 -1.3390 -2.4147
 4703TIP3    H235601   0.825   5.341   0.578 -0.6124  1.8824 -0.2255
 4704TIP3   OH235602   5.856   0.035  11.296  0.5516 -0.1067  0.2063
 4704TIP3    H135603   5.831   0.102  11.360  0.7426 -1.8389  2.1487
 4704TIP3    H235604   5.773  -0.005  11.269  0.7426 -2.2129  2.5894
 4705TIP3   OH235605   5.675   3.916   0.927  0.7294 -0.4145 -0.0254
 4705TIP3    H135606   5.591   3.950   0.898  0.3782 -1.5922 -0.4203
 4705TIP3    H235607   5.700   3.972   1.000 -0.6123 -0.3501  0.3891
 4706TIP3   OH235608   3.789   2.388  15.901  0.7527  0.6921 -0.3222
 4706TIP3    H135609   3.711   2.332  15.904  1.7595 -0.6759  1.1688
 4706TIP3    H235610   3.787   2.428  15.814 -0.7812 -0.5110 -0.8578
 4707TIP3   OH235611   1.419   1.093  15.348 -0.5819  0.4119 -0.0843
 4707TIP3    H135612   1.497   1.057  15.305 -0.3696  0.9106 -0.1279
 4707TIP3    H235613   1.385   1.021  15.401 -1.3151 -0.4632 -1.7088
 4708TIP3   OH235614   4.328   4.597  16.755  0.2150 -0.0464  0.1008
 4708TIP3    H135615   4.265   4.664  16.781 -1.9121 -1.4700 -1.2661
 4708TIP3    H235616   4.312   4.524  16.816 -0.3033 -0.8614 -0.9926
 4709TIP3   OH235617   0.680   6.059  11.364 -0.0823  0.0416  0.1565
 4709TIP3    H135618   0.757   6.095  11.409 -0.3492  0.4986  0.2549
 4709TIP3    H235619   0.620   6.035  11.434 -0.4053  0.5447  0.0617
 4710TIP3   OH235620   4.831   4.597   5.829  0.2512 -0.2727 -0.3073
 4710TIP3    H135621   4.867   4.582   5.741 -0.3527 -2.3266 -0.2318
 4710TIP3    H235622   4.803   4.510   5.858 -1.7362  0.7779  0.9733
 4711TIP3   OH235623   3.294   4.534   0.122 -0.0805 -0.7165 -0.0337
 4711TIP3    H135624   3.356   4.531   0.195 -0.1250  0.9488  0.1122
 4711TIP3    H235625   3.246   4.452   0.127  0.0228 -0.6909  1.7440
 4712TIP3   OH235626   1.026   5.560  16.424 -0.7392  0.3640  0.5577
 4712TIP3    H135627   1.066   5.479  16.455  0.7407  1.1089  0.6575
 4712TIP3    H235628   0.933   5.548  16.439 -0.7204 -1.9448 -0.8396
 4713TIP3   OH235629   0.499   5.370  13.453 -0.9407 -0.4331 -0.3386
 4713TIP3    H135630   0.580   5.346  13.498 -1.1952 -1.3981 -0.3744
 4713TIP3    H235631   0.497   5.465  13.455  1.2965 -0.3068 -2.2800
 4714TIP3   OH235632   5.297   0.391  11.927  0.1336 -0.0376 -0.4360
 4714TIP3    H135633   5.292   0.383  11.832  1.9404  0.0978 -0.5603
 4714TIP3    H235634   5.292   0.485  11.944  0.9168  0.0189 -0.4865
 4715TIP3   OH235635   0.529   5.183   0.667  0.5125  0.6702 -0.0939
 4715TIP3    H135636   0.578   5.265   0.678  0.9074  0.4584 -0.2609
 4715TIP3    H235637   0.516   5.151   0.756  1.7040  0.1308 -0.1103
 4716TIP3   OH235638   4.772   2.370  16.994  0.1013  0.5565 -1.0205
 4716TIP3    H135639   4.695   2.388  16.939  0.0220  0.1329 -1.0504
 4716TIP3    H235640   4.819   2.302  16.947 -0.3300 -0.3029 -0.2206
 4717TIP3   OH235641   3.807   6.597   0.911  0.2418  0.0479  0.0386
 4717TIP3    H135642   3.778   6.517   0.867 -4.3838 -0.2913  3.2395
 4717TIP3    H235643   3.756   6.667   0.870 -0.9762  0.2802  1.8646
 4718TIP3   OH235644   0.636   5.080   2.022 -0.3691 -0.1216  0.8886
 4718TIP3    H135645   0.637   5.131   2.103 -1.5407  2.2368 -0.5138
 4718TIP3    H235646   0.563   5.019   2.033  0.0276 -0.4174  1.9452
 4719TIP3   OH235647   5.176   5.116  14.399 -0.6760  0.7566 -0.1923
 4719TIP3    H135648   5.126   5.127  14.480 -0.0776 -1.4403  0.5071
 4719TIP3    H235649   5.251   5.174  14.410 -0.0637 -0.2830  1.3031
 4720TIP3   OH235650   5.342   5.144  16.601 -0.0549  0.2018 -0.5299
 4720TIP3    H135651   5.313   5.233  16.583  0.6930  0.2689 -1.4134
 4720TIP3    H235652   5.424   5.135  16.553 -1.0822 -1.5927 -2.0114
 4721TIP3   OH235653   0.819   3.536   2.204 -0.7697 -0.6463 -0.1726
 4721TIP3    H135654   0.773   3.605   2.251  2.9082  1.9711 -0.1980
 4721TIP3    H235655   0.786   3.542   2.114 -0.6909  0.9759 -0.1105
 4722TIP3   OH235656   3.364   5.137  16.091  0.4471 -0.6158 -0.0501
 4722TIP3    H135657   3.408   5.122  16.174  2.0098  0.9277 -0.5768
 4722TIP3    H235658   3.404   5.216  16.056  0.2126 -1.5484 -2.5527
 4723TIP3   OH235659   2.863   3.437   2.617 -0.0726  0.2779  0.2868
 4723TIP3    H135660   2.803   3.488   2.562  0.7842 -0.4788 -1.3816
 4723TIP3    H235661   2.909   3.503   2.670  0.5152  1.1915 -1.3291
 4724TIP3   OH235662   4.328   2.495  15.028 -0.0807  0.2654 -0.0697
 4724TIP3    H135663   4.243   2.524  14.993  0.9610  0.2056 -2.7705
 4724TIP3    H235664   4.308   2.416  15.078 -1.3764 -1.0116 -2.4970
 4725TIP3   OH235665   5.208   6.372   3.766  0.7264 -0.1608  0.0891
 4725TIP3    H135666   5.132   6.313   3.766 -0.4452  1.3109 -0.0272
 4725TIP3    H235667   5.222   6.393   3.858  0.3240  0.3944  0.0271
 4726TIP3   OH235668   2.463   5.989  16.611 -0.7817 -0.2863  0.0310
 4726TIP3    H135669   2.487   5.981  16.703 -0.5750 -1.5287 -0.1135
 4726TIP3    H235670   2.536   6.035  16.571 -1.0546  0.6107  0.5601
 4727TIP3   OH235671   4.566   0.188  15.142  0.2320 -0.3098  0.1628
 4727TIP3    H135672   4.573   0.275  15.102 -0.2634 -0.5928 -0.5561
 4727TIP3    H235673   4.504   0.141  15.086 -0.5995 -0.6650  1.3465
 4728TIP3   OH235674   1.416   1.449  14.562  0.3853  0.2117  0.2502
 4728TIP3    H135675   1.452   1.514  14.503  0.6652 -0.4331 -0.2983
 4728TIP3    H235676   1.349   1.403  14.510  1.8308 -1.5136 -0.1497
 4729TIP3   OH235677   6.383   5.075  10.522  0.5163  0.2261 -0.0106
 4729TIP3    H135678   6.446   5.051  10.590  1.8801  0.1559 -1.2684
 4729TIP3    H235679   6.338   5.152  10.557  1.7028  0.6132  0.6948
 4730TIP3   OH235680   4.297   1.013  13.335  0.4248 -0.1899  0.9515
 4730TIP3    H135681   4.242   1.032  13.412 -2.7626 -1.6622 -0.8390
 4730TIP3    H235682   4.296   1.094  13.284  0.4578 -0.0151  1.2232
 4731TIP3   OH235683   6.008   1.634  13.126 -0.0696  0.1270  0.3873
 4731TIP3    H135684   6.097   1.608  13.104  0.5019  1.4154  1.1254
 4731TIP3    H235685   5.999   1.613  13.219 -0.4379  0.2641  0.3857
 4732TIP3   OH235686   5.782   0.946   2.373 -0.3188  0.0876 -0.0279
 4732TIP3    H135687   5.803   0.925   2.464 -1.1350  0.0148  0.1464
 4732TIP3    H235688   5.687   0.957   2.372 -0.2014  1.2144 -0.6316
 4733TIP3   OH235689   0.014   3.920   2.262  0.9410  0.8408 -0.5220
 4733TIP3    H135690  -0.067   3.868   2.269  0.0014  2.6197  2.8057
 4733TIP3    H235691  -0.009   3.992   2.204  0.4090  0.8263 -0.3336
 4734TIP3   OH235692   4.440   5.917   4.182  0.1651  0.0691 -0.5477
 4734TIP3    H135693   4.508   5.899   4.117  0.3392 -1.3425  0.0023
 4734TIP3    H235694   4.468   5.870   4.260  0.4083  2.4739  0.8531
 4735TIP3   OH235695   5.817   4.118  12.465 -0.3721  0.5826 -0.3522
 4735TIP3    H135696   5.910   4.111  12.483 -0.2151  0.2563 -1.2663
 4735TIP3    H235697   5.774   4.072  12.537  0.2786 -1.5221 -1.2926
 4736TIP3   OH235698   2.983   5.190   4.686  0.4968 -0.0777 -0.1372
 4736TIP3    H135699   3.079   5.197   4.689  0.6035  1.1255 -3.4645
 4736TIP3    H235700   2.967   5.113   4.632 -0.4376 -1.3870  2.0023
 4737TIP3   OH235701   0.601   4.327   0.501 -0.6878  0.0523  0.2629
 4737TIP3    H135702   0.556   4.250   0.536 -0.0943 -0.4191 -0.0114
 4737TIP3    H235703   0.549   4.351   0.424 -1.0049  0.0629  0.4790
 4738TIP3   OH235704   4.223   0.770  12.954  0.2278 -0.5179  0.2734
 4738TIP3    H135705   4.289   0.707  12.924 -0.0966 -0.5753 -0.3399
 4738TIP3    H235706   4.185   0.729  13.032 -1.0123 -1.8027 -0.9566
 4739TIP3   OH235707   2.488   4.645  14.896  0.2104 -0.0746 -0.0679
 4739TIP3    H135708   2.411   4.599  14.930 -0.0874  0.9658  0.7114
 4739TIP3    H235709   2.513   4.704  14.967  0.4637  1.1053 -1.1226
 4740TIP3   OH235710   1.626   0.019   1.791  0.2652 -0.3218  0.4336
 4740TIP3    H135711   1.547  -0.011   1.836  0.6572 -1.7715  0.1952
 4740TIP3    H235712   1.638   0.109   1.821 -0.1623 -0.8543  2.3050
 4741TIP3   OH235713   4.225   5.521  16.010 -0.3241  0.3048 -0.2308
 4741TIP3    H135714   4.202   5.465  15.936  0.6851  1.3524 -1.3801
 4741TIP3    H235715   4.309   5.486  16.042 -0.8719 -0.2855  0.5726
 4742TIP3   OH235716   3.103   3.915   5.133  0.4204 -0.0957 -0.2241
 4742TIP3    H135717   3.115   3.959   5.049  2.2870  0.0468  0.1042
 4742TIP3    H235718   3.129   3.979   5.198 -0.3857 -0.4346  0.4321
 4743TIP3   OH235719   5.351   0.417  13.185  0.4754  0.3114  0.1577
 4743TIP3    H135720   5.304   0.334  13.175 -1.6473  1.5189  0.0428
 4743TIP3    H235721   5.366   0.447  13.095  2.7505 -0.7424  0.1416
 4744TIP3   OH235722   6.594   3.009  16.698  0.1093  0.0665  0.4039
 4744TIP3    H135723   6.553   2.995  16.783 -0.7168  0.8995  0.1556
 4744TIP3    H235724   6.608   3.104  16.694 -1.1790  0.2283 -0.9543
 4745TIP3   OH235725   5.294   6.432   3.270 -0.2498  0.5489  0.1913
 4745TIP3    H135726   5.372   6.422   3.216 -1.0327 -0.5805 -0.7441
 4745TIP3    H235727   5.295   6.523   3.298  0.6828  0.8792 -0.9219
 4746TIP3   OH235728   6.426   1.031   1.809 -0.3563 -0.1468  0.0386
 4746TIP3    H135729   6.360   1.100   1.813 -1.7171 -1.5167  2.1622
 4746TIP3    H235730   6.508   1.074   1.836 -1.1191  0.7212  1.0067
 4747TIP3   OH235731   2.544   5.813   2.077  0.0430  0.0507 -0.4118
 4747TIP3    H135732   2.617   5.752   2.066 -0.1204  0.0511 -1.5297
 4747TIP3    H235733   2.526   5.812   2.171  1.5102  0.0898 -0.1247
 4748TIP3   OH235734   2.141   3.173   3.043 -0.2496 -0.4437  0.1401
 4748TIP3    H135735   2.173   3.084   3.033 -1.2137 -0.7136 -0.5982
 4748TIP3    H235736   2.084   3.187   2.967  0.0458  0.8636  0.1482
 4749TIP3   OH235737   1.131   3.683   2.906  0.0715  0.1512 -0.2699
 4749TIP3    H135738   1.036   3.672   2.916 -0.3307  1.7813 -2.1123
 4749TIP3    H235739   1.168   3.607   2.951 -2.1373 -1.0919 -0.4644
 4750TIP3   OH235740   0.724   5.763  15.694 -0.6631 -0.5079 -0.6014
 4750TIP3    H135741   0.742   5.697  15.761  0.1690  0.8908  0.5887
 4750TIP3    H235742   0.679   5.833  15.740 -0.2819  0.3808 -1.5450
 4751TIP3   OH235743   6.440   1.658  13.521  0.1544  0.2029  0.5243
 4751TIP3    H135744   6.502   1.680  13.591 -1.4304 -2.5442  2.8993
 4751TIP3    H235745   6.356   1.693  13.552 -0.0716  1.2971 -1.2734
 4752TIP3   OH235746   2.517   2.123  12.799 -0.5410 -0.4273 -0.6514
 4752TIP3    H135747   2.559   2.039  12.782  0.9023  0.3582 -1.0272
 4752TIP3    H235748   2.486   2.151  12.713  0.1339  0.0319 -0.7484
 4753TIP3   OH235749   5.566   2.860   5.042  0.2312 -0.1426 -0.2204
 4753TIP3    H135750   5.613   2.795   4.991 -0.7961 -0.0916 -1.2634
 4753TIP3    H235751   5.530   2.920   4.977  0.1220  0.7581  0.6538
 4754TIP3   OH235752   1.088   1.687  14.046  0.1194  0.0556  0.4260
 4754TIP3    H135753   1.076   1.711  14.138 -0.2014  0.6298  0.2415
 4754TIP3    H235754   1.038   1.607  14.035 -3.0289  1.9893 -0.1376
 4755TIP3   OH235755   5.495   5.882   3.981 -0.0639  0.3325  0.0209
 4755TIP3    H135756   5.538   5.895   4.065  0.1095  1.5069 -0.2384
 4755TIP3    H235757   5.519   5.793   3.956 -0.8632 -0.3451  1.6234
 4756TIP3   OH235758   2.897   5.241  11.859  0.2344  0.2991  0.2760
 4756TIP3    H135759   2.968   5.232  11.795 -0.1881  0.2846 -0.1930
 4756TIP3    H235760   2.942   5.242  11.944  0.7398 -0.5093  0.0337
 4757TIP3   OH235761   4.946   1.108  11.915 -0.1327 -0.7051 -0.3920
 4757TIP3    H135762   5.022   1.098  11.856 -0.0770 -1.7451 -0.1609
 4757TIP3    H235763   4.927   1.201  11.913  0.9473 -0.4741 -0.7250
 4758TIP3   OH235764   1.221   4.437  10.371 -0.0022  0.5497 -0.1221
 4758TIP3    H135765   1.190   4.521  10.407 -0.4171 -0.1013  1.0882
 4758TIP3    H235766   1.155   4.374  10.398  0.4065 -0.2018 -0.8707
 4759TIP3   OH235767   4.676   2.459  11.531 -0.0285 -0.0660  0.3228
 4759TIP3    H135768   4.624   2.380  11.543  0.3559 -0.5511 -1.1136
 4759TIP3    H235769   4.706   2.482  11.619 -0.7710 -1.0790  0.8481
 4760TIP3   OH235770   6.551   4.472   3.118  0.4767  0.1374 -0.7028
 4760TIP3    H135771   6.575   4.385   3.149  0.3371  0.6057  0.7379
 4760TIP3    H235772   6.560   4.466   3.023  1.9916 -0.9910 -0.5176
 4761TIP3   OH235773   2.258   5.235  16.056  0.7553 -0.0076 -0.6211
 4761TIP3    H135774   2.209   5.176  16.113  0.2188  0.2468 -0.8139
 4761TIP3    H235775   2.256   5.319  16.100 -1.5577  0.7276 -2.0497
 4762TIP3   OH235776   1.371   3.822  15.763 -0.1866 -0.8138  0.0904
 4762TIP3    H135777   1.331   3.872  15.692 -1.2565  0.6708  1.7036
 4762TIP3    H235778   1.338   3.863  15.843  2.2818 -1.4216  1.4585
 4763TIP3   OH235779   5.452   3.392  11.261 -0.5728  0.1683 -0.0785
 4763TIP3    H135780   5.517   3.332  11.299  0.1290 -0.1393 -1.7473
 4763TIP3    H235781   5.416   3.345  11.186 -1.8491  0.8385  0.0903
 4764TIP3   OH235782   1.437   3.291  16.178 -0.2722  0.1856 -0.1866
 4764TIP3    H135783   1.362   3.232  16.168 -0.4232  0.0573  1.4792
 4764TIP3    H235784   1.420   3.362  16.117 -1.1926 -0.4063 -0.6394
 4765TIP3   OH235785   3.524   1.707  13.419  0.1296  0.1464 -0.7998
 4765TIP3    H135786   3.606   1.696  13.371 -0.1371 -1.4291 -0.9070
 4765TIP3    H235787   3.481   1.781  13.377  0.3453 -0.6069 -2.3605
 4766TIP3   OH235788   5.759   6.416  12.446 -0.1146  0.5015  0.6648
 4766TIP3    H135789   5.733   6.498  12.488  0.5985  0.7255  0.6613
 4766TIP3    H235790   5.746   6.350  12.513 -0.3596  0.6640  0.7800
 4767TIP3   OH235791   0.022   6.226  16.638  0.1538 -0.1392 -0.3837
 4767TIP3    H135792   0.019   6.130  16.644  1.4864 -0.2005 -0.6599
 4767TIP3    H235793  -0.054   6.255  16.689  0.3524 -1.3113  0.6047
 4768TIP3   OH235794   6.694   0.916   0.275 -0.1091  0.3939  0.3133
 4768TIP3    H135795   6.668   1.005   0.255 -0.5763  0.5273  1.4823
 4768TIP3    H235796   6.627   0.861   0.235 -0.7602  0.6381  1.0617
 4769TIP3   OH235797   1.431   4.615  14.469  0.1405 -0.2657 -1.2860
 4769TIP3    H135798   1.429   4.617  14.565  0.4229 -1.4468 -1.2563
 4769TIP3    H235799   1.511   4.567  14.447  2.0821  3.1541 -2.1558
 4770TIP3   OH235800   5.826   1.774  14.737 -0.1810 -0.3346 -0.8240
 4770TIP3    H135801   5.751   1.718  14.721  0.2677 -0.8896 -0.9738
 4770TIP3    H235802   5.833   1.829  14.659 -0.9855  0.3612 -0.4210
 4771TIP3   OH235803   3.032   3.273   5.162  0.0737  0.5258  0.8541
 4771TIP3    H135804   2.968   3.319   5.217 -0.1773  0.3659  0.6923
 4771TIP3    H235805   3.077   3.214   5.223  0.2093  0.7858  1.0088
 4772TIP3   OH235806   0.991   2.033  12.144  0.1028 -0.0475 -0.2034
 4772TIP3    H135807   0.962   1.949  12.179  1.6827 -1.6259 -2.5259
 4772TIP3    H235808   1.070   2.054  12.193 -0.8436  0.6430  1.0794
 4773TIP3   OH235809   4.210   4.575   1.743  0.1959 -0.1050 -0.1166
 4773TIP3    H135810   4.282   4.571   1.681  0.5525 -0.2073  0.3022
 4773TIP3    H235811   4.243   4.627   1.816 -0.6182  1.0140 -0.5223
 4774TIP3   OH235812   2.929   3.291  16.214 -0.4561 -0.1178 -0.1052
 4774TIP3    H135813   2.954   3.206  16.180 -1.1198 -0.4856  0.3284
 4774TIP3    H235814   2.864   3.324  16.152 -1.5066 -0.6954  0.6811
 4775TIP3   OH235815   2.664   1.278  16.980 -0.3664 -0.0715 -0.5012
 4775TIP3    H135816   2.644   1.338  16.908  1.1402  2.0661  0.8036
 4775TIP3    H235817   2.593   1.291  17.043 -0.9618 -0.9629 -0.9655
 4776TIP3   OH235818   4.268   6.626   4.208  0.1575  0.5420 -0.0881
 4776TIP3    H135819   4.192   6.640   4.152  0.2709 -1.5293 -0.7845
 4776TIP3    H235820   4.233   6.632   4.297 -0.5268  1.0710 -0.3880
 4777TIP3   OH235821   2.699   5.809  10.485 -0.5629  0.8971 -0.1752
 4777TIP3    H135822   2.726   5.719  10.506 -2.0322  0.8348  1.5439
 4777TIP3    H235823   2.635   5.798  10.414 -0.4793  0.6213 -0.2116
 4778TIP3   OH235824   3.772   4.577  13.174 -0.1708 -0.6635 -0.2196
 4778TIP3    H135825   3.689   4.535  13.155  0.0998 -0.2753 -2.3886
 4778TIP3    H235826   3.759   4.619  13.259 -1.8816 -1.3524 -0.1239
 4779TIP3   OH235827   6.242   4.123   2.889  0.0568  0.3405  0.2787
 4779TIP3    H135828   6.192   4.197   2.924  1.4295  1.8547 -0.8696
 4779TIP3    H235829   6.288   4.087   2.964  0.1719  1.2969  0.6768
 4780TIP3   OH235830   4.114   2.518   1.901  0.8230  0.2704 -0.4676
 4780TIP3    H135831   4.126   2.453   1.832  2.6523  2.3637 -2.2061
 4780TIP3    H235832   4.031   2.560   1.880  0.5273 -0.2612 -0.3831
 4781TIP3   OH235833   5.501   6.563   5.321  0.2947  0.2179 -0.7913
 4781TIP3    H135834   5.508   6.489   5.380  0.3780 -0.3907 -1.5605
 4781TIP3    H235835   5.408   6.583   5.317  0.1768 -0.4305 -1.3031
 4782TIP3   OH235836   5.884   0.981   5.443 -0.1648 -0.7225  0.5859
 4782TIP3    H135837   5.823   0.963   5.515 -0.3987  0.0783  0.5927
 4782TIP3    H235838   5.933   1.058   5.471  0.3702 -0.9409  0.2709
 4783TIP3   OH235839   6.472   3.026   4.470  0.6618 -0.3889 -0.1800
 4783TIP3    H135840   6.455   2.990   4.383 -0.2430 -0.8695  0.1902
 4783TIP3    H235841   6.557   3.070   4.462  1.0679 -1.3213 -1.0243
 4784TIP3   OH235842   1.083   1.141   5.245  0.1104 -0.0417 -0.0294
 4784TIP3    H135843   1.064   1.230   5.217  0.0273 -0.1084 -0.1900
 4784TIP3    H235844   1.174   1.126   5.220 -0.1262 -0.2845 -0.7557
 4785TIP3   OH235845   5.619   6.726   1.411  0.5659 -0.1528  0.4023
 4785TIP3    H135846   5.709   6.727   1.444  0.4389  2.1297  0.7763
 4785TIP3    H235847   5.588   6.638   1.428  2.5087 -0.7653  0.9004
 4786TIP3   OH235848   5.410   1.747  12.545 -0.0539 -0.1470  0.2838
 4786TIP3    H135849   5.487   1.716  12.592  1.2443  1.1365 -0.9400
 4786TIP3    H235850   5.424   1.720  12.454 -0.1842  1.5990 -0.2831
 4787TIP3   OH235851   4.562   1.180  12.923  0.3580 -0.4450  0.7692
 4787TIP3    H135852   4.494   1.113  12.926  1.2111 -1.3992 -0.5105
 4787TIP3    H235853   4.518   1.261  12.947 -0.7354 -1.4308  2.1172
 4788TIP3   OH235854   3.384   6.611  15.786 -0.0323  0.0690  0.1804
 4788TIP3    H135855   3.381   6.573  15.698 -1.7835  0.4700  0.0439
 4788TIP3    H235856   3.374   6.705  15.772 -1.1798  0.0621  0.8335
 4789TIP3   OH235857   0.532   3.557  14.917 -0.3863  1.0389 -0.2796
 4789TIP3    H135858   0.512   3.649  14.902  0.1265  1.0764 -0.7417
 4789TIP3    H235859   0.469   3.509  14.864 -0.3043  1.1330 -0.4611
 4790TIP3   OH235860   0.631   0.450  12.839 -0.2491  0.2630  0.3551
 4790TIP3    H135861   0.606   0.508  12.911  1.0989  2.1903 -0.6994
 4790TIP3    H235862   0.691   0.386  12.880 -1.3655 -0.1325  1.4170
 4791TIP3   OH235863   1.929   5.130  12.516  0.7945 -0.0339  0.1262
 4791TIP3    H135864   1.933   5.225  12.501 -1.1655  0.2238  0.9913
 4791TIP3    H235865   1.979   5.116  12.596  0.2330  0.4450  0.5775
 4792TIP3   OH235866   4.652   3.058  15.030  0.0857 -0.0252  0.2112
 4792TIP3    H135867   4.580   3.029  15.085 -0.3757  1.2976  0.3254
 4792TIP3    H235868   4.635   3.151  15.015  1.2068  0.0604 -0.6204
 4793TIP3   OH235869   3.670   0.010  14.853  0.4590  0.2474  0.2232
 4793TIP3    H135870   3.630   0.024  14.939 -1.2696  0.4065 -0.5870
 4793TIP3    H235871   3.721   0.090  14.837 -0.5491  0.9344  0.3884
 4794TIP3   OH235872   0.150   1.539  13.696 -0.0332 -0.2351 -0.9982
 4794TIP3    H135873   0.148   1.611  13.634  0.2492  0.7330  0.1034
 4794TIP3    H235874   0.102   1.468  13.652 -0.1804  0.5629 -2.1413
 4795TIP3   OH235875   2.417   5.772  14.276  0.1501  0.3396 -0.1992
 4795TIP3    H135876   2.364   5.739  14.204  0.2168  1.5025 -0.7897
 4795TIP3    H235877   2.429   5.865  14.257 -1.4768  1.1240  2.3119
 4796TIP3   OH235878   2.249   1.894  12.515  0.1238 -1.0519 -0.4265
 4796TIP3    H135879   2.244   1.976  12.564 -1.3126 -1.4273  0.0602
 4796TIP3    H235880   2.173   1.897  12.457  0.7355 -1.5028 -1.2665
 4797TIP3   OH235881   1.624   3.873  15.181 -0.2039 -0.2086  0.1657
 4797TIP3    H135882   1.667   3.830  15.255 -0.6454  0.3237  0.7447
 4797TIP3    H235883   1.682   3.856  15.107 -0.0970 -1.3167  0.4955
 4798TIP3   OH235884   5.075   1.487  11.706 -0.0286 -0.1191 -0.6941
 4798TIP3    H135885   5.032   1.430  11.769  2.1806  0.3021  1.2272
 4798TIP3    H235886   5.024   1.474  11.625 -0.3446 -3.8486 -0.0087
 4799TIP3   OH235887   6.377   2.519   4.999 -0.6460 -0.4407  0.3305
 4799TIP3    H135888   6.374   2.445   5.060  0.9745 -0.3563  0.5413
 4799TIP3    H235889   6.315   2.497   4.930 -0.8342 -1.5834  0.8637
 4800TIP3   OH235890   5.573   1.738   3.654  0.1813  0.4946 -0.0507
 4800TIP3    H135891   5.627   1.660   3.673 -0.0624  0.8396  2.1552
 4800TIP3    H235892   5.609   1.772   3.572  2.0365 -0.4349  0.3467
 4801TIP3   OH235893   6.505   5.411   4.157  0.0925  0.5977  0.4313
 4801TIP3    H135894   6.523   5.332   4.208 -0.2888  0.0018 -0.3386
 4801TIP3    H235895   6.411   5.407   4.138  0.0847  1.1981  0.3319
 4802TIP3   OH235896   6.481   2.877   3.336 -0.1102  0.3100 -0.1390
 4802TIP3    H135897   6.562   2.929   3.332 -0.8116  1.5965  1.8352
 4802TIP3    H235898   6.425   2.916   3.268  0.2979  0.5080 -0.3661
 4803TIP3   OH235899   6.050   4.025  12.604  0.3952  0.3143  0.0541
 4803TIP3    H135900   6.052   3.937  12.641  1.9431  0.2730 -0.0868
 4803TIP3    H235901   6.141   4.043  12.581  0.0726  1.9271  0.0097
 4804TIP3   OH235902   5.199   4.028   0.537  0.2588 -0.5404  0.1557
 4804TIP3    H135903   5.229   4.118   0.538 -1.8301  0.1732  0.4485
 4804TIP3    H235904   5.137   4.022   0.610  0.2555 -2.1728  0.0550
 4805TIP3   OH235905   3.555   5.782  12.344 -0.3947  0.4025 -0.2053
 4805TIP3    H135906   3.530   5.862  12.390 -0.0094  0.6666 -0.4549
 4805TIP3    H235907   3.560   5.807  12.252  0.1296  0.1925 -0.2378
 4806TIP3   OH235908   5.766   4.078   1.134 -0.3727  0.2098 -0.7287
 4806TIP3    H135909   5.693   4.139   1.131 -0.1518  0.4659 -0.8610
 4806TIP3    H235910   5.839   4.125   1.095 -0.5200 -0.5872 -1.9827
 4807TIP3   OH235911   4.519   5.897  13.317  0.2389 -0.3097  0.2431
 4807TIP3    H135912   4.520   5.851  13.234 -0.9539 -0.9063  0.5452
 4807TIP3    H235913   4.472   5.979  13.299 -3.7720 -2.2787  1.2270
 4808TIP3   OH235914   2.155   3.577   3.283 -0.0551  0.0623  0.2905
 4808TIP3    H135915   2.195   3.600   3.200 -0.4446  1.5669  0.5165
 4808TIP3    H235916   2.088   3.512   3.260 -1.4708  1.8675 -0.8296
 4809TIP3   OH235917   4.066   2.478   3.244  0.1206  0.1320 -0.3018
 4809TIP3    H135918   4.051   2.501   3.153 -0.7924  0.8391  0.0242
 4809TIP3    H235919   3.984   2.440   3.274  0.3394  0.1275  0.3048
 4810TIP3   OH235920   3.172   4.715   4.823 -0.6216 -0.3902  0.4676
 4810TIP3    H135921   3.089   4.763   4.819  0.1389  0.9601  0.3695
 4810TIP3    H235922   3.230   4.772   4.874  0.6610 -0.6388 -0.6642
 4811TIP3   OH235923   1.428   3.753   2.810  0.3323 -0.0292  0.3067
 4811TIP3    H135924   1.434   3.756   2.905 -0.0694 -1.4162  0.3916
 4811TIP3    H235925   1.507   3.706   2.782  0.2060 -0.0589 -0.0080
 4812TIP3   OH235926   2.206   1.543  12.453  0.1821 -0.7118 -0.3901
 4812TIP3    H135927   2.164   1.593  12.382 -1.0151 -1.1591 -0.0075
 4812TIP3    H235928   2.186   1.452  12.433 -2.1112 -0.7299  1.6966
 4813TIP3   OH235929   0.249   4.788  13.576  0.5107 -0.0018  0.3196
 4813TIP3    H135930   0.318   4.793  13.509 -0.2620  2.9268 -0.3391
 4813TIP3    H235931   0.279   4.848  13.644 -1.6979  1.8314 -0.2945
 4814TIP3   OH235932   0.220   0.890  12.450 -0.2073 -0.4272 -0.1260
 4814TIP3    H135933   0.200   0.924  12.363 -2.1318 -0.6924  0.1935
 4814TIP3    H235934   0.153   0.824  12.466  1.0598 -1.5019  0.9244
 4815TIP3   OH235935   3.877   2.362  14.410  0.4657 -0.0675 -0.4196
 4815TIP3    H135936   3.846   2.444  14.371  0.5247 -0.3914 -1.1601
 4815TIP3    H235937   3.815   2.296  14.379  0.0379 -0.2102  0.7026
 4816TIP3   OH235938   1.402   1.151   5.205 -0.9584  0.1197  0.1583
 4816TIP3    H135939   1.396   1.101   5.123  0.2452 -0.8906  0.6695
 4816TIP3    H235940   1.489   1.131   5.239 -0.9414  1.6034  1.0109
 4817TIP3   OH235941   6.169   1.642  17.205 -0.3539  0.2395  0.6756
 4817TIP3    H135942   6.258   1.606  17.200 -0.8304 -0.7944 -0.7698
 4817TIP3    H235943   6.181   1.729  17.243  1.6925  1.3588 -2.3050
 4818TIP3   OH235944   2.673   0.532  12.156  0.9203  0.4977  0.0142
 4818TIP3    H135945   2.581   0.551  12.178  1.1006  0.4523  0.8324
 4818TIP3    H235946   2.709   0.616  12.129 -0.0462  0.0407 -2.8561
 4819TIP3   OH235947   4.952   3.330   2.490 -0.2884  0.1510  0.1262
 4819TIP3    H135948   4.898   3.257   2.520 -0.3661 -0.5237 -1.6290
 4819TIP3    H235949   4.991   3.365   2.570 -2.0637 -0.3488  1.2352
 4820TIP3   OH235950   4.077   0.338  13.668  0.0226 -0.2677 -0.0236
 4820TIP3    H135951   4.030   0.421  13.677  0.0144 -0.5095  2.5023
 4820TIP3    H235952   4.057   0.309  13.579 -0.1130  2.3367 -0.8880
 4821TIP3   OH235953   0.566   2.610  14.794  0.1014  0.2085  0.0131
 4821TIP3    H135954   0.543   2.520  14.816  1.0317  0.0692  0.4493
 4821TIP3    H235955   0.550   2.660  14.874 -1.6684  0.6785 -0.6103
 4822TIP3   OH235956   5.598   4.180  14.644 -0.1695 -0.1400  0.0873
 4822TIP3    H135957   5.614   4.266  14.605 -0.3928  0.4258  1.2301
 4822TIP3    H235958   5.607   4.194  14.738 -0.6017 -1.2837  0.3076
 4823TIP3   OH235959   3.791   5.639  10.200  0.0776 -0.6979 -0.4967
 4823TIP3    H135960   3.822   5.728  10.182  0.3933 -0.6469  0.2583
 4823TIP3    H235961   3.704   5.635  10.160 -1.5215  1.1639  2.6217
 4824TIP3   OH235962   1.266   5.008  14.282 -0.0749  0.1135 -0.1991
 4824TIP3    H135963   1.306   4.983  14.199  1.6001  1.3340  0.2233
 4824TIP3    H235964   1.228   5.094  14.265 -0.4804 -0.0165  0.0522
 4825TIP3   OH235965   6.255   5.848   5.023  0.3630  0.5609  0.4323
 4825TIP3    H135966   6.320   5.875   4.958 -0.2827  1.8752  0.3166
 4825TIP3    H235967   6.186   5.804   4.972  1.0122 -0.5810  0.5230
 4826TIP3   OH235968   3.199   2.964   4.356  0.3993 -0.2328  0.7483
 4826TIP3    H135969   3.210   2.933   4.446 -0.9703 -0.6456  0.7853
 4826TIP3    H235970   3.132   3.033   4.362  1.6842  1.0835  0.3210
 4827TIP3   OH235971   5.540   3.018   5.988 -0.2986 -0.1058 -0.1673
 4827TIP3    H135972   5.605   3.036   6.056 -1.0173 -0.0799  0.5324
 4827TIP3    H235973   5.559   3.080   5.918 -1.1888  1.6641  1.1392
 4828TIP3   OH235974   6.780   3.211  17.168  0.2267  0.0049  0.2863
 4828TIP3    H135975   6.836   3.275  17.124 -0.6658 -0.1809 -1.1468
 4828TIP3    H235976   6.804   3.127  17.128 -0.2744 -0.2314  0.4883
 4829TIP3   OH235977   5.198   2.715  17.064  0.4322 -0.5924  0.9324
 4829TIP3    H135978   5.257   2.790  17.056 -1.6651  1.1926  1.7059
 4829TIP3    H235979   5.185   2.684  16.975  1.0967  0.1155  0.5851
 4830TIP3   OH235980   5.296   3.641  13.270  0.1682 -0.1421  0.3352
 4830TIP3    H135981   5.351   3.569  13.240  1.0591  1.2917 -1.5858
 4830TIP3    H235982   5.221   3.641  13.211  0.2459  0.5847  0.2270
 4831TIP3   OH235983   0.891   1.895  14.844  0.0089 -0.3770  0.6555
 4831TIP3    H135984   0.969   1.848  14.874  1.4745  0.6077 -1.4712
 4831TIP3    H235985   0.925   1.977  14.809 -2.2606  1.2254  2.0789
 4832TIP3   OH235986   3.173   5.018  15.005 -0.8599 -0.4568 -0.6460
 4832TIP3    H135987   3.250   5.030  15.061 -1.2706  0.8557 -0.3422
 4832TIP3    H235988   3.156   4.924  15.008  0.4296 -0.6899 -0.3170
 4833TIP3   OH235989   0.472   3.158  16.845  0.4040  0.2673 -0.0154
 4833TIP3    H135990   0.403   3.194  16.900  0.3421  0.0306  0.0616
 4833TIP3    H235991   0.448   3.185  16.756  0.0981 -0.0062 -0.0150
 4834TIP3   OH235992   2.895   1.590  15.647 -0.0783  0.4717 -0.7112
 4834TIP3    H135993   2.856   1.596  15.735 -1.6746  0.3228 -1.3811
 4834TIP3    H235994   2.955   1.665  15.642 -1.7122  1.8488 -0.2991
 4835TIP3   OH235995   4.848   3.728   2.110  0.1491 -0.2076 -0.2809
 4835TIP3    H135996   4.860   3.645   2.156 -0.9351  0.8329  1.9615
 4835TIP3    H235997   4.754   3.734   2.095  0.1083  1.0720  0.4409
 4836TIP3   OH235998   4.027   3.685   2.693 -0.0131 -0.2165 -0.1472
 4836TIP3    H135999   4.043   3.621   2.762 -0.0467  0.3064  0.3412
 4836TIP3    H236000   4.103   3.743   2.695  0.7705 -1.1370 -1.6077
 4837TIP3   OH236001   0.613   2.909   4.713 -0.6205 -0.5399  0.0284
 4837TIP3    H136002   0.588   2.965   4.639 -0.8125 -0.9385 -0.2155
 4837TIP3    H236003   0.709   2.916   4.718 -0.6954  0.2068  0.3243
 4838TIP3   OH236004   6.227   5.003  11.732 -0.2174  0.8908  0.5454
 4838TIP3    H136005   6.171   5.062  11.681  1.0441  2.2454  0.6932
 4838TIP3    H236006   6.224   5.038  11.821  0.1792  0.4602  0.7289
 4839TIP3   OH236007   6.694   5.039  11.494  0.1929 -0.5096 -0.1929
 4839TIP3    H136008   6.616   5.082  11.530  0.0603 -2.4633  1.9408
 4839TIP3    H236009   6.765   5.101  11.508 -0.5878  0.4125 -0.2410
 4840TIP3   OH236010   1.612   4.828  17.268  0.3249 -0.5810 -0.2643
 4840TIP3    H136011   1.646   4.755  17.217  1.1791 -0.4468  0.1014
 4840TIP3    H236012   1.539   4.791  17.318  1.5031 -1.4869  0.8226
 4841TIP3   OH236013   0.905   5.135  12.627 -0.0473 -0.3259  0.5430
 4841TIP3    H136014   0.991   5.151  12.666  0.1239  0.0757  0.0141
 4841TIP3    H236015   0.843   5.172  12.689  0.1405 -0.8951  1.0763
 4842TIP3   OH236016   3.031   0.854   0.187 -0.2198  0.4432  0.0553
 4842TIP3    H136017   3.103   0.885   0.242 -0.3199  0.1971  0.3282
 4842TIP3    H236018   3.004   0.772   0.228 -0.3015  0.2634 -0.3579
 4843TIP3   OH236019   6.301   2.969  13.270  1.1269  0.1279  0.0721
 4843TIP3    H136020   6.292   3.060  13.242 -0.2230 -0.2511 -0.7666
 4843TIP3    H236021   6.385   2.967  13.316  0.5594  2.0972  1.2827
 4844TIP3   OH236022   5.137   3.516   1.131  0.2527  0.1724  0.6525
 4844TIP3    H136023   5.110   3.479   1.048  1.1179  0.1961  0.3583
 4844TIP3    H236024   5.130   3.611   1.118  2.5282  0.2691 -0.1537
 4845TIP3   OH236025   1.732   1.390   0.661  0.0597 -0.5375  0.3846
 4845TIP3    H136026   1.811   1.336   0.655  0.9521  0.7520  0.3289
 4845TIP3    H236027   1.685   1.372   0.580  2.2408  1.6193 -1.4781
 4846TIP3   OH236028   2.558   1.879   0.557 -0.2225 -0.3534 -0.2518
 4846TIP3    H136029   2.613   1.914   0.627 -1.2690  0.1339  0.3412
 4846TIP3    H236030   2.574   1.784   0.559  1.4724 -0.1095 -0.8639
 4847TIP3   OH236031   1.506   6.103  15.880  0.4778 -0.6340  0.5297
 4847TIP3    H136032   1.491   6.148  15.963  0.3150  0.9178 -0.3168
 4847TIP3    H236033   1.539   6.017  15.905  2.7060  0.6360  2.1796
 4848TIP3   OH236034   0.053   3.440   3.122 -0.4995  0.3450 -0.6046
 4848TIP3    H136035  -0.017   3.378   3.101  0.1459  0.0025 -1.8438
 4848TIP3    H236036   0.066   3.490   3.041 -0.8869  1.9869  0.3314
 4849TIP3   OH236037   6.301   4.935  16.385  0.3776  0.1733  0.4345
 4849TIP3    H136038   6.310   4.878  16.461 -0.0157  0.3880  0.6479
 4849TIP3    H236039   6.206   4.938  16.368  0.4831 -0.1182 -0.2538
 4850TIP3   OH236040   4.567   6.149  12.921 -0.1482  0.0076 -0.0488
 4850TIP3    H136041   4.626   6.142  12.996 -0.7389 -0.8471  0.3384
 4850TIP3    H236042   4.568   6.243  12.899 -0.3032  0.3357  1.2914
 4851TIP3   OH236043   5.867   5.804   3.477 -0.1814  0.1210 -0.2823
 4851TIP3    H136044   5.802   5.865   3.442 -1.0901 -1.1331 -0.8290
 4851TIP3    H236045   5.858   5.811   3.572  0.1812  1.3094 -0.3259
 4852TIP3   OH236046   3.721   5.317   0.378 -0.1300 -0.6536 -0.3602
 4852TIP3    H136047   3.695   5.239   0.329 -0.7279  0.2153 -1.4473
 4852TIP3    H236048   3.800   5.348   0.334  2.0776 -2.5418  2.1395
 4853TIP3   OH236049   5.422   6.641   0.230 -0.3848  0.9248 -0.1857
 4853TIP3    H136050   5.412   6.703   0.157  3.6030  4.0601  1.7374
 4853TIP3    H236051   5.507   6.600   0.215 -0.8279 -0.5559  1.2258
 4854TIP3   OH236052   4.653   4.584   2.355  0.5257  0.0940  0.6301
 4854TIP3    H136053   4.662   4.489   2.349  1.6435  0.1890  0.8093
 4854TIP3    H236054   4.720   4.619   2.297 -1.7096  0.7629 -1.6694
 4855TIP3   OH236055   4.055   3.806  14.782 -0.0613  0.2232 -0.0031
 4855TIP3    H136056   4.091   3.737  14.725 -1.1877 -0.3408 -0.0515
 4855TIP3    H236057   4.127   3.829  14.840 -0.1423 -2.1658  1.0961
 4856TIP3   OH236058   2.703   4.341  12.304 -0.0534  0.3950 -0.6070
 4856TIP3    H136059   2.698   4.280  12.230 -0.8975 -0.2926  0.0103
 4856TIP3    H236060   2.667   4.292  12.378  1.2209  0.9133  0.3759
 4857TIP3   OH236061   3.382   1.491  11.316  0.7059 -0.1294 -0.8660
 4857TIP3    H136062   3.423   1.457  11.396 -0.0246 -1.6763 -1.1250
 4857TIP3    H236063   3.443   1.467  11.246  0.8475  0.3286 -0.9067
 4858TIP3   OH236064   0.086   3.110   0.266  0.5005  0.0485 -0.0992
 4858TIP3    H136065   0.144   3.181   0.293  1.3217 -0.2908 -0.8904
 4858TIP3    H236066   0.011   3.115   0.324 -0.1406  2.4696 -1.0768
 4859TIP3   OH236067   0.801   3.605  14.252 -0.3630 -0.0875  0.1981
 4859TIP3    H136068   0.844   3.627  14.169 -0.5802 -0.1109  0.0780
 4859TIP3    H236069   0.820   3.511  14.264 -1.0305 -0.2814 -0.2437
 4860TIP3   OH236070   3.465   0.657  15.822 -0.1258 -0.0168 -0.0555
 4860TIP3    H136071   3.518   0.617  15.891  0.3224  2.3091  0.9941
 4860TIP3    H236072   3.528   0.689  15.758 -0.4899 -1.1358 -0.9888
 4861TIP3   OH236073   1.907   1.343  11.102 -0.1778  0.1318 -0.0895
 4861TIP3    H136074   1.900   1.408  11.172  1.1499 -0.5791  0.7241
 4861TIP3    H236075   1.839   1.279  11.122 -3.1790  2.4877 -2.2787
 4862TIP3   OH236076   6.054   1.340   4.078  0.3078 -0.0009 -0.0559
 4862TIP3    H136077   6.041   1.434   4.091  2.6887  0.2456  0.6176
 4862TIP3    H236078   6.051   1.303   4.166  1.1128 -0.3377 -0.1740
 4863TIP3   OH236079   0.810   2.811   4.447  0.5224  0.4505  0.1120
 4863TIP3    H136080   0.891   2.860   4.431  1.3888 -0.2171  2.3207
 4863TIP3    H236081   0.772   2.852   4.525  0.4062 -1.3043  0.9995
 4864TIP3   OH236082   0.817   3.151  12.334 -0.3212 -0.0557 -0.1606
 4864TIP3    H136083   0.838   3.243  12.317  0.2209  0.1727  1.6574
 4864TIP3    H236084   0.875   3.102  12.276  1.0664  0.6998  0.5800
 4865TIP3   OH236085   0.064   2.591   1.231 -0.0692 -0.7082  0.5893
 4865TIP3    H136086   0.015   2.584   1.150 -1.8909  1.3721  1.4592
 4865TIP3    H236087   0.109   2.507   1.240 -0.8188 -1.4103 -1.9109
 4866TIP3   OH236088   4.251   2.176  15.612  0.6971  0.5135  0.7457
 4866TIP3    H136089   4.212   2.261  15.630 -1.6648 -0.8181  2.0500
 4866TIP3    H236090   4.323   2.169  15.675  0.2142  1.0642  1.3579
 4867TIP3   OH236091   4.969   2.026  15.547  0.0489  0.1691  0.1762
 4867TIP3    H136092   5.030   2.031  15.473 -1.4272 -1.5763 -1.2219
 4867TIP3    H236093   4.910   2.100  15.534  0.4757  0.5210  0.2375
 4868TIP3   OH236094   1.201   3.309  13.027 -0.1569 -0.4629 -0.3415
 4868TIP3    H136095   1.115   3.269  13.042  0.1148 -0.8231  0.2760
 4868TIP3    H236096   1.217   3.361  13.106  0.6000 -1.1233 -0.0585
 4869TIP3   OH236097   5.499   3.678  15.796  0.1158 -0.4964 -0.2116
 4869TIP3    H136098   5.555   3.688  15.873 -0.8343 -0.9354  0.5445
 4869TIP3    H236099   5.540   3.609  15.745  0.3405 -0.7150  0.2648
 4870TIP3   OH236100   3.242   5.000  12.959  0.5118  0.2233  0.2931
 4870TIP3    H136101   3.169   4.941  12.939 -0.1581  0.8507  0.8249
 4870TIP3    H236102   3.306   4.984  12.891 -0.5278  0.3125 -0.7197
 4871TIP3   OH236103   1.176   6.424  17.196 -0.5270  0.0137  0.4076
 4871TIP3    H136104   1.202   6.487  17.128 -0.9830 -1.7183 -1.4236
 4871TIP3    H236105   1.080   6.433  17.201 -0.4119  0.7780  1.5061
 4872TIP3   OH236106   0.630   1.297  16.984 -0.5285  0.4059 -0.8687
 4872TIP3    H136107   0.630   1.381  17.030 -1.2881  0.7782 -1.5401
 4872TIP3    H236108   0.691   1.243  17.034 -0.8024  1.0259  0.1647
 4873TIP3   OH236109   0.228   0.035   2.810 -0.3269  0.2638 -0.3586
 4873TIP3    H136110   0.239   0.099   2.880 -2.1308  0.2847 -0.0604
 4873TIP3    H236111   0.214   0.087   2.731 -2.0282  0.2781 -0.0771
 4874TIP3   OH236112   4.010   3.746   3.811  0.1456 -0.1868 -0.0517
 4874TIP3    H136113   4.082   3.799   3.776 -0.1901  0.7873  0.7284
 4874TIP3    H236114   3.932   3.778   3.765  0.0838 -0.6818 -0.2951
 4875TIP3   OH236115   5.692   1.253   1.525 -0.1660  0.2485  0.1345
 4875TIP3    H136116   5.641   1.320   1.478  2.5870  0.8809 -2.1118
 4875TIP3    H236117   5.666   1.170   1.485 -1.5361  0.2495  1.0039
 4876TIP3   OH236118   2.998   4.729  15.294  0.4532 -0.1513  0.1824
 4876TIP3    H136119   2.938   4.748  15.366  0.0706 -2.7177  0.5833
 4876TIP3    H236120   2.946   4.679  15.231  0.8496  1.8283 -1.7937
 4877TIP3   OH236121   6.580   6.419   1.334  0.2449 -0.2519  0.1430
 4877TIP3    H136122   6.609   6.378   1.415  1.1125  0.1778  0.0552
 4877TIP3    H236123   6.587   6.513   1.349 -0.5767 -0.1476 -0.0767
 4878TIP3   OH236124   0.164   0.076   3.940  0.0791  0.0514 -0.0537
 4878TIP3    H136125   0.230   0.108   4.002  0.3798 -0.6067 -0.0329
 4878TIP3    H236126   0.169  -0.019   3.946  0.1919 -0.0186 -1.1776
 4879TIP3   OH236127   2.275   0.528  12.397  0.1832 -0.0553  0.2654
 4879TIP3    H136128   2.215   0.597  12.425 -0.6274 -0.3017 -0.8676
 4879TIP3    H236129   2.315   0.562  12.317 -1.0043 -1.3390 -0.8932
 4880TIP3   OH236130   4.737   4.841   4.878 -0.0335  0.7038 -0.3150
 4880TIP3    H136131   4.665   4.868   4.820 -0.9497  1.1413  0.9878
 4880TIP3    H236132   4.781   4.923   4.901  0.9893  0.4213 -1.2308
 4881TIP3   OH236133   2.963   4.514   2.357 -0.0100  0.0135 -0.1946
 4881TIP3    H136134   2.958   4.420   2.342  0.0751 -0.1775  0.8802
 4881TIP3    H236135   3.057   4.532   2.363 -0.0225  0.1864 -0.5327
 4882TIP3   OH236136   5.395   1.298   6.034  0.2127 -0.3761  0.3592
 4882TIP3    H136137   5.460   1.298   5.964 -0.7076 -1.4996 -0.5170
 4882TIP3    H236138   5.334   1.368   6.011 -0.2834 -0.9727 -0.1575
 4883TIP3   OH236139   3.346   0.034  14.393  0.0299  0.5010  0.2251
 4883TIP3    H136140   3.334  -0.057  14.366 -0.6572  1.0115 -1.2048
 4883TIP3    H236141   3.430   0.060  14.354 -0.2929  0.8109 -0.2668
 4884TIP3   OH236142   4.891   6.808  16.760 -0.2395 -0.0876 -0.4167
 4884TIP3    H136143   4.970   6.859  16.775  0.8352 -2.0235  0.7236
 4884TIP3    H236144   4.822   6.855  16.807  0.5410  0.7590 -0.1148
 4885TIP3   OH236145   2.762   0.825   5.056 -0.2361  0.3625  0.3054
 4885TIP3    H136146   2.737   0.868   4.974  2.2220  2.7298  0.7515
 4885TIP3    H236147   2.695   0.853   5.119  0.1713  1.8929  0.0839
 4886TIP3   OH236148   4.919   3.033   3.459  0.2895 -0.0005  0.2467
 4886TIP3    H136149   4.864   3.046   3.537  1.9401  1.0067  1.2897
 4886TIP3    H236150   4.960   2.948   3.473  1.4662  0.6786  1.0797
 4887TIP3   OH236151   4.783   2.504   4.912  0.6020  0.3348  0.5395
 4887TIP3    H136152   4.838   2.439   4.955  2.0422  0.3589 -1.1932
 4887TIP3    H236153   4.772   2.470   4.823  0.4175  1.8830 -0.0377
 4888TIP3   OH236154   4.700   6.140   0.034  0.2693 -0.2147  0.5062
 4888TIP3    H136155   4.634   6.153  -0.034  0.5110  1.0839  0.5123
 4888TIP3    H236156   4.709   6.226   0.076  0.7201 -0.8017  1.6360
 4889TIP3   OH236157   1.744   1.623   0.923 -0.0471 -0.0424 -0.1515
 4889TIP3    H136158   1.812   1.570   0.881 -0.0637 -1.4567  1.5179
 4889TIP3    H236159   1.787   1.706   0.945  1.4539 -1.2522  1.7053
 4890TIP3   OH236160   6.371   6.720  17.026 -0.4563  1.0043  0.0129
 4890TIP3    H136161   6.394   6.629  17.044  0.2836  0.9468 -1.2287
 4890TIP3    H236162   6.451   6.770  17.045 -0.4886  1.2576 -0.5243
 4891TIP3   OH236163   3.348   1.804  14.471  0.3972  0.1323 -0.2132
 4891TIP3    H136164   3.434   1.791  14.511 -0.3641 -1.6642  0.8729
 4891TIP3    H236165   3.298   1.727  14.495 -1.5083  1.1134 -0.9204
 4892TIP3   OH236166   2.300   4.077  13.030  0.0040 -0.2238  0.1258
 4892TIP3    H136167   2.325   4.000  12.980 -0.8370  0.4168 -1.3102
 4892TIP3    H236168   2.223   4.111  12.985 -0.5510  0.5795  1.6507
 4893TIP3   OH236169   4.181   0.703  13.790 -0.2603 -0.2824 -0.9324
 4893TIP3    H136170   4.239   0.637  13.830  0.7644  2.3898  2.2471
 4893TIP3    H236171   4.225   0.727  13.708  0.6389 -1.7588 -0.8985
 4894TIP3   OH236172   0.961   4.092   0.882  0.0458 -0.2137 -0.1115
 4894TIP3    H136173   1.046   4.107   0.841  0.9843 -1.4831  1.2903
 4894TIP3    H236174   0.918   4.027   0.827  1.0465 -1.4560  0.5351
 4895TIP3   OH236175   2.077   6.442  15.258  0.1464  0.1643  0.0958
 4895TIP3    H136176   2.150   6.464  15.200 -0.6519  1.0435 -0.5820
 4895TIP3    H236177   2.118   6.424  15.342  1.2051  0.0618 -0.4382
 4896TIP3   OH236178   5.554   4.078  14.934  0.4216 -0.4669 -0.0769
 4896TIP3    H136179   5.626   4.112  14.988  0.6903 -1.6962  0.3584
 4896TIP3    H236180   5.598   4.027  14.866  0.0552  0.6173 -1.1523
 4897TIP3   OH236181   4.675   5.512   0.598 -0.0314 -0.2551 -0.1973
 4897TIP3    H136182   4.598   5.476   0.555  0.8229 -2.7375  0.2129
 4897TIP3    H236183   4.682   5.461   0.679  2.1393 -0.2166 -0.3380
 4898TIP3   OH236184   6.300   1.408   0.080  0.2486 -0.2949  0.4054
 4898TIP3    H136185   6.282   1.442   0.168 -1.6061  1.2069 -0.5161
 4898TIP3    H236186   6.233   1.340   0.067  1.6842 -1.8450  0.8339
 4899TIP3   OH236187   3.888   1.184   2.230 -0.3145  0.0291  0.2989
 4899TIP3    H136188   3.877   1.217   2.141 -2.0422  0.5373  0.6854
 4899TIP3    H236189   3.981   1.196   2.249 -0.2891  1.6189 -0.7648
 4900TIP3   OH236190   2.931   1.975  13.966  0.0897  0.0089 -0.0048
 4900TIP3    H136191   2.982   2.055  13.952  1.1383 -0.5082  0.7680
 4900TIP3    H236192   2.841   2.005  13.973  0.3986  1.0536 -0.3593
 4901TIP3   OH236193   1.792   5.059   3.108 -0.3877  0.0785  0.0295
 4901TIP3    H136194   1.864   5.119   3.092 -1.0443  0.8096 -0.2281
 4901TIP3    H236195   1.746   5.053   3.025  1.4949 -3.3075 -0.8724
 4902TIP3   OH236196   0.334   5.733   0.137 -0.2270 -0.1687  0.0033
 4902TIP3    H136197   0.244   5.709   0.117  0.3360 -1.4568 -1.0607
 4902TIP3    H236198   0.353   5.688   0.220 -0.7149  0.4987  0.4783
 4903TIP3   OH236199   5.450   2.361  16.028 -0.3261  0.2550  0.0433
 4903TIP3    H136200   5.486   2.283  16.070 -1.5726  0.6169  1.8389
 4903TIP3    H236201   5.517   2.428  16.038 -0.4674  0.2332  1.1578
 4904TIP3   OH236202   5.421   1.612   5.885  0.5335  0.0155 -0.4854
 4904TIP3    H136203   5.388   1.702   5.886 -1.7540 -0.7480  2.7415
 4904TIP3    H236204   5.504   1.616   5.932  0.7002  0.5018 -0.8132
 4905TIP3   OH236205   0.274   3.925   3.054 -0.2138  0.0768  0.2594
 4905TIP3    H136206   0.318   3.849   3.090 -1.3880 -0.9523 -0.4060
 4905TIP3    H236207   0.184   3.919   3.088 -0.0105  1.8248  1.1658
 4906TIP3   OH236208   2.003   1.770   4.699  0.1864 -0.5933 -0.3849
 4906TIP3    H136209   1.999   1.702   4.766  3.3362 -0.4270  0.0670
 4906TIP3    H236210   1.922   1.759   4.649 -0.3378 -3.3499  0.9332
 4907TIP3   OH236211   4.842   2.030  16.325 -0.3536 -0.6935  0.3890
 4907TIP3    H136212   4.759   1.996  16.290 -0.8770  1.0247 -0.0867
 4907TIP3    H236213   4.886   2.069  16.250 -0.6674  1.4187  1.2650
 4908TIP3   OH236214   6.259   4.669  14.210  0.7471  0.2711 -0.0982
 4908TIP3    H136215   6.282   4.611  14.137  0.2933  0.0252 -0.0530
 4908TIP3    H236216   6.325   4.738  14.208  1.4956 -0.4276  0.0472
 4909TIP3   OH236217   1.284   2.898   5.361  0.0184  0.1066 -0.5961
 4909TIP3    H136218   1.223   2.894   5.434  1.7091 -0.1080  0.8476
 4909TIP3    H236219   1.253   2.972   5.309 -1.2592  0.2239  0.2928
 4910TIP3   OH236220   6.691   5.308  12.861  0.2560 -0.5664  0.0936
 4910TIP3    H136221   6.621   5.244  12.876 -0.8116  0.9229  1.6127
 4910TIP3    H236222   6.766   5.255  12.833 -1.2334 -2.2660 -0.7817
 4911TIP3   OH236223   3.149   1.661  12.639  0.5339 -0.0894  1.1820
 4911TIP3    H136224   3.228   1.706  12.608 -1.8048  3.2673 -0.1914
 4911TIP3    H236225   3.130   1.597  12.571  0.6970  0.8139  0.2679
 4912TIP3   OH236226   3.503   4.915  16.737 -0.0444 -0.0782  0.6097
 4912TIP3    H136227   3.580   4.931  16.792 -1.5691 -0.0776  2.7925
 4912TIP3    H236228   3.453   4.849  16.785 -2.8381  1.9936  0.6917
 4913TIP3   OH236229   3.092   5.688   5.404  0.3308  0.7849 -0.0134
 4913TIP3    H136230   3.084   5.596   5.426  0.2416  1.0621  1.1068
 4913TIP3    H236231   3.079   5.691   5.309  0.7668 -0.4002 -0.1173
 4914TIP3   OH236232   0.981   4.839  13.511 -0.0724 -0.1207  0.2692
 4914TIP3    H136233   0.943   4.759  13.477  2.0070 -1.5127  1.1198
 4914TIP3    H236234   1.054   4.810  13.566  0.7231  2.3469  0.5969
 4915TIP3   OH236235   5.580   1.072   1.368 -0.0573 -0.5226 -0.1108
 4915TIP3    H136236   5.635   1.092   1.292 -0.0006 -3.3568 -0.8610
 4915TIP3    H236237   5.625   0.999   1.411 -1.0968 -0.1764  1.5888
 4916TIP3   OH236238   5.930   2.296  16.697  0.5517  0.9754 -0.2302
 4916TIP3    H136239   6.005   2.346  16.668 -0.2555  2.1374 -0.3425
 4916TIP3    H236240   5.854   2.345  16.666 -0.2572 -0.6341 -0.8838
 4917TIP3   OH236241   1.804   3.350   1.816 -0.2449  0.2921 -0.2142
 4917TIP3    H136242   1.750   3.312   1.885  0.0745  1.6129  0.7749
 4917TIP3    H236243   1.891   3.358   1.854  0.0980  0.3909 -0.9950
 4918TIP3   OH236244   4.788   3.016   5.248  0.2341 -0.1352  0.4680
 4918TIP3    H136245   4.832   2.933   5.265 -0.4964 -0.4583  0.7980
 4918TIP3    H236246   4.784   3.059   5.333 -0.5069 -0.3170  0.5305
 4919TIP3   OH236247   0.377   0.914   4.605 -0.1608  0.3529 -0.2386
 4919TIP3    H136248   0.406   0.843   4.663  0.1242  0.5103 -0.1862
 4919TIP3    H236249   0.314   0.873   4.546 -1.8510  0.5789  1.3508
 4920TIP3   OH236250   3.319   3.749  12.623 -0.4203 -0.2217  0.5658
 4920TIP3    H136251   3.361   3.832  12.647 -0.5972  0.4088 -1.2010
 4920TIP3    H236252   3.238   3.775  12.579 -0.1696 -1.2967 -0.5774
 4921TIP3   OH236253   3.346   5.076  15.645 -0.1992  0.6430  0.1112
 4921TIP3    H136254   3.352   4.981  15.648  1.1362  0.7418  1.3513
 4921TIP3    H236255   3.255   5.094  15.621 -0.3027 -0.9349 -0.7289
 4922TIP3   OH236256   3.174   2.810   5.327  0.2593  0.4096  0.1173
 4922TIP3    H136257   3.242   2.845   5.270 -0.1984  2.4280  0.7536
 4922TIP3    H236258   3.198   2.719   5.340  1.6137  0.5165 -1.4583
 4923TIP3   OH236259   1.015   0.543   3.982  0.3586 -0.0165 -0.5504
 4923TIP3    H136260   0.929   0.503   3.992  0.2399  0.2318 -0.5641
 4923TIP3    H236261   1.000   0.618   3.924  0.6044 -0.0410 -0.6466
 4924TIP3   OH236262   4.372   3.911   0.165  0.4286 -0.5501 -0.6853
 4924TIP3    H136263   4.467   3.922   0.156  0.6333 -2.5596 -1.3232
 4924TIP3    H236264   4.337   3.933   0.079  0.3918 -0.4907 -0.6549
 4925TIP3   OH236265   5.262   6.408  15.897  0.3522  0.4991  0.5632
 4925TIP3    H136266   5.226   6.489  15.863  1.4177  1.3283  1.3578
 4925TIP3    H236267   5.269   6.423  15.992  1.0870 -0.2956  0.6440
 4926TIP3   OH236268   1.529   3.005   1.669  0.2322 -0.0766  0.1210
 4926TIP3    H136269   1.536   3.027   1.762 -0.2602 -0.3481  0.2277
 4926TIP3    H236270   1.563   2.916   1.663  2.1252  0.6499 -0.2935
 4927TIP3   OH236271   4.495   3.398  11.632 -0.2393  0.2181 -0.0011
 4927TIP3    H136272   4.570   3.345  11.655 -0.4858 -0.2087 -0.1758
 4927TIP3    H236273   4.422   3.336  11.626 -0.8054  0.7689  1.1529
 4928TIP3   OH236274   0.020   2.755  16.392 -0.0644 -0.1318  0.1063
 4928TIP3    H136275   0.107   2.729  16.423  0.1889  0.2618 -0.2748
 4928TIP3    H236276   0.030   2.847  16.366 -0.9585  0.3852  1.4834
 4929TIP3   OH236277   2.549   4.861  14.614 -0.2074 -0.4910 -0.1853
 4929TIP3    H136278   2.572   4.772  14.587  1.5669 -0.1153  0.0117
 4929TIP3    H236279   2.534   4.853  14.709  1.2332 -0.3475  0.0638
 4930TIP3   OH236280   5.427   5.861  13.440 -0.1642  0.1350  0.0377
 4930TIP3    H136281   5.483   5.910  13.380 -0.7960 -2.1193 -2.4842
 4930TIP3    H236282   5.475   5.781  13.459 -0.9621 -0.1746  0.7911
 4931TIP3   OH236283   1.269   1.527   4.499  0.0917  0.2641 -0.6741
 4931TIP3    H136284   1.215   1.471   4.444  0.8491 -1.1380 -0.0212
 4931TIP3    H236285   1.270   1.612   4.454 -2.2373  0.1792 -0.9243
 4932TIP3   OH236286   1.205   2.280  16.306  0.2117 -0.0495 -0.7041
 4932TIP3    H136287   1.141   2.250  16.370  0.4693  0.6115 -0.1303
 4932TIP3    H236288   1.290   2.258  16.344  0.3917  1.0676 -0.4444
 4933TIP3   OH236289   2.528   3.970  15.598 -0.1070 -0.1714 -0.1897
 4933TIP3    H136290   2.530   3.921  15.681  0.3910  1.1755  0.6173
 4933TIP3    H236291   2.466   4.041  15.615 -0.0851  0.0465 -1.0211
 4934TIP3   OH236292   4.671   2.688   5.096  0.1896 -0.3425  0.0259
 4934TIP3    H136293   4.717   2.624   5.041  3.1878  2.8238 -1.3677
 4934TIP3    H236294   4.739   2.724   5.152 -1.6831  0.7999  1.6108
 4935TIP3   OH236295   0.278   3.784   2.245  0.4880 -0.2807  0.1675
 4935TIP3    H136296   0.271   3.839   2.167  1.8310  0.1599  0.3494
 4935TIP3    H236297   0.193   3.794   2.289  0.4602  1.0980 -0.1714
 4936TIP3   OH236298   3.578   1.576   2.738 -0.3425 -0.5800 -0.0209
 4936TIP3    H136299   3.520   1.619   2.801 -1.0813 -1.0683 -0.3594
 4936TIP3    H236300   3.610   1.499   2.783  1.0782  0.3755  0.6297
 4937TIP3   OH236301   4.264   6.054   2.381  0.2887 -0.1321  0.1356
 4937TIP3    H136302   4.228   6.012   2.303  0.4125 -0.3267  0.1851
 4937TIP3    H236303   4.219   6.012   2.454  0.8808 -0.6275  0.2141
 4938TIP3   OH236304   5.539   0.735   2.885  0.3122  0.0238 -0.7558
 4938TIP3    H136305   5.618   0.755   2.935 -0.0820  0.3616 -0.2610
 4938TIP3    H236306   5.557   0.650   2.845  0.9406  0.1183 -0.6893
 4939TIP3   OH236307   4.980   1.376   2.657 -0.1473 -0.4687 -0.0106
 4939TIP3    H136308   5.007   1.450   2.711  2.5225 -2.2915  1.3124
 4939TIP3    H236309   5.044   1.373   2.587 -0.3739 -1.3494 -0.1920
 4940TIP3   OH236310   5.877   1.725   0.314  0.1499 -0.2020 -0.2883
 4940TIP3    H136311   5.905   1.812   0.286  0.2799  0.6608  2.3839
 4940TIP3    H236312   5.812   1.741   0.383  1.9278 -2.1870  1.9571
 4941TIP3   OH236313   0.929   0.940   6.655 -0.2446 -0.1262 -0.0959
 4941TIP3    H136314   0.882   0.968   6.577  0.0053 -1.8186 -0.8824
 4941TIP3    H236315   0.992   1.010   6.673 -0.3213  0.2768 -1.3832
 4942TIP3   OH236316   2.390   0.797   3.522  0.6196  0.3317 -0.4243
 4942TIP3    H136317   2.329   0.807   3.449  1.5099 -1.1360 -1.3965
 4942TIP3    H236318   2.335   0.773   3.596 -0.0779 -0.2772 -1.1274
 4943TIP3   OH236319   1.507   0.913   2.698 -0.0728 -0.0040  0.1294
 4943TIP3    H136320   1.569   0.842   2.715 -0.0537  0.2173  0.9977
 4943TIP3    H236321   1.430   0.892   2.752 -0.6481 -0.1292 -0.7261
 4944TIP3   OH236322   6.393   4.845  17.229  0.3942  0.3948  0.4624
 4944TIP3    H136323   6.347   4.817  17.150  0.6128 -0.6289  0.6935
 4944TIP3    H236324   6.459   4.907  17.198  0.2017  0.3124 -0.1051
 4945TIP3   OH236325   0.825   0.407  12.409  0.3436 -0.6425  0.0954
 4945TIP3    H136326   0.793   0.470  12.473 -0.5188 -1.2544  0.2812
 4945TIP3    H236327   0.873   0.460  12.345 -0.4986  0.2164  0.1611
 4946TIP3   OH236328   1.324   1.123   0.630 -0.0941 -0.0152 -0.4166
 4946TIP3    H136329   1.268   1.163   0.563 -0.7197  0.1219  0.1851
 4946TIP3    H236330   1.286   1.152   0.713  0.5245 -0.4018 -0.0002
 4947TIP3   OH236331   1.039   2.670  14.974  0.3320  0.4992  0.2981
 4947TIP3    H136332   1.078   2.664  15.061 -0.9071  0.4330  0.8708
 4947TIP3    H236333   0.985   2.749  14.978 -0.6006 -0.1126 -0.0406
 4948TIP3   OH236334   3.949   4.269  14.249 -0.2352 -0.4451  0.0884
 4948TIP3    H136335   3.958   4.331  14.177  1.1793 -0.1631  0.4936
 4948TIP3    H236336   3.949   4.183  14.208 -0.4554 -0.2454 -0.3330
 4949TIP3   OH236337   5.064   6.649   1.291 -0.7961  0.0288  0.4422
 4949TIP3    H136338   5.061   6.708   1.366 -1.3780  0.4133  0.1259
 4949TIP3    H236339   5.011   6.574   1.318  1.1324 -1.0117  1.3894
 4950TIP3   OH236340   5.671   6.756  14.790  0.4549  0.4250 -0.6535
 4950TIP3    H136341   5.698   6.788  14.704  0.2199  0.6061 -0.6615
 4950TIP3    H236342   5.604   6.818  14.818  1.8234  1.4343  0.4698
 4951TIP3   OH236343   1.055   0.146  15.106 -0.1283  0.4986  0.8918
 4951TIP3    H136344   1.143   0.173  15.133  0.1474  0.3386  0.1722
 4951TIP3    H236345   1.021   0.221  15.058 -0.2456  0.4267  0.8626
 4952TIP3   OH236346   5.321   2.342  11.362  0.3398  0.3816  0.6013
 4952TIP3    H136347   5.334   2.262  11.414  1.1791  1.1360  1.5730
 4952TIP3    H236348   5.410   2.374  11.344  0.0011  1.5705  0.9774
 4953TIP3   OH236349   2.060   0.192  14.163  0.4507 -0.4008  0.4549
 4953TIP3    H136350   2.037   0.156  14.248 -0.6803 -1.9072 -0.4680
 4953TIP3    H236351   2.144   0.153  14.142 -0.4758 -2.0749 -0.2560
 4954TIP3   OH236352   6.528   2.684  17.015  0.0928 -0.9941 -0.0093
 4954TIP3    H136353   6.616   2.694  16.978  1.1382 -1.1806  2.3350
 4954TIP3    H236354   6.484   2.767  16.996  0.8255 -0.8408 -1.0647
 4955TIP3   OH236355   5.372   4.134  14.139  0.4360  0.8952 -0.4595
 4955TIP3    H136356   5.372   4.217  14.187  1.1978  0.5831  0.0874
 4955TIP3    H236357   5.336   4.155  14.053  0.8185  1.8316 -0.3892
 4956TIP3   OH236358   4.298   3.073  13.361  0.2622  0.2486 -0.3362
 4956TIP3    H136359   4.291   3.068  13.266 -1.4572 -1.1030 -0.1676
 4956TIP3    H236360   4.295   2.982  13.390 -0.6583  0.7120  1.0881
 4957TIP3   OH236361   5.117   4.801   0.654 -0.5549 -0.4898 -0.5149
 4957TIP3    H136362   5.211   4.800   0.673 -0.5419 -0.8154 -0.5955
 4957TIP3    H236363   5.084   4.719   0.692 -0.8786 -0.1723 -0.1091
 4958TIP3   OH236364   1.612   4.194  16.162  0.1528 -0.1466 -0.0200
 4958TIP3    H136365   1.525   4.181  16.123 -0.1042  1.6830 -0.1116
 4958TIP3    H236366   1.601   4.164  16.253 -0.3390 -0.7087 -0.2580
 4959TIP3   OH236367   3.076   4.091  12.914 -0.1289 -0.1388  0.0551
 4959TIP3    H136368   3.168   4.064  12.905 -0.2177 -0.1006 -1.1498
 4959TIP3    H236369   3.070   4.130  13.001  1.1779  0.5117 -0.1322
 4960TIP3   OH236370   0.876   0.010  14.746 -0.1782 -0.6691  0.1598
 4960TIP3    H136371   0.816  -0.037  14.804  1.1801 -2.7916 -0.0967
 4960TIP3    H236372   0.949   0.034  14.803 -0.5220  0.4943  0.1177
 4961TIP3   OH236373   3.117   6.473   0.498  0.6054  0.0470  0.1734
 4961TIP3    H136374   3.100   6.431   0.414 -1.7986 -1.2687  1.2429
 4961TIP3    H236375   3.142   6.401   0.556 -0.6295  0.4949  1.2859
 4962TIP3   OH236376   4.163   3.757  13.266 -0.4509 -0.0271 -0.3181
 4962TIP3    H136377   4.192   3.673  13.302 -2.0010 -0.5825 -0.3370
 4962TIP3    H236378   4.135   3.737  13.177  0.2246  0.7354 -0.7173
 4963TIP3   OH236379   3.199   0.906  14.565 -0.2671 -0.1519 -0.1740
 4963TIP3    H136380   3.224   0.981  14.511  0.0199 -0.9935 -1.2192
 4963TIP3    H236381   3.276   0.890  14.621  0.1409 -0.4363 -0.8144
 4964TIP3   OH236382   5.054   1.564   5.563  0.0952  0.5097  0.5281
 4964TIP3    H136383   5.074   1.637   5.622 -0.2981  1.0933 -0.0562
 4964TIP3    H236384   5.095   1.488   5.604  2.3239  1.4285  0.0484
 4965TIP3   OH236385   4.227   1.069  11.603  0.4340  0.3949 -0.0438
 4965TIP3    H136386   4.213   1.149  11.654 -0.3830 -0.3099  0.8402
 4965TIP3    H236387   4.174   1.082  11.524 -0.3633  0.3723  0.4809
 4966TIP3   OH236388   1.245   5.317  16.224  0.0270 -0.1175 -0.1906
 4966TIP3    H136389   1.321   5.259  16.212  0.6793 -0.0114  3.1096
 4966TIP3    H236390   1.280   5.405  16.215  0.2992 -0.0676  1.3806
 4967TIP3   OH236391   3.578   0.278  14.524 -0.0680  0.2581 -0.1326
 4967TIP3    H136392   3.539   0.310  14.443 -1.4316 -0.2963  0.2843
 4967TIP3    H236393   3.656   0.231  14.496  1.5987  3.3175 -0.7864
 4968TIP3   OH236394   6.513   6.608   4.254 -0.1723  1.1109  0.5899
 4968TIP3    H136395   6.514   6.585   4.162 -0.4340 -1.8466  1.2900
 4968TIP3    H236396   6.541   6.700   4.256 -1.0514  1.4912 -2.4649
 4969TIP3   OH236397   6.352   5.925  12.390  0.2592 -0.2312  0.1308
 4969TIP3    H136398   6.433   5.970  12.367  0.8494 -1.8399 -0.9936
 4969TIP3    H236399   6.284   5.991  12.380  1.5676  1.5055  2.3563
 4970TIP3   OH236400   4.106   2.936   3.642  0.3159 -0.5346 -0.6500
 4970TIP3    H136401   4.153   3.011   3.676 -0.9267  1.3166 -2.8941
 4970TIP3    H236402   4.175   2.876   3.611  1.2696  0.2367 -0.0383
 4971TIP3   OH236403   3.633   5.552  13.311  0.3691 -0.2783 -0.4974
 4971TIP3    H136404   3.665   5.490  13.376 -0.3775  0.6291  0.7510
 4971TIP3    H236405   3.624   5.635  13.359 -3.1806 -0.3415 -0.9349
 4972TIP3   OH236406   0.156   3.896   0.648 -0.4645 -1.0232 -0.6283
 4972TIP3    H136407   0.248   3.870   0.651 -0.1567 -0.0172 -1.0375
 4972TIP3    H236408   0.113   3.840   0.713  0.8079 -0.0725  1.0677
 4973TIP3   OH236409   3.878   0.209   0.554  0.4771 -0.0458  0.2031
 4973TIP3    H136410   3.858   0.302   0.543  2.5916  0.3335 -0.7094
 4973TIP3    H236411   3.944   0.207   0.624  1.6632 -0.6948 -0.9131
 4974TIP3   OH236412   2.608   3.894  14.292  0.1924  0.2517 -0.3054
 4974TIP3    H136413   2.601   3.879  14.198  0.5293  1.3897 -0.5284
 4974TIP3    H236414   2.534   3.847  14.330 -1.7527  2.2810 -1.4364
 4975TIP3   OH236415   1.372   3.902  11.598  0.4554 -0.6657 -0.3040
 4975TIP3    H136416   1.416   3.973  11.644 -1.5913 -0.9673  2.2556
 4975TIP3    H236417   1.381   3.924  11.505  0.1623  2.7878  0.4075
 4976TIP3   OH236418   6.729   5.049   3.901 -0.6534  0.6343 -0.2839
 4976TIP3    H136419   6.774   5.025   3.820 -1.5097 -1.3891 -0.1706
 4976TIP3    H236420   6.800   5.074   3.961 -0.0106  2.1098 -1.6178
 4977TIP3   OH236421   5.645   4.700   5.822  0.1493 -0.7508 -0.3532
 4977TIP3    H136422   5.685   4.779   5.858 -1.3921  0.0671 -0.3992
 4977TIP3    H236423   5.659   4.634   5.889  0.6620 -0.2118  0.0770
 4978TIP3   OH236424   1.228   5.011  17.216  0.0263  0.1174  0.7864
 4978TIP3    H136425   1.170   5.040  17.146 -0.0062 -0.8256  0.4136
 4978TIP3    H236426   1.303   5.070  17.210 -0.4166  0.6646  0.5851
 4979TIP3   OH236427   0.998   0.749  13.208  0.3050 -0.0687 -0.2200
 4979TIP3    H136428   0.948   0.830  13.204  1.4522  0.6468 -0.2921
 4979TIP3    H236429   1.084   0.775  13.240  0.2612 -1.4618  1.1119
 4980TIP3   OH236430   5.172   1.103   3.490  0.0723  0.1898  0.8133
 4980TIP3    H136431   5.245   1.042   3.475 -0.3138 -0.4850  1.6426
 4980TIP3    H236432   5.167   1.154   3.410 -0.3671 -1.6868 -0.3933
 4981TIP3   OH236433   4.955   1.620   5.935 -0.1070 -0.1145  0.4028
 4981TIP3    H136434   4.990   1.651   6.018  0.6824  1.2635 -0.4376
 4981TIP3    H236435   5.001   1.670   5.868 -1.1535 -0.7824 -0.8566
 4982TIP3   OH236436   5.609   0.610  15.886 -0.0975  0.0663  0.2666
 4982TIP3    H136437   5.557   0.633  15.964  1.5853  0.8226  1.1819
 4982TIP3    H236438   5.670   0.543  15.918 -1.7899 -2.2734 -1.2645
 4983TIP3   OH236439   1.732   3.982   1.731 -0.0250 -0.2317 -0.3014
 4983TIP3    H136440   1.785   3.908   1.701  1.3037  0.9479 -0.9274
 4983TIP3    H236441   1.789   4.058   1.721 -0.0742  0.4677  3.6302
 4984TIP3   OH236442   6.013   3.016   5.682 -0.0666  0.6847  0.2507
 4984TIP3    H136443   6.081   2.965   5.727 -1.0931 -1.5714 -0.7121
 4984TIP3    H236444   5.931   2.987   5.722 -0.7650  0.6427 -1.2132
 4985TIP3   OH236445   0.307   5.860  11.477  0.1503  0.1216  0.3063
 4985TIP3    H136446   0.219   5.884  11.449  0.8761  1.2070 -1.0599
 4985TIP3    H236447   0.344   5.812  11.402  1.4635  1.4960  0.0665
 4986TIP3   OH236448   6.345   3.630  16.453 -0.1923 -0.0008 -0.3532
 4986TIP3    H136449   6.285   3.704  16.457 -0.3714 -0.2516  2.9044
 4986TIP3    H236450   6.298   3.558  16.494  1.5466 -0.7535  0.3940
 4987TIP3   OH236451   6.422   1.917   2.650 -0.3426 -0.2532  0.2374
 4987TIP3    H136452   6.393   1.983   2.588  1.6318  0.3809 -0.0393
 4987TIP3    H236453   6.512   1.898   2.625  0.3053 -0.3919  2.5375
 4988TIP3   OH236454   0.778   4.950   1.829 -0.4214 -0.3507 -0.1162
 4988TIP3    H136455   0.826   4.889   1.884 -0.9915 -0.5658  0.1397
 4988TIP3    H236456   0.734   5.008   1.890 -1.6197 -1.0253 -0.3372
 4989TIP3   OH236457   1.988   4.518  12.407 -1.0489  0.0300  0.0218
 4989TIP3    H136458   1.951   4.606  12.415 -2.3404 -0.5515  0.6727
 4989TIP3    H236459   1.956   4.471  12.484  2.5928 -0.0082  1.5944
 4990TIP3   OH236460   5.992   0.038   3.981  0.1893  0.0183 -0.0008
 4990TIP3    H136461   6.053   0.109   3.960 -0.6363  0.8630  0.4101
 4990TIP3    H236462   5.915   0.057   3.928 -0.5971  0.2598  1.2246
 4991TIP3   OH236463   1.701   3.246  15.067  0.0308 -0.4458 -0.0084
 4991TIP3    H136464   1.697   3.213  15.157  2.1663 -1.7779 -0.3810
 4991TIP3    H236465   1.766   3.315  15.069  0.7964 -1.1292 -0.7074
 4992TIP3   OH236466   0.644   6.417   5.340  0.3262  0.0077 -0.1337
 4992TIP3    H136467   0.582   6.484   5.370  1.0000  0.3351  0.5422
 4992TIP3    H236468   0.590   6.340   5.321 -0.5841  1.0685 -1.9351
 4993TIP3   OH236469   6.443   1.334  12.420 -0.0627 -0.7653 -0.5593
 4993TIP3    H136470   6.463   1.368  12.507 -0.4822 -1.0244 -0.3609
 4993TIP3    H236471   6.376   1.267  12.435 -0.8662 -0.1042 -1.1856
 4994TIP3   OH236472   6.580   2.255  15.788  0.7589  0.6995 -0.3942
 4994TIP3    H136473   6.642   2.260  15.715  0.6609  0.2037 -0.5169
 4994TIP3    H236474   6.508   2.313  15.763  2.3895  3.3850  0.9479
 4995TIP3   OH236475   4.055   3.348   5.335 -0.3746 -0.2259  0.2378
 4995TIP3    H136476   4.009   3.326   5.416  0.6436  0.6414  1.0690
 4995TIP3    H236477   4.127   3.285   5.331 -0.0152  0.1723  0.3754
 4996TIP3   OH236478   2.073   1.961  13.236 -0.5198  0.8047  0.3703
 4996TIP3    H136479   1.986   1.935  13.268 -0.1433 -0.7064  0.2178
 4996TIP3    H236480   2.133   1.929  13.303 -0.0209  1.0768  0.0499
 4997TIP3   OH236481   3.085   0.166  16.694 -0.0554 -0.1577 -0.5764
 4997TIP3    H136482   3.159   0.223  16.715  1.7281 -1.7565 -2.3289
 4997TIP3    H236483   3.102   0.085  16.742 -0.2887 -0.8061 -1.5830
 4998TIP3   OH236484   2.009   4.521   0.189  0.1525 -0.2408  0.0634
 4998TIP3    H136485   2.094   4.506   0.232 -0.3332  1.5798  1.7135
 4998TIP3    H236486   1.951   4.549   0.260 -1.9493 -1.8362 -0.9950
 4999TIP3   OH236487   4.250   1.835   4.354 -0.3847  0.1856  0.4207
 4999TIP3    H136488   4.177   1.882   4.394 -0.3825 -1.0770  1.9535
 4999TIP3    H236489   4.318   1.902   4.344 -1.2637  1.0722  0.2131
 5000TIP3   OH236490   3.864   1.072  11.784  0.7474 -0.3269 -0.3707
 5000TIP3    H136491   3.831   0.987  11.813  0.0610 -0.0388 -0.3007
 5000TIP3    H236492   3.929   1.096  11.850  0.1266 -0.2737  0.2244
 5001TIP3   OH236493   4.763   2.456   0.370  0.2090 -0.6848  0.0939
 5001TIP3    H136494   4.766   2.432   0.277  3.4958 -0.6593  0.1363
 5001TIP3    H236495   4.849   2.429   0.405 -1.1520 -1.1554  3.2465
 5002TIP3   OH236496   1.118   4.836  15.962 -0.2654 -0.3941  0.2638
 5002TIP3    H136497   1.028   4.821  15.988  0.3094 -0.2132  2.4004
 5002TIP3    H236498   1.164   4.755  15.981  0.4174  0.1494  0.9868
 5003TIP3   OH236499   4.894   5.451   2.260 -0.0817 -1.1167 -0.4268
 5003TIP3    H136500   4.978   5.425   2.296  0.8407  0.8603 -1.1087
 5003TIP3    H236501   4.896   5.419   2.169 -0.2010 -1.3363 -0.3533
 5004TIP3   OH236502   2.444   3.880   5.035  0.1138  0.3848 -0.0883
 5004TIP3    H136503   2.526   3.921   5.009  0.3878 -0.2459 -0.2416
 5004TIP3    H236504   2.471   3.798   5.077 -0.4541 -0.1168 -0.6848
 5005TIP3   OH236505   1.819   3.161  13.935 -0.1039 -0.4549 -0.0832
 5005TIP3    H136506   1.747   3.156  13.998 -1.9963 -2.1779 -2.3062
 5005TIP3    H236507   1.853   3.250  13.945 -2.3626  0.3061  1.1820
 5006TIP3   OH236508   0.449   1.996   1.770 -0.0958  0.3252  0.7055
 5006TIP3    H136509   0.463   1.911   1.728  2.2754  1.2847 -0.5542
 5006TIP3    H236510   0.529   2.011   1.820 -0.1621  2.1713  0.2787
 5007TIP3   OH236511   5.571   0.283   1.059  0.3141 -0.4829  0.2322
 5007TIP3    H136512   5.558   0.259   0.968 -3.4280  2.6794 -0.1951
 5007TIP3    H236513   5.593   0.377   1.057 -0.1271 -0.2854  2.5743
 5008TIP3   OH236514   0.990   5.713   3.446 -0.0663  0.9391  0.0902
 5008TIP3    H136515   0.977   5.697   3.353 -1.9910  1.0542  0.3164
 5008TIP3    H236516   0.905   5.745   3.477 -0.0525 -0.9888  2.2763
 5009TIP3   OH236517   4.834   3.635   3.206 -0.1183 -0.2472  0.3815
 5009TIP3    H136518   4.798   3.711   3.160 -0.3566  0.0509  1.0565
 5009TIP3    H236519   4.830   3.564   3.142  1.7367  0.7215 -0.8436
 5010TIP3   OH236520   4.406   1.333   3.734 -0.0650 -0.1718  0.7535
 5010TIP3    H136521   4.477   1.344   3.798  0.7007  2.4887 -0.5084
 5010TIP3    H236522   4.379   1.422   3.712 -0.5186 -1.0521 -2.4388
 5011TIP3   OH236523   6.058   1.944   0.855  0.2696  0.3800  0.2434
 5011TIP3    H136524   6.093   2.032   0.839  1.4034  0.1097  1.1796
 5011TIP3    H236525   6.126   1.885   0.822 -0.6891 -0.1617 -0.8058
 5012TIP3   OH236526   4.976   1.886   5.237 -0.7859 -0.0126 -0.1400
 5012TIP3    H136527   5.055   1.845   5.270 -0.7459  0.3117  0.1671
 5012TIP3    H236528   4.919   1.813   5.211 -0.1937 -0.2391 -0.8217
 5013TIP3   OH236529   5.599   1.105   0.498 -0.3881 -0.3400  0.4947
 5013TIP3    H136530   5.682   1.145   0.524 -1.2268 -0.0780  2.8913
 5013TIP3    H236531   5.533   1.170   0.520 -1.1871 -0.2027 -2.1900
 5014TIP3   OH236532   3.737   6.806  17.217 -0.3283 -0.5648  0.4404
 5014TIP3    H136533   3.746   6.851  17.134 -0.1686  1.0395  1.3046
 5014TIP3    H236534   3.819   6.759  17.229  0.5405  1.0221  0.7495
 5015TIP3   OH236535   2.101   4.039   6.743  0.3277  0.0152 -0.2155
 5015TIP3    H136536   2.129   3.982   6.815  0.1680  1.3368  0.9152
 5015TIP3    H236537   2.179   4.050   6.689  0.9753  0.6246  0.8444
 5016TIP3   OH236538   4.337   0.959  17.142  0.4708 -0.1153 -0.1264
 5016TIP3    H136539   4.324   0.869  17.114 -2.1528  0.2941 -0.2743
 5016TIP3    H236540   4.342   0.955  17.237  2.0892 -0.5907 -0.2055
 5017TIP3   OH236541   2.726   1.232  11.628  0.3789  0.4120  0.3672
 5017TIP3    H136542   2.717   1.261  11.719  2.9608 -0.3441  0.8751
 5017TIP3    H236543   2.796   1.286  11.592  0.2845 -0.2127 -0.7821
 5018TIP3   OH236544   1.444   0.946  14.425  0.7629 -0.1403 -0.7969
 5018TIP3    H136545   1.443   0.941  14.521 -0.6624 -0.2574 -0.8084
 5018TIP3    H236546   1.525   0.993  14.405  0.8927  0.2107  0.4793
 5019TIP3   OH236547   0.631   6.262  15.805 -0.2269  0.1170  0.0528
 5019TIP3    H136548   0.714   6.296  15.771 -0.4090  0.2894 -0.2200
 5019TIP3    H236549   0.639   6.167  15.796  0.1845  0.0996  0.5933
 5020TIP3   OH236550   6.381   4.205  16.788 -0.3882 -0.5699 -0.0822
 5020TIP3    H136551   6.458   4.249  16.824 -1.0037  0.0208  0.5533
 5020TIP3    H236552   6.374   4.124  16.837 -0.2046 -0.5962 -0.0995
 5021TIP3   OH236553   0.264   5.795   2.323 -0.7619  0.0725  0.3270
 5021TIP3    H136554   0.317   5.848   2.264 -0.9027 -0.9964 -0.7700
 5021TIP3    H236555   0.218   5.733   2.266  0.3832 -2.1064  1.6627
 5022TIP3   OH236556   1.717   0.157   2.338  0.3447 -0.4936  0.0330
 5022TIP3    H136557   1.749   0.072   2.309  0.0093 -0.2027 -1.2449
 5022TIP3    H236558   1.782   0.219   2.305  0.1817 -0.1894  0.2824
 5023TIP3   OH236559   2.037   1.786  14.370  0.1764 -0.0294  0.3041
 5023TIP3    H136560   2.000   1.844  14.436  0.1311  1.2925 -0.8630
 5023TIP3    H236561   2.070   1.711  14.420  0.6083  1.1778  1.8649
 5024TIP3   OH236562   3.435   0.017   1.866  0.2893 -0.2365 -0.0057
 5024TIP3    H136563   3.416  -0.054   1.927  0.3666  0.5205  0.9277
 5024TIP3    H236564   3.381  -0.000   1.789 -1.7051  0.1442  1.2903
 5025TIP3   OH236565   4.215   3.387   3.734  0.2111  0.1283 -0.2491
 5025TIP3    H136566   4.151   3.371   3.664  0.4329  3.1753 -1.2402
 5025TIP3    H236567   4.162   3.415   3.808  0.1417 -1.0573  0.1648
 5026TIP3   OH236568   5.268   6.069   3.888  0.1776  0.6289  0.1855
 5026TIP3    H136569   5.216   6.011   3.833 -1.0563 -0.5490  2.5157
 5026TIP3    H236570   5.351   6.022   3.901 -0.9235 -0.8198  2.3016
 5027TIP3   OH236571   4.426   1.219  11.063 -0.0122 -0.3557 -1.1897
 5027TIP3    H136572   4.383   1.250  10.983  0.3624 -0.1587 -1.3169
 5027TIP3    H236573   4.452   1.299  11.108  0.6726 -0.4703 -1.3608
 5028TIP3   OH236574   5.186   3.924   4.505  0.2557 -0.7515  0.3711
 5028TIP3    H136575   5.135   4.001   4.481  0.7711 -0.9487 -1.3813
 5028TIP3    H236576   5.192   3.929   4.601 -2.9459 -0.6782  0.5997
 5029TIP3   OH236577   5.309   1.406  11.354  0.1060  0.1016  0.1115
 5029TIP3    H136578   5.378   1.371  11.410 -0.5169  0.0537  0.8592
 5029TIP3    H236579   5.277   1.484  11.401 -1.5802 -0.9067  0.6899
 5030TIP3   OH236580   5.685   2.680   2.925 -0.2800  0.1079 -0.5414
 5030TIP3    H136581   5.722   2.619   2.861  0.9366 -1.0585  1.1796
 5030TIP3    H236582   5.638   2.623   2.987 -3.0678  1.3825 -1.4374
 5031TIP3   OH236583   2.775   1.167   3.633  0.4303  0.6675  0.3766
 5031TIP3    H136584   2.725   1.201   3.708  0.7686  1.8990  0.0594
 5031TIP3    H236585   2.860   1.141   3.671 -0.2659 -0.9905  0.8333
 5032TIP3   OH236586   5.176   6.801  16.633 -0.1066 -0.2818  0.1924
 5032TIP3    H136587   5.201   6.813  16.724  1.4051  1.4406 -0.4285
 5032TIP3    H236588   5.254   6.764  16.591 -0.6975 -0.8064 -0.4685
 5033TIP3   OH236589   1.285   0.070  13.207  0.5834 -0.0299 -0.3516
 5033TIP3    H136590   1.267  -0.010  13.256  0.7153 -1.0431 -1.9117
 5033TIP3    H236591   1.370   0.100  13.240  1.4524 -1.6054 -1.0856
 5034TIP3   OH236592   3.423   6.688   3.969 -0.1801  0.2815  0.1050
 5034TIP3    H136593   3.467   6.746   3.908 -0.4252 -0.0308 -0.3711
 5034TIP3    H236594   3.492   6.660   4.029  0.4428 -0.8187 -1.1013
 5035TIP3   OH236595   1.352   5.535  16.869  0.2389  0.0832  0.0234
 5035TIP3    H136596   1.353   5.456  16.815  1.4967  0.3895 -0.4181
 5035TIP3    H236597   1.360   5.606  16.806 -0.8260  0.5734  0.4239
 5036TIP3   OH236598   2.818   2.277   2.586 -0.3391 -0.2646 -0.0641
 5036TIP3    H136599   2.828   2.356   2.532  1.6649 -1.3476 -1.3626
 5036TIP3    H236600   2.778   2.213   2.527 -2.8859  0.0592  1.2755
 5037TIP3   OH236601   1.986   3.738   1.244 -0.2527 -0.0162 -0.3584
 5037TIP3    H136602   1.938   3.797   1.301 -1.1668 -0.0914 -1.0542
 5037TIP3    H236603   2.067   3.785   1.224  0.0438  0.0458  0.9251
 5038TIP3   OH236604   5.841   2.596  11.491 -0.2358  0.2937  0.0310
 5038TIP3    H136605   5.778   2.535  11.529 -1.0027  1.0901  0.0848
 5038TIP3    H236606   5.826   2.589  11.396  0.0406  0.0088  0.0108
 5039TIP3   OH236607   0.126   0.946  16.975  0.6093 -1.2550 -0.1150
 5039TIP3    H136608   0.163   0.972  17.060 -0.7763 -0.1863  0.1727
 5039TIP3    H236609   0.133   1.023  16.920 -1.3434 -0.9626  0.0065
 5040TIP3   OH236610   3.914   1.206   1.143 -0.1479  0.6547  0.0584
 5040TIP3    H136611   3.853   1.133   1.157 -0.0690  0.0992 -2.2214
 5040TIP3    H236612   3.963   1.212   1.225  0.8665 -2.8755 -0.1742
 5041TIP3   OH236613   5.744   4.526  16.922 -0.2405  0.3936  0.6188
 5041TIP3    H136614   5.733   4.532  16.827 -1.5611  1.3051  0.8105
 5041TIP3    H236615   5.801   4.600  16.944  0.0929  0.1621  0.5301
 5042TIP3   OH236616   4.000   0.333  11.867  0.1582  0.1624 -0.0179
 5042TIP3    H136617   4.072   0.270  11.869  1.1562  1.0923 -3.3419
 5042TIP3    H236618   4.040   0.414  11.835 -2.4823  0.4494 -2.8525
 5043TIP3   OH236619   3.908   4.646  16.048  0.0322 -0.5314  0.2387
 5043TIP3    H136620   3.913   4.642  15.952  0.9349  1.2035  0.2018
 5043TIP3    H236621   3.837   4.708  16.066  1.0564  0.5109  0.6893
 5044TIP3   OH236622   1.873   0.493  14.111  0.2684  0.2373  0.1228
 5044TIP3    H136623   1.834   0.462  14.029  0.8967  0.4313 -0.2548
 5044TIP3    H236624   1.822   0.451  14.179 -1.8308  1.9634 -0.3415
 5045TIP3   OH236625   4.027   2.871   1.752 -0.0953  0.4215 -0.5227
 5045TIP3    H136626   4.075   2.920   1.685  0.4686 -1.2369 -1.3383
 5045TIP3    H236627   3.936   2.898   1.740  0.3456  2.1747 -0.1750
 5046TIP3   OH236628   2.669   6.441  15.306 -0.4758 -0.2101 -0.2006
 5046TIP3    H136629   2.629   6.414  15.389  0.0166 -0.1809  0.0462
 5046TIP3    H236630   2.763   6.433  15.321 -0.4047 -0.9317 -1.0100
 5047TIP3   OH236631   2.277   0.301  16.030  0.1778  0.7045 -0.0684
 5047TIP3    H136632   2.275   0.211  16.062  1.3699  0.5192 -0.4920
 5047TIP3    H236633   2.350   0.303  15.969  0.3938  2.0526  0.2103
 5048TIP3   OH236634   5.448   5.796  12.245 -0.2821  0.0496 -0.0538
 5048TIP3    H136635   5.507   5.839  12.306 -0.3279  0.8234 -0.5518
 5048TIP3    H236636   5.386   5.748  12.301  0.0618  0.2364  0.4894
 5049TIP3   OH236637   2.274   0.971  12.894 -0.1891 -0.5158  0.7720
 5049TIP3    H136638   2.329   1.036  12.939 -1.4522  0.1475  1.4067
 5049TIP3    H236639   2.291   0.985  12.801  1.5292 -1.0617  0.9971
 5050TIP3   OH236640   4.053   6.208  11.190  0.1811  0.5493 -0.1720
 5050TIP3    H136641   3.982   6.241  11.244 -0.2638  1.0908 -1.0874
 5050TIP3    H236642   4.072   6.279  11.129  1.1931  0.2296 -0.2349
 5051TIP3   OH236643   6.346   2.816   1.144 -0.1752  0.5107 -0.2374
 5051TIP3    H136644   6.288   2.879   1.187 -0.1503  0.6456 -0.4000
 5051TIP3    H236645   6.376   2.759   1.214 -1.0932 -0.0142 -0.2712
 5052TIP3   OH236646   2.810   4.079   5.060  0.2278 -0.2476  0.0064
 5052TIP3    H136647   2.740   4.144   5.061 -0.8728 -1.4181  0.5074
 5052TIP3    H236648   2.815   4.047   5.150  0.3141 -1.3128 -0.3680
 5053TIP3   OH236649   4.396   2.374  13.313 -0.3503  0.1113 -0.2996
 5053TIP3    H136650   4.456   2.405  13.246 -1.2555 -0.0543 -1.1971
 5053TIP3    H236651   4.352   2.453  13.346  0.2270  0.2128  0.2319
 5054TIP3   OH236652   3.266   1.873  16.560  0.5428  0.2196 -0.1809
 5054TIP3    H136653   3.213   1.932  16.614  0.3025 -0.3330  0.1925
 5054TIP3    H236654   3.209   1.799  16.542  0.3774  0.7348 -1.8245
 5055TIP3   OH236655   3.839   0.700  12.775  0.3858  0.0826  0.1588
 5055TIP3    H136656   3.830   0.785  12.819  1.5898 -0.7945  2.1384
 5055TIP3    H236657   3.816   0.636  12.842  0.2361 -1.1914 -1.1061
 5056TIP3   OH236658   4.870   3.653  13.238 -0.0466 -0.2528  0.3663
 5056TIP3    H136659   4.776   3.659  13.257 -0.3760  0.0341 -1.3319
 5056TIP3    H236660   4.876   3.658  13.143  1.5646 -1.8883  0.3425
 5057TIP3   OH236661   2.167   4.061   0.212  0.4629 -0.3346 -0.0608
 5057TIP3    H136662   2.219   4.115   0.154  0.4017  0.9597  1.0493
 5057TIP3    H236663   2.191   4.090   0.300 -0.6798 -1.0667  0.5174
 5058TIP3   OH236664   3.465   5.628  12.577  0.3360  0.0405  0.0567
 5058TIP3    H136665   3.491   5.688  12.507  3.1879 -2.3553 -1.0601
 5058TIP3    H236666   3.436   5.549  12.531 -0.8530 -0.4166  1.5479
 5059TIP3   OH236667   2.467   3.051   3.748  0.2407  0.3757  0.0209
 5059TIP3    H136668   2.409   3.023   3.819  0.9110 -0.7701  0.1207
 5059TIP3    H236669   2.408   3.089   3.682 -0.3325  1.9800  1.4282
 5060TIP3   OH236670   5.150   1.538  12.516 -0.0347  0.4285 -0.4808
 5060TIP3    H136671   5.206   1.582  12.580 -0.6323 -0.3816  0.6316
 5060TIP3    H236672   5.194   1.455  12.498  0.3455  0.8354 -1.4464
 5061TIP3   OH236673   1.280   6.356  16.724 -0.1880  0.6046  0.0483
 5061TIP3    H136674   1.333   6.369  16.646  0.0119  0.4423  0.1601
 5061TIP3    H236675   1.342   6.355  16.796 -0.1566 -1.2025  0.0299
 5062TIP3   OH236676   0.961   6.309  12.741 -0.3616 -0.0658  0.1846
 5062TIP3    H136677   0.966   6.233  12.799 -0.1358 -0.6484 -0.5926
 5062TIP3    H236678   0.952   6.384  12.800 -0.3808 -0.6768  0.9617
 5063TIP3   OH236679   5.847   4.781  16.564 -0.2921  0.0801 -0.0754
 5063TIP3    H136680   5.928   4.832  16.555 -0.2127  0.3232  1.7029
 5063TIP3    H236681   5.778   4.848  16.565 -0.5030 -0.1139 -1.3988
 5064TIP3   OH236682   3.797   1.338   5.299 -0.1936 -0.4552  0.6640
 5064TIP3    H136683   3.749   1.403   5.350  0.1353  1.3178 -1.1926
 5064TIP3    H236684   3.740   1.319   5.225  1.3100  0.6175 -0.8190
 5065TIP3   OH236685   4.066   4.088  10.289 -0.0919 -0.0993  0.4179
 5065TIP3    H136686   3.993   4.147  10.306 -0.3697 -0.4903  0.5764
 5065TIP3    H236687   4.041   4.006  10.330  0.7673 -0.0185  1.1254
 5066TIP3   OH236688   4.475   4.258  15.710 -0.6654 -0.2467 -0.1346
 5066TIP3    H136689   4.496   4.205  15.633 -0.7669 -1.9098  0.9576
 5066TIP3    H236690   4.514   4.209  15.783  1.4176  2.4660  0.6425
 5067TIP3   OH236691   0.904   3.937  13.365 -0.2565 -0.4577 -0.6025
 5067TIP3    H136692   0.997   3.941  13.386 -0.2355 -1.0394 -0.5782
 5067TIP3    H236693   0.875   3.853  13.400 -0.6880 -0.4839 -1.0155
 5068TIP3   OH236694   5.846   1.125   4.095 -0.3886  0.1252  0.0517
 5068TIP3    H136695   5.869   1.033   4.098 -0.7153 -0.0608 -2.1516
 5068TIP3    H236696   5.929   1.171   4.083 -0.3997 -0.0115 -0.5563
 5069TIP3   OH236697   6.735   1.578  11.912 -0.0264 -0.3454 -0.5735
 5069TIP3    H136698   6.695   1.651  11.866 -0.8567 -1.3979 -1.5587
 5069TIP3    H236699   6.813   1.615  11.954  0.0316  0.9086 -1.7672
 5070TIP3   OH236700   6.009   0.646  15.217 -0.1597 -0.3219  0.3179
 5070TIP3    H136701   5.986   0.588  15.145 -1.8795  0.9792 -0.1984
 5070TIP3    H236702   6.083   0.697  15.185 -1.0060  0.3478 -0.5869
 5071TIP3   OH236703   1.788   0.490   1.426 -0.5104 -0.4478 -0.3379
 5071TIP3    H136704   1.814   0.501   1.517 -0.4466  0.3384 -0.4481
 5071TIP3    H236705   1.846   0.549   1.377  0.1351 -1.6081 -0.9957
 5072TIP3   OH236706   0.037   0.470  10.939  0.3968  0.7074 -0.2515
 5072TIP3    H136707   0.069   0.521  10.865 -0.0338 -0.5215 -1.3012
 5072TIP3    H236708  -0.044   0.430  10.908 -1.0510  2.0366  1.6677
 5073TIP3   OH236709   2.810   4.524  10.995  0.4346  0.0423  0.1981
 5073TIP3    H136710   2.755   4.596  10.965 -0.6087 -1.3129 -1.1962
 5073TIP3    H236711   2.812   4.533  11.090 -1.8958  0.3321  0.2430
 5074TIP3   OH236712   1.187   0.666  13.915  0.1393  0.1408 -0.3537
 5074TIP3    H136713   1.100   0.627  13.924  0.8214 -1.4619 -0.3873
 5074TIP3    H236714   1.198   0.680  13.821  0.2299 -0.4762 -0.4442
 5075TIP3   OH236715   1.328   1.767   4.393  0.0136  0.1822 -0.3136
 5075TIP3    H136716   1.416   1.796   4.368  0.7251 -0.4356  1.4285
 5075TIP3    H236717   1.278   1.848   4.404  0.6701  0.5709 -0.1965
 5076TIP3   OH236718   4.230   2.839   4.978 -0.0450  0.1223 -0.0493
 5076TIP3    H136719   4.318   2.812   4.951  0.2329 -1.4210  2.2512
 5076TIP3    H236720   4.228   2.821   5.072 -2.5724  0.8538  0.0549
 5077TIP3   OH236721   3.097   2.972   0.977 -1.2787  0.8620  0.8568
 5077TIP3    H136722   3.110   3.050   0.922  0.1142  1.3853  1.8892
 5077TIP3    H236723   3.094   3.006   1.066 -0.3751 -0.3008  1.3448
 5078TIP3   OH236724   1.521   3.626   3.342 -0.4841 -0.1021 -0.4857
 5078TIP3    H136725   1.548   3.584   3.260  2.5683 -1.3989  1.1167
 5078TIP3    H236726   1.551   3.717   3.333 -1.3404  0.1059 -1.3262
 5079TIP3   OH236727   1.305   6.377   2.742  0.5156 -0.4755  0.1964
 5079TIP3    H136728   1.399   6.363   2.737  0.9046  2.4674 -1.7292
 5079TIP3    H236729   1.270   6.326   2.669  0.2709 -3.4960  2.2950
 5080TIP3   OH236730   6.229   1.396   2.949 -0.0676  0.1662 -0.2947
 5080TIP3    H136731   6.288   1.323   2.933  0.5152  0.5457  0.1050
 5080TIP3    H236732   6.273   1.448   3.016 -0.6514  0.6847 -0.3118
 5081TIP3   OH236733   1.832   0.971   5.216 -0.0047  0.4375  0.0794
 5081TIP3    H136734   1.836   1.001   5.307  0.0700  0.0099  0.2181
 5081TIP3    H236735   1.788   0.886   5.220  2.4500 -0.8810  0.0517
 5082TIP3   OH236736   1.712   5.037  13.708 -0.3556  0.2788  0.7673
 5082TIP3    H136737   1.619   5.030  13.687  0.1622  0.1252 -1.5610
 5082TIP3    H236738   1.757   5.000  13.632  1.6430  1.9229  1.0962
 5083TIP3   OH236739   5.010   6.176   5.186  0.6196  0.2338 -0.0849
 5083TIP3    H136740   4.961   6.117   5.244 -0.5878  1.1782 -0.1242
 5083TIP3    H236741   4.986   6.148   5.098  0.7750  0.1891 -0.1129
 5084TIP3   OH236742   2.969   2.052  13.074  0.4361 -0.2348 -0.4618
 5084TIP3    H136743   3.063   2.045  13.057  0.4794  0.4991 -0.5522
 5084TIP3    H236744   2.943   1.964  13.100  0.6324 -1.1162 -3.0841
 5085TIP3   OH236745   3.431   3.950   3.127  0.4949  0.5473  0.3219
 5085TIP3    H136746   3.478   3.874   3.094 -0.1553 -0.9403  2.6933
 5085TIP3    H236747   3.341   3.919   3.139  0.1214  1.8145  0.8719
 5086TIP3   OH236748   6.172   4.412   3.259  0.0725  0.3755 -0.0188
 5086TIP3    H136749   6.117   4.446   3.330  1.0724 -0.3470  1.1158
 5086TIP3    H236750   6.213   4.490   3.221 -0.1219  0.7220  0.4799
 5087TIP3   OH236751   0.069   3.867   3.514 -0.0329  0.4416 -0.4285
 5087TIP3    H136752   0.053   3.773   3.508 -0.1626  0.5065 -1.1424
 5087TIP3    H236753  -0.014   3.903   3.545 -0.0585  0.3480 -0.3877
 5088TIP3   OH236754   0.657   2.015   2.560  0.3179  0.0601  0.1444
 5088TIP3    H136755   0.741   1.971   2.545 -0.4407 -0.7599 -1.8384
 5088TIP3    H236756   0.681   2.104   2.585  1.7960 -0.3187  0.1220
 5089TIP3   OH236757   1.122   1.617   5.811  0.9556  0.2233  0.0923
 5089TIP3    H136758   1.072   1.601   5.731  1.6111 -1.2344 -0.0246
 5089TIP3    H236759   1.117   1.535   5.860 -0.4661  1.4758  2.1289
 5090TIP3   OH236760   5.078   1.265   1.504 -0.0233  0.2434  0.8263
 5090TIP3    H136761   5.081   1.207   1.429 -1.3204 -0.5338  1.3605
 5090TIP3    H236762   5.156   1.243   1.555  0.2542 -0.0159  0.2872
 5091TIP3   OH236763   5.210   5.266  11.811 -0.6156  0.0514 -0.5823
 5091TIP3    H136764   5.148   5.204  11.850 -0.1258 -0.0460  0.0681
 5091TIP3    H236765   5.288   5.213  11.792  0.1442  0.6318  0.8175
 5092TIP3   OH236766   1.297   3.443   3.336 -0.0393 -0.0116  0.4330
 5092TIP3    H136767   1.377   3.494   3.331  0.4632 -0.7615  0.6443
 5092TIP3    H236768   1.305   3.379   3.265 -0.9794  0.6454 -0.2758
 5093TIP3   OH236769   3.273   0.279   5.636 -0.2863  0.5682  0.2078
 5093TIP3    H136770   3.211   0.348   5.660 -1.3863  0.3352 -1.8625
 5093TIP3    H236771   3.340   0.323   5.584  0.1742  0.4430  0.6871
 5094TIP3   OH236772   1.984   1.886  11.820  0.3770  0.1806 -0.5424
 5094TIP3    H136773   2.000   1.799  11.858 -2.2291  0.4267  1.2726
 5094TIP3    H236774   2.068   1.931  11.826  1.5982 -1.9713 -0.8869
 5095TIP3   OH236775   3.323   6.366   1.924  0.3765 -0.5026 -0.1569
 5095TIP3    H136776   3.289   6.449   1.891 -1.3860 -0.3527  1.9162
 5095TIP3    H236777   3.394   6.343   1.863  0.3199  2.0586 -1.2573
 5096TIP3   OH236778   3.070   4.575  12.372 -0.2582 -0.2130  0.1488
 5096TIP3    H136779   3.097   4.589  12.463  0.6822  0.5737 -0.2474
 5096TIP3    H236780   3.151   4.559  12.324 -0.7622 -0.7985 -0.5341
 5097TIP3   OH236781   2.848   1.083   1.478 -0.0026  0.5342  0.6744
 5097TIP3    H136782   2.848   1.069   1.573 -0.7244  2.4418  0.9686
 5097TIP3    H236783   2.756   1.069   1.452  0.0052  0.9845  0.4041
 5098TIP3   OH236784   2.780   2.450   3.517 -0.2380 -0.0483  0.1696
 5098TIP3    H136785   2.759   2.474   3.427  1.7267  0.5645 -0.1581
 5098TIP3    H236786   2.749   2.360   3.527 -2.7411  0.7458 -0.3123
 5099TIP3   OH236787   3.261   3.820   0.872 -0.2449  0.1676 -0.0404
 5099TIP3    H136788   3.342   3.867   0.851  0.6035 -0.9011  0.7562
 5099TIP3    H236789   3.258   3.748   0.809 -0.7771  0.4298 -0.3150
 5100TIP3   OH236790   2.650   1.336  12.641  0.4139  0.6658  0.0632
 5100TIP3    H136791   2.615   1.259  12.686  3.7434 -1.6259 -1.0755
 5100TIP3    H236792   2.644   1.406  12.706 -1.7466 -0.7403  1.4684
 5101TIP3   OH236793   4.337   3.862   2.688  0.3067  0.1251  0.3426
 5101TIP3    H136794   4.356   3.774   2.721  0.5494 -0.2191 -0.7011
 5101TIP3    H236795   4.285   3.848   2.609 -0.1925  0.9398  0.5150
 5102TIP3   OH236796   5.558   5.277   1.183 -0.8282 -0.5572 -0.0736
 5102TIP3    H136797   5.478   5.300   1.136 -1.5293  0.2707  1.4603
 5102TIP3    H236798   5.539   5.301   1.274  1.2650 -0.1096  0.2648
 5103TIP3   OH236799   5.156   5.656  14.005 -0.6928 -0.2871 -0.3333
 5103TIP3    H136800   5.248   5.678  14.017 -0.9583 -0.1911  1.7993
 5103TIP3    H236801   5.157   5.577  13.951  0.5763  0.4363 -1.3925
 5104TIP3   OH236802   0.409   6.577  15.740 -0.0060 -0.1707  0.0050
 5104TIP3    H136803   0.392   6.491  15.778  0.7513 -0.1832  0.3201
 5104TIP3    H236804   0.471   6.619  15.800  0.0955  0.3604 -0.4625
 5105TIP3   OH236805   3.820   6.538  14.413 -0.0051  0.1049 -0.5838
 5105TIP3    H136806   3.782   6.558  14.498  1.7534 -0.8522  0.4818
 5105TIP3    H236807   3.893   6.599  14.404 -0.0521  0.0604 -1.3039
 5106TIP3   OH236808   0.888   2.169   0.624 -0.3108 -0.7915  0.0019
 5106TIP3    H136809   0.906   2.080   0.592  0.9891 -0.2726 -0.7389
 5106TIP3    H236810   0.866   2.219   0.546  1.9609  0.2538 -0.0094
 5107TIP3   OH236811   3.579   6.382  14.365 -0.5027 -0.5089 -0.2533
 5107TIP3    H136812   3.659   6.433  14.380 -0.7124 -0.1198 -0.4695
 5107TIP3    H236813   3.596   6.298  14.409  0.9327 -1.2869 -2.1825
 5108TIP3   OH236814   2.058   3.114  13.717  0.0309 -0.3621  0.0877
 5108TIP3    H136815   1.987   3.175  13.694  0.0320  0.2041  1.5316
 5108TIP3    H236816   2.014   3.029  13.724 -0.7516  0.1822  2.1487
 5109TIP3   OH236817   0.687   6.510  16.663 -0.3473  0.6748 -0.8764
 5109TIP3    H136818   0.625   6.569  16.707 -0.8612 -0.5355  0.0407
 5109TIP3    H236819   0.750   6.486  16.732 -1.0368 -1.0690 -0.8375
 5110TIP3   OH236820   1.242   1.189   4.167  0.0847 -0.2024 -0.1732
 5110TIP3    H136821   1.288   1.112   4.132 -0.1548 -1.0734  1.3912
 5110TIP3    H236822   1.188   1.155   4.238 -0.8519  1.2550 -0.1647
 5111TIP3   OH236823   2.695   4.860  12.122  0.2383  0.3504  0.7343
 5111TIP3    H136824   2.715   4.871  12.029  1.0257 -0.0089  0.8572
 5111TIP3    H236825   2.735   4.776  12.146 -0.2078  0.3001  1.3280
 5112TIP3   OH236826   5.825   1.924  16.668  0.2490 -0.1490 -0.2456
 5112TIP3    H136827   5.810   1.831  16.648  0.1848  0.5817 -4.0916
 5112TIP3    H236828   5.857   1.961  16.585  1.2911  3.0491  1.5078
 5113TIP3   OH236829   2.521   2.871  14.644  0.0903  0.5209 -0.2709
 5113TIP3    H136830   2.451   2.806  14.657  0.6783 -0.3635 -1.4830
 5113TIP3    H236831   2.547   2.860  14.553  0.3445  2.3335 -0.4212
 5114TIP3   OH236832   2.232   2.955   2.834 -0.5020  0.1521  0.1123
 5114TIP3    H136833   2.205   2.906   2.912  0.3509 -0.9581 -0.2764
 5114TIP3    H236834   2.323   2.929   2.819  0.0537  2.0462  0.0271
 5115TIP3   OH236835   4.225   6.743  12.588 -0.5914  0.2733  0.3666
 5115TIP3    H136836   4.278   6.802  12.642  0.8822 -1.2594  0.6510
 5115TIP3    H236837   4.282   6.719  12.516 -1.6451  0.2293 -0.4619
 5116TIP3   OH236838   1.603   4.195  16.454  0.1423  0.0454  0.3601
 5116TIP3    H136839   1.689   4.153  16.463  0.1198  0.1622  1.1529
 5116TIP3    H236840   1.621   4.288  16.464 -0.1375  0.0354  0.9801
 5117TIP3   OH236841   1.650   5.485   0.277 -0.4896 -0.0089 -0.1037
 5117TIP3    H136842   1.637   5.403   0.229  0.5594  0.3854 -1.0722
 5117TIP3    H236843   1.734   5.474   0.321  0.4830  1.2148 -1.6258
 5118TIP3   OH236844   3.907   6.296  12.586 -0.0893 -0.1348  0.8398
 5118TIP3    H136845   3.937   6.386  12.580  0.0058 -0.2821 -1.0726
 5118TIP3    H236846   3.981   6.243  12.555 -0.5154 -0.8123  0.9536
 5119TIP3   OH236847   2.093   3.178   2.767  0.2066  0.3119  0.1133
 5119TIP3    H136848   2.149   3.102   2.784  0.2504  0.0932 -0.9750
 5119TIP3    H236849   2.138   3.226   2.698 -0.8835  0.1934 -0.6903
 5120TIP3   OH236850   3.239   5.322  16.972  0.0556 -0.1327  0.0845
 5120TIP3    H136851   3.222   5.256  17.039 -0.7903  0.9029  0.9044
 5120TIP3    H236852   3.253   5.403  17.021 -1.1090  0.7468 -1.0153
 5121TIP3   OH236853   1.078   0.129  11.693 -0.4136  0.1646 -0.2419
 5121TIP3    H136854   1.075   0.222  11.715 -0.0210  0.0165  0.4665
 5121TIP3    H236855   1.014   0.088  11.751  0.4231 -0.1928  0.4396
 5122TIP3   OH236856   3.070   6.415  14.581 -0.1197 -0.0978 -0.5519
 5122TIP3    H136857   3.125   6.413  14.660  2.8326  1.1033 -2.4835
 5122TIP3    H236858   3.084   6.330  14.540 -1.4732 -0.6357  0.1065
 5123TIP3   OH236859   1.434   5.418  15.915 -0.0259 -0.4146 -0.1429
 5123TIP3    H136860   1.453   5.342  15.971  0.3908 -0.8985 -0.9248
 5123TIP3    H236861   1.386   5.381  15.841 -1.0550  0.3005  0.1524
 5124TIP3   OH236862   0.598   2.381   0.951  0.2151 -0.0887  0.4693
 5124TIP3    H136863   0.657   2.450   0.980  0.3516  0.8185 -1.8526
 5124TIP3    H236864   0.648   2.332   0.886 -0.4959 -1.2974  0.8174
 5125TIP3   OH236865   6.185   6.511   6.487  0.7338 -0.2947  0.6544
 5125TIP3    H136866   6.125   6.573   6.446  0.8474  0.4175  1.5381
 5125TIP3    H236867   6.190   6.438   6.427 -3.0178 -1.5304  1.7441
 5126TIP3   OH236868   1.642   6.500  13.526 -0.1496 -0.1901  0.0934
 5126TIP3    H136869   1.598   6.462  13.450 -0.1925 -0.6423  0.3434
 5126TIP3    H236870   1.704   6.563  13.488  0.0183 -0.6053 -0.3348
 5127TIP3   OH236871   0.180   3.137  13.468 -0.5196  0.0265 -0.1200
 5127TIP3    H136872   0.200   3.229  13.489  0.0489  0.2461 -1.5610
 5127TIP3    H236873   0.247   3.087  13.514 -0.7349  0.3548  0.5471
 5128TIP3   OH236874   1.247   1.106  16.991  0.0672 -0.3357  0.0487
 5128TIP3    H136875   1.201   1.179  17.031  0.9907 -0.2815  1.0318
 5128TIP3    H236876   1.212   1.101  16.902  1.3818  2.5196 -0.6702
 5129TIP3   OH236877   1.892   1.816  15.117 -0.2587  0.1058  0.0505
 5129TIP3    H136878   1.932   1.823  15.031 -0.0926  0.8957  0.1796
 5129TIP3    H236879   1.832   1.743  15.110  0.6535 -0.6142 -0.3734
 5130TIP3   OH236880   4.731   0.558  16.865 -0.3851 -0.1941 -0.0346
 5130TIP3    H136881   4.684   0.505  16.930  0.8622 -0.4402  0.6801
 5130TIP3    H236882   4.733   0.646  16.903  3.9551 -1.1566  2.3008
 5131TIP3   OH236883   3.321   2.067   4.302  1.0227  0.0841  0.2453
 5131TIP3    H136884   3.346   2.101   4.388 -1.1607 -0.3857  1.0934
 5131TIP3    H236885   3.343   2.138   4.241 -3.2137  3.0605  1.9296
 5132TIP3   OH236886   0.238   1.906  14.789 -0.1445 -0.1674 -0.1072
 5132TIP3    H136887   0.320   1.868  14.757 -0.8884 -1.0662 -0.9989
 5132TIP3    H236888   0.193   1.833  14.831 -0.0425  0.5587  1.2855
 5133TIP3   OH236889   1.329   4.527  11.368  0.4363 -0.3064  0.0460
 5133TIP3    H136890   1.280   4.448  11.388 -1.5741  1.0274  0.5732
 5133TIP3    H236891   1.376   4.507  11.287 -2.4630 -0.9914 -1.5137
 5134TIP3   OH236892   0.208   2.694  15.245 -0.2786 -0.7042 -0.2259
 5134TIP3    H136893   0.273   2.623  15.243 -1.0963 -1.5421  1.6467
 5134TIP3    H236894   0.134   2.657  15.294 -1.2505  1.0072 -0.3722
 5135TIP3   OH236895   0.792   4.894   5.715  0.0475 -0.0562 -0.0264
 5135TIP3    H136896   0.705   4.855   5.701 -0.5760  2.1291 -2.4422
 5135TIP3    H236897   0.840   4.876   5.635 -0.0319  3.5156 -0.9366
 5136TIP3   OH236898   5.105   6.584   0.017 -0.2414  0.3955 -0.0867
 5136TIP3    H136899   5.200   6.573   0.006 -0.3026  0.7160 -0.9209
 5136TIP3    H236900   5.071   6.495   0.026  0.2644  0.3256  1.2580
 5137TIP3   OH236901   4.019   1.375   4.864  0.1917  0.3928 -0.1021
 5137TIP3    H136902   4.076   1.342   4.933  0.4203 -1.9287 -1.3561
 5137TIP3    H236903   3.944   1.413   4.911  1.3123  0.7277  1.4586
 5138TIP3   OH236904   0.733   1.933  15.678 -0.8122  0.0026 -0.4216
 5138TIP3    H136905   0.750   2.027  15.674  1.3250 -0.3360 -0.1283
 5138TIP3    H236906   0.655   1.925  15.733 -0.7809  1.5875 -0.1265
 5139TIP3   OH236907   3.574   3.160  13.716 -0.0391  0.2272  0.2477
 5139TIP3    H136908   3.513   3.198  13.652  2.6958  2.7511 -0.9940
 5139TIP3    H236909   3.578   3.225  13.786 -0.7247 -1.1312  1.5596
 5140TIP3   OH236910   3.769   3.726  12.559  0.0944 -0.5022  0.4092
 5140TIP3    H136911   3.722   3.725  12.475  0.5528 -3.7727  0.1211
 5140TIP3    H236912   3.834   3.796  12.550 -2.0976  1.4628 -0.6480
 5141TIP3   OH236913   3.220   5.477  12.780 -0.3262 -0.4875 -0.4793
 5141TIP3    H136914   3.247   5.565  12.806  0.4204 -0.3004 -1.8132
 5141TIP3    H236915   3.298   5.423  12.794 -0.4759 -0.7357 -0.6017
 5142TIP3   OH236916   5.074   2.762  12.788 -0.3893  0.3811 -0.4054
 5142TIP3    H136917   5.018   2.695  12.828  1.4472 -1.0002 -0.0317
 5142TIP3    H236918   5.131   2.790  12.860 -1.3990  2.6582 -0.4657
 5143TIP3   OH236919   4.976   4.634  14.800  0.6849  0.2892  0.6160
 5143TIP3    H136920   5.025   4.685  14.865  0.5262  0.3286  0.7035
 5143TIP3    H236921   5.029   4.555  14.788  1.3024  0.8021 -0.0549
 5144TIP3   OH236922   0.126   6.573   3.579  0.0313 -0.4615  0.0300
 5144TIP3    H136923   0.150   6.663   3.600  0.4048 -0.5180 -0.1572
 5144TIP3    H236924   0.186   6.548   3.509 -1.0330 -0.3517 -0.9533
 5145TIP3   OH236925   5.575   2.860   4.289  0.1349 -0.4213  0.3681
 5145TIP3    H136926   5.584   2.955   4.295  1.8940 -0.6138  0.9828
 5145TIP3    H236927   5.645   2.833   4.229  0.5885 -1.4733  1.3478
 5146TIP3   OH236928   1.636   0.892   5.999  0.2507 -0.3262 -0.0396
 5146TIP3    H136929   1.705   0.890   5.932  0.7098  1.3839  0.3542
 5146TIP3    H236930   1.555   0.907   5.950  0.1826 -2.0742 -0.4794
 5147TIP3   OH236931   3.630   1.974   5.477 -0.5961  0.4309 -0.0442
 5147TIP3    H136932   3.542   2.008   5.491 -0.2827  1.3145 -0.2031
 5147TIP3    H236933   3.688   2.038   5.519 -0.0027  0.1199 -0.3746
 5148TIP3   OH236934   5.844   4.807   3.460 -0.4071  0.1710  0.5027
 5148TIP3    H136935   5.911   4.784   3.395  0.9848  2.4464  1.0556
 5148TIP3    H236936   5.772   4.842   3.408 -0.3533 -0.4437  0.0135
 5149TIP3   OH236937   6.181   1.315   4.562 -0.5199  0.1272 -1.0743
 5149TIP3    H136938   6.100   1.288   4.605  0.0624  0.5003  0.2695
 5149TIP3    H236939   6.248   1.258   4.599 -0.0991  0.0797 -1.8990
 5150TIP3   OH236940   4.065   0.205  17.286 -0.2247 -0.4844 -0.5439
 5150TIP3    H136941   4.153   0.234  17.263 -0.5436  1.6188  0.7993
 5150TIP3    H236942   4.076   0.156  17.368 -0.5423  1.4207  0.6538
 5151TIP3   OH236943   3.714   3.188  12.104 -0.0656  0.2687  0.5226
 5151TIP3    H136944   3.751   3.273  12.081  0.7207  0.5548  2.6675
 5151TIP3    H236945   3.621   3.206  12.121 -0.4463  0.2134 -1.4405
 5152TIP3   OH236946   4.353   6.028  11.498  0.8578  0.6266 -0.6581
 5152TIP3    H136947   4.395   6.029  11.412  1.2922 -3.1332 -0.5937
 5152TIP3    H236948   4.271   5.981  11.484  0.6732  0.4837  0.8420
 5153TIP3   OH236949   6.781   2.894  13.672  0.5494  0.1010  0.1298
 5153TIP3    H136950   6.711   2.855  13.620  1.0269 -0.0446 -0.4263
 5153TIP3    H236951   6.798   2.831  13.741  1.1546 -0.5772 -0.6230
 5154TIP3   OH236952   0.718   5.272   4.673  0.3967 -0.3282 -0.1089
 5154TIP3    H136953   0.782   5.295   4.740  1.2245 -0.5197 -0.8166
 5154TIP3    H236954   0.733   5.179   4.656 -1.0708 -0.7365  0.7698
 5155TIP3   OH236955   6.068   3.395  16.216 -0.3230 -0.3966 -0.1369
 5155TIP3    H136956   5.996   3.448  16.251  0.1902 -1.2142  2.2649
 5155TIP3    H236957   6.118   3.368  16.294  0.5161 -2.7968 -1.4588
 5156TIP3   OH236958   1.112   3.118  11.628 -0.0809 -0.7150  0.4355
 5156TIP3    H136959   1.077   3.051  11.686 -1.6818 -0.2404  0.0385
 5156TIP3    H236960   1.047   3.188  11.630  0.2189 -0.3688 -1.3283
 5157TIP3   OH236961   2.368   6.051  14.247 -0.0711 -0.2267 -0.1600
 5157TIP3    H136962   2.317   6.074  14.325 -0.3508 -1.2341 -0.0276
 5157TIP3    H236963   2.372   6.131  14.196 -0.0905  0.3828  0.7855
 5158TIP3   OH236964   1.053   1.527   1.637  0.0542 -0.2129 -0.3925
 5158TIP3    H136965   1.044   1.547   1.730 -0.0284 -0.2771 -0.3867
 5158TIP3    H236966   1.024   1.436   1.629  1.0691 -0.5452 -0.3121
 5159TIP3   OH236967   1.188   1.099  14.776 -0.3398 -0.0506 -0.2955
 5159TIP3    H136968   1.148   1.124  14.692 -0.0267  0.3796 -0.3216
 5159TIP3    H236969   1.195   1.182  14.824 -1.1495 -0.4038  0.4326
 5160TIP3   OH236970   1.610   3.464  14.087 -0.7780 -0.1183 -0.0549
 5160TIP3    H136971   1.582   3.373  14.081 -1.0222 -0.2171  2.2264
 5160TIP3    H236972   1.565   3.498  14.164 -0.1054  1.7380 -0.4533
 5161TIP3   OH236973   0.138   1.980  16.983 -0.0697 -0.2484  0.0442
 5161TIP3    H136974   0.067   2.016  17.036  0.8907 -1.2594  2.0596
 5161TIP3    H236975   0.116   1.888  16.972 -1.2521  0.3384 -3.0233
 5162TIP3   OH236976   2.357   3.098  11.256 -0.5743  0.3963  0.0371
 5162TIP3    H136977   2.270   3.068  11.281 -0.2942  0.1190  0.6840
 5162TIP3    H236978   2.352   3.194  11.263 -0.3956  0.3097  1.5123
 5163TIP3   OH236979   3.793   0.279   4.663 -0.0874  0.0490 -0.1837
 5163TIP3    H136980   3.808   0.231   4.744  4.0026  1.3447 -0.0797
 5163TIP3    H236981   3.772   0.368   4.692 -2.0281 -0.2833 -0.5092
 5164TIP3   OH236982   0.768   5.291   0.121  0.4550 -0.4579 -0.4876
 5164TIP3    H136983   0.707   5.360   0.095 -0.1879 -0.7464  0.2253
 5164TIP3    H236984   0.849   5.337   0.144  0.1367  0.0252 -0.3264
 5165TIP3   OH236985   1.013   1.644  15.981 -0.3077 -0.9978  0.1501
 5165TIP3    H136986   1.075   1.705  16.022  0.3241 -0.5354 -1.4611
 5165TIP3    H236987   0.981   1.691  15.904 -3.4404 -0.8525  1.4790
 5166TIP3   OH236988   3.732   1.657  10.393 -0.1834 -1.0634 -0.1116
 5166TIP3    H136989   3.765   1.747  10.391 -2.6041 -0.0591  1.8039
 5166TIP3    H236990   3.809   1.603  10.377  1.3634  1.3295 -1.1277
 5167TIP3   OH236991   6.651   4.010   0.994 -0.4669 -0.4112 -0.3695
 5167TIP3    H136992   6.703   3.957   0.934 -2.3399 -0.4575 -2.0040
 5167TIP3    H236993   6.560   3.986   0.976 -1.2589  2.0059  0.1374
 5168TIP3   OH236994   1.392   6.319   1.584  0.1446 -0.1607  0.3761
 5168TIP3    H136995   1.466   6.289   1.532  1.1807 -1.7690  2.7436
 5168TIP3    H236996   1.330   6.246   1.582 -0.2826  0.1934  0.5301
 5169TIP3   OH236997   0.789   4.670  14.959  0.0971 -0.4997 -0.3336
 5169TIP3    H136998   0.802   4.729  14.885 -1.1470 -1.8610 -1.6927
 5169TIP3    H236999   0.826   4.587  14.929 -0.5482 -1.0960  0.5002
 5170TIP3   OH237000   1.067   6.145   2.812  0.4845 -0.2393 -0.0446
 5170TIP3    H137001   1.152   6.138   2.768  0.2727  1.4917 -0.7668
 5170TIP3    H237002   1.043   6.237   2.803 -1.5384 -0.7356  0.0305
 5171TIP3   OH237003   5.594   0.914  16.051  0.3443  0.7384 -0.0436
 5171TIP3    H137004   5.572   1.001  16.018 -1.2162  0.9978  1.6412
 5171TIP3    H237005   5.684   0.923  16.083 -0.0298  1.9062  0.7052
 5172TIP3   OH237006   1.992   2.210   5.388  0.6773 -0.0797 -0.3130
 5172TIP3    H137007   2.058   2.246   5.329  1.9483 -0.6660  0.7581
 5172TIP3    H237008   1.999   2.262   5.467 -0.7741  0.4484 -0.5108
 5173TIP3   OH237009   5.965   0.071   5.408 -0.1464  0.2557 -0.3603
 5173TIP3    H137010   5.931   0.043   5.493 -0.0953  1.0688 -0.0579
 5173TIP3    H237011   5.894   0.122   5.369  0.6453  1.9005  0.2452
 5174TIP3   OH237012   6.580   1.510   0.399  0.4416 -0.1970  0.0910
 5174TIP3    H137013   6.496   1.502   0.444  0.6739 -1.8379  0.2714
 5174TIP3    H237014   6.630   1.433   0.427  1.7047  0.3309 -0.6441
 5175TIP3   OH237015   5.800   2.777   2.260  0.5169 -0.1783  0.2291
 5175TIP3    H137016   5.863   2.848   2.249 -0.6334  0.9856  1.0150
 5175TIP3    H237017   5.721   2.807   2.214 -0.0394 -0.8544  0.7326
 5176TIP3   OH237018   4.869   6.565   4.842 -0.6223  0.4941  0.0904
 5176TIP3    H137019   4.912   6.607   4.917 -0.9662  0.2530  0.4308
 5176TIP3    H237020   4.871   6.631   4.773  0.3434  0.4630  0.0816
 5177TIP3   OH237021   0.004   3.880   2.839 -0.3121 -0.2778 -0.0155
 5177TIP3    H137022  -0.010   3.868   2.745 -0.9074  0.0381  0.0293
 5177TIP3    H237023  -0.070   3.933   2.867 -1.5664 -2.5533  1.1059
 5178TIP3   OH237024   1.814   4.882   1.559 -0.1477  0.1203 -0.1201
 5178TIP3    H137025   1.775   4.800   1.587  1.0429 -0.6217 -0.5863
 5178TIP3    H237026   1.759   4.911   1.486 -1.1849  0.2836  0.7215
 5179TIP3   OH237027   6.669   3.784  16.401 -0.2937  0.1820  0.1304
 5179TIP3    H137028   6.763   3.774  16.415 -0.6570 -1.7830  1.5279
 5179TIP3    H237029   6.650   3.730  16.324 -0.4966 -0.7268  0.8029
 5180TIP3   OH237030   2.812   6.803  13.891 -0.2195 -0.5528 -0.0032
 5180TIP3    H137031   2.789   6.766  13.806  1.3712 -0.8937 -0.2932
 5180TIP3    H237032   2.750   6.763  13.952 -1.6907  0.0570 -1.0509
 5181TIP3   OH237033   4.299   6.584  10.745 -0.1209 -0.4261 -0.2220
 5181TIP3    H137034   4.360   6.511  10.762  0.3153  0.1485  0.7750
 5181TIP3    H237035   4.222   6.543  10.706 -0.9580 -1.8071  2.7499
 5182TIP3   OH237036   3.055   2.772  13.201 -0.2121  0.7009 -0.6765
 5182TIP3    H137037   3.143   2.788  13.168 -0.4118  0.2969 -1.4210
 5182TIP3    H237038   3.067   2.743  13.291  0.2377  3.6288  0.2575
 5183TIP3   OH237039   4.117   0.833   2.982 -0.4830 -0.0962 -0.0469
 5183TIP3    H137040   4.098   0.889   3.057  1.5895 -1.1373  1.2745
 5183TIP3    H237041   4.121   0.744   3.018  1.8570 -0.4700 -1.1282
 5184TIP3   OH237042   3.214   6.131  15.458 -0.1894  0.6864  0.0550
 5184TIP3    H137043   3.138   6.187  15.437  0.1309  0.7647 -0.9076
 5184TIP3    H237044   3.192   6.046  15.420 -1.0363 -0.1113  2.2086
 5185TIP3   OH237045   5.858   2.128  11.764 -0.0488 -0.3538  0.1774
 5185TIP3    H137046   5.908   2.184  11.705  0.0178 -0.0887  0.4845
 5185TIP3    H237047   5.839   2.183  11.839 -3.2728  0.4601 -1.1604
 5186TIP3   OH237048   6.789   2.146  16.547 -0.4116  0.1639 -0.3512
 5186TIP3    H137049   6.695   2.157  16.532 -0.5913  0.2021  0.7267
 5186TIP3    H237050   6.800   2.163  16.640  0.5503 -0.6245 -0.3106
 5187TIP3   OH237051   4.649   5.392   1.516 -0.7870  0.0189  0.0903
 5187TIP3    H137052   4.641   5.487   1.505 -1.6066 -0.1563 -0.9093
 5187TIP3    H237053   4.559   5.362   1.523 -0.5427 -0.7531 -0.1201
 5188TIP3   OH237054   3.188   5.815  15.070 -0.3056  0.6472  0.0698
 5188TIP3    H137055   3.280   5.838  15.052 -0.4655  2.2501  1.2581
 5188TIP3    H237056   3.193   5.735  15.121  0.4089  0.3626 -0.4359
 5189TIP3   OH237057   2.684   4.797   1.472 -0.1243  0.2862 -0.2910
 5189TIP3    H137058   2.617   4.863   1.457  0.0889  1.0323  1.9409
 5189TIP3    H237059   2.763   4.847   1.491  0.1547 -0.5954  0.9013
 5190TIP3   OH237060   0.013   4.393  14.013  0.3061  0.1877 -0.4025
 5190TIP3    H137061   0.054   4.432  14.090 -0.8987 -0.8453  0.7730
 5190TIP3    H237062  -0.075   4.368  14.042  0.7547 -2.6469 -1.3327
 5191TIP3   OH237063   1.181   0.503  17.128 -0.0903 -0.1821 -0.0121
 5191TIP3    H137064   1.185   0.558  17.206  2.4808  1.3156 -1.1294
 5191TIP3    H237065   1.180   0.413  17.162 -2.1933  0.4775  1.7805
 5192TIP3   OH237066   3.875   2.312  15.639 -0.1775 -0.1343  0.0775
 5192TIP3    H137067   3.833   2.261  15.570 -0.1448 -0.4218  0.2682
 5192TIP3    H237068   3.909   2.246  15.700  0.8058  0.0801 -0.2286
 5193TIP3   OH237069   0.423   1.815  13.758  0.3000  0.3919  0.2847
 5193TIP3    H137070   0.368   1.893  13.766 -1.9962 -1.2324  0.6000
 5193TIP3    H237071   0.415   1.771  13.843  1.7723 -0.0820  0.1927
 5194TIP3   OH237072   3.394   3.012   0.055 -0.0250 -0.4702  0.2220
 5194TIP3    H137073   3.460   2.947   0.033  0.4343  0.4818 -1.3089
 5194TIP3    H237074   3.442   3.080   0.103 -0.3739 -0.9388  1.2413
 5195TIP3   OH237075   1.873   4.926  11.419  0.1453  0.0929 -0.3374
 5195TIP3    H137076   1.880   5.004  11.473  1.3522 -0.8924  0.9863
 5195TIP3    H237077   1.899   4.954  11.332 -3.0090  1.9987 -0.7639
 5196TIP3   OH237078   5.192   1.707   5.303 -0.0526 -0.4170 -0.0230
 5196TIP3    H137079   5.159   1.705   5.393  2.2793  0.5340  0.8732
 5196TIP3    H237080   5.287   1.712   5.312  0.1241  1.4086 -2.5470
 5197TIP3   OH237081   1.318   0.275  14.997  0.1244 -0.2877 -0.6858
 5197TIP3    H137082   1.377   0.328  15.050 -0.7404  0.4065 -0.4003
 5197TIP3    H237083   1.234   0.321  15.001 -0.7762 -1.9344 -0.0393
 5198TIP3   OH237084   6.067   4.437  15.528  0.4303 -0.1072  0.7202
 5198TIP3    H137085   5.992   4.496  15.539  0.1433 -0.3574  0.1189
 5198TIP3    H237086   6.121   4.453  15.605  0.2125  0.7346  0.7074
 5199TIP3   OH237087   3.843   6.473   4.201 -0.4010  0.3169  0.6346
 5199TIP3    H137088   3.785   6.549   4.192 -0.9030 -0.2787 -1.4221
 5199TIP3    H237089   3.787   6.398   4.184  0.9973 -0.2547 -1.6534
 5200TIP3   OH237090   6.654   1.259  15.195  0.3000  0.0949  0.4438
 5200TIP3    H137091   6.647   1.305  15.112  0.3980  1.9840  1.4437
 5200TIP3    H237092   6.740   1.217  15.192 -0.1150 -0.6541 -0.8088
 5201TIP3   OH237093   3.354   4.301   5.648  0.6783  0.2750  0.3655
 5201TIP3    H137094   3.437   4.258   5.668  0.6447 -0.5675 -1.2737
 5201TIP3    H237095   3.320   4.253   5.573  0.6781  3.2586 -1.5877
 5202TIP3   OH237096   1.613   1.205   1.521 -0.8860 -0.2224 -0.0634
 5202TIP3    H137097   1.564   1.209   1.439 -1.0075  1.5476  0.0726
 5202TIP3    H237098   1.702   1.181   1.495 -0.7771  0.9375 -0.7873
 5203TIP3   OH237099   6.737   4.909  17.235  0.3542 -0.4327 -0.6834
 5203TIP3    H137100   6.735   4.935  17.143 -0.5768  0.2438 -0.4810
 5203TIP3    H237101   6.779   4.983  17.279 -0.5391 -0.0891 -0.3779
 5204TIP3   OH237102   3.180   2.781  13.472  0.2712 -0.1141 -0.1291
 5204TIP3    H137103   3.125   2.811  13.544 -0.2591  0.0159 -0.5831
 5204TIP3    H237104   3.235   2.856  13.449  1.0896 -0.4412  0.7465
 5205TIP3   OH237105   2.515   6.163   0.889  0.1151 -0.2389 -0.3759
 5205TIP3    H137106   2.488   6.200   0.974  1.4001  0.3959 -0.2424
 5205TIP3    H237107   2.477   6.076   0.889  0.3914 -0.3802  1.0198
 5206TIP3   OH237108   5.605   4.316  10.717 -0.0811  0.6998  0.1289
 5206TIP3    H137109   5.545   4.390  10.708 -1.8479 -0.7639 -0.6420
 5206TIP3    H237110   5.550   4.239  10.702  2.1436 -0.6806 -1.2714
 5207TIP3   OH237111   3.343   6.348   4.058 -0.5311 -0.0370 -0.3727
 5207TIP3    H137112   3.328   6.397   3.977  0.1335  0.1373 -0.3970
 5207TIP3    H237113   3.438   6.337   4.062 -0.5731 -0.2047  0.2899
 5208TIP3   OH237114   6.812   3.608   2.921  0.2717 -0.0402  0.2394
 5208TIP3    H137115   6.875   3.630   2.853  0.8260  4.1337  1.9447
 5208TIP3    H237116   6.741   3.671   2.909 -0.2963 -0.1768  2.6360
 5209TIP3   OH237117   4.609   3.840  13.855 -0.1629 -0.0340 -0.0772
 5209TIP3    H137118   4.643   3.780  13.788  0.8411  1.2709 -0.7571
 5209TIP3    H237119   4.613   3.927  13.814 -1.9127  0.4785  0.7664
 5210TIP3   OH237120   5.662   1.350   5.599 -0.0207 -0.5936  0.2915
 5210TIP3    H137121   5.646   1.262   5.565  2.2571 -0.2750 -1.7308
 5210TIP3    H237122   5.755   1.367   5.582 -0.6149  2.5598 -0.2202
 5211TIP3   OH237123   0.579   5.193  11.690  0.2648 -0.4465 -0.1474
 5211TIP3    H137124   0.621   5.245  11.757  2.7239 -0.8837 -1.2998
 5211TIP3    H237125   0.618   5.223  11.608 -2.1634 -0.4132 -1.3347
 5212TIP3   OH237126   4.127   1.440   1.170  0.5014  0.0437  0.1449
 5212TIP3    H137127   4.184   1.511   1.140  0.2787  0.2566  0.2212
 5212TIP3    H237128   4.041   1.461   1.134  0.2231  0.3290  0.9584
 5213TIP3   OH237129   4.553   1.818  13.401  0.2194 -0.0047 -0.6048
 5213TIP3    H137130   4.648   1.804  13.402  0.0782 -1.2376  1.6282
 5213TIP3    H237131   4.523   1.773  13.323  1.4594  0.1807 -1.1970
 5214TIP3   OH237132   4.824   2.306   2.824 -0.0920  0.3458 -0.3259
 5214TIP3    H137133   4.790   2.241   2.762  0.3066  0.5492 -0.7577
 5214TIP3    H237134   4.775   2.386   2.803 -1.9269 -0.2550  1.4193
 5215TIP3   OH237135   6.582   5.455  13.567  0.9263 -0.2871 -0.5607
 5215TIP3    H137136   6.572   5.375  13.515  2.5140 -0.6819 -0.2619
 5215TIP3    H237137   6.605   5.425  13.654 -1.6240  0.3859  0.3978
 5216TIP3   OH237138   3.171   2.789  17.245  0.5311  0.0893  0.2097
 5216TIP3    H137139   3.119   2.869  17.238 -0.6305 -0.6615  0.1085
 5216TIP3    H237140   3.240   2.800  17.180  0.2387  0.9094  0.0318
 5217TIP3   OH237141   1.780   6.041  13.353  0.3496  0.2789  0.6429
 5217TIP3    H137142   1.851   6.027  13.416  0.2664  1.9785  1.1317
 5217TIP3    H237143   1.735   5.956  13.350  3.0155 -1.1447 -0.4989
 5218TIP3   OH237144   5.087   2.839  14.593 -0.1504 -0.5076 -0.2262
 5218TIP3    H137145   5.007   2.793  14.567 -1.1622  0.9869  0.1924
 5218TIP3    H237146   5.105   2.899  14.521 -0.0306 -0.0540  0.1835
 5219TIP3   OH237147   2.048   5.490  11.539 -0.1997  0.1855  0.1686
 5219TIP3    H137148   1.994   5.411  11.542 -2.0005  1.3853  0.2359
 5219TIP3    H237149   2.112   5.473  11.470 -0.9250 -1.0950 -0.2055
 5220TIP3   OH237150   3.241   3.716   1.943  0.2708  0.2908 -0.1923
 5220TIP3    H137151   3.198   3.636   1.973 -0.9944  1.0380  0.0107
 5220TIP3    H237152   3.332   3.690   1.929 -0.2106 -1.2828 -0.5204
 5221TIP3   OH237153   0.533   0.005   1.049 -0.7803  0.0001  0.3733
 5221TIP3    H137154   0.590  -0.060   1.008 -0.4686  0.4971  0.0165
 5221TIP3    H237155   0.475   0.033   0.979 -1.7267 -0.7917  0.8345
 5222TIP3   OH237156   4.591   4.306  13.104  0.0664  0.4848 -0.1059
 5222TIP3    H137157   4.499   4.294  13.130 -0.0350  0.5456 -0.4294
 5222TIP3    H237158   4.596   4.397  13.076  0.0147  0.2276 -0.9460
 5223TIP3   OH237159   1.573   1.572  13.355 -0.4863 -0.3602 -0.0990
 5223TIP3    H137160   1.515   1.642  13.384  0.7198  0.3178  0.6773
 5223TIP3    H237161   1.579   1.584  13.260  1.7657  2.1989  0.3086
 5224TIP3   OH237162   3.498   3.600   1.886 -0.0099 -0.0849 -0.3395
 5224TIP3    H137163   3.590   3.610   1.911  0.2570  1.0243 -1.6610
 5224TIP3    H237164   3.497   3.522   1.830  0.2534  0.2456 -0.8168
 5225TIP3   OH237165   5.888   0.756  16.693 -0.2866 -0.3038  0.4345
 5225TIP3    H137166   5.817   0.806  16.733  0.4007  1.1855 -0.1768
 5225TIP3    H237167   5.961   0.763  16.754 -0.5284 -1.5522  0.8973
 5226TIP3   OH237168   6.114   0.075   0.113 -0.7481  0.2812 -0.4543
 5226TIP3    H137169   6.199   0.036   0.090 -0.9124  0.0819 -0.7365
 5226TIP3    H237170   6.083   0.022   0.186 -1.5643 -0.9661 -1.6646
 5227TIP3   OH237171   3.107   3.041   0.525  0.3200  0.1832 -0.1136
 5227TIP3    H137172   3.070   2.954   0.543  0.3084 -0.0621 -1.2838
 5227TIP3    H237173   3.041   3.102   0.558  0.3438 -0.2504  0.7537
 5228TIP3   OH237174   4.777   2.214  13.461  0.1768 -0.7271  0.1565
 5228TIP3    H137175   4.835   2.285  13.489  0.1060 -0.8299  0.5582
 5228TIP3    H237176   4.762   2.162  13.540 -2.5282  0.7566  0.7243
 5229TIP3   OH237177   3.042   5.632  13.442 -0.0957 -0.7184  0.1950
 5229TIP3    H137178   3.031   5.591  13.356 -0.9913 -2.1081  0.9467
 5229TIP3    H237179   2.954   5.659  13.467  0.2110 -0.0253  0.5289
 5230TIP3   OH237180   4.806   5.999  17.038  0.0235 -0.0865 -0.7807
 5230TIP3    H137181   4.826   6.039  17.122 -1.1304  0.3194 -0.6958
 5230TIP3    H237182   4.830   5.907  17.049  0.8184  0.1661 -0.3406
 5231TIP3   OH237183   5.422   6.747  15.065  0.2882  0.6564  0.3076
 5231TIP3    H137184   5.512   6.770  15.041  0.0909  0.0750 -1.0201
 5231TIP3    H237185   5.424   6.652  15.079 -0.2273  0.5570 -0.2572
 5232TIP3   OH237186   1.712   6.498  17.111 -0.2463 -0.3044  0.0933
 5232TIP3    H137187   1.777   6.476  17.177  1.1650  0.1044 -1.1350
 5232TIP3    H237188   1.711   6.594  17.109 -1.4422 -0.2919  0.6282
 5233TIP3   OH237189   6.775   5.822   4.549  0.1311  0.2230  0.1986
 5233TIP3    H137190   6.725   5.904   4.549  0.1306  0.2344  1.6720
 5233TIP3    H237191   6.716   5.758   4.509 -0.4065  0.6213  0.3529
 5234TIP3   OH237192   1.887   6.070   1.409  0.1794  0.1304 -0.2666
 5234TIP3    H137193   1.957   6.036   1.464 -0.4323  0.8935  1.0048
 5234TIP3    H237194   1.904   6.163   1.402  0.4925 -0.0216 -1.7455
 5235TIP3   OH237195   3.824   6.810  12.644  0.8268  1.0378  0.2909
 5235TIP3    H137196   3.848   6.902  12.641 -2.3224  1.8746 -1.0368
 5235TIP3    H237197   3.760   6.804  12.715  0.8287 -0.0704  0.2144
 5236TIP3   OH237198   3.117   0.966   3.442  0.3391  0.1568 -0.7168
 5236TIP3    H137199   3.167   1.036   3.401 -0.9624  0.6514 -1.4742
 5236TIP3    H237200   3.025   0.992   3.433 -0.0388 -0.2340  1.5727
 5237TIP3   OH237201   3.237   0.309   4.948 -0.1255  0.9403  0.2137
 5237TIP3    H137202   3.153   0.335   4.911  1.7812  4.0607 -2.2057
 5237TIP3    H237203   3.245   0.359   5.029 -1.0838 -0.3024  1.0998
 5238TIP3   OH237204   6.470   0.393   5.789 -0.4225 -0.3856 -0.0329
 5238TIP3    H137205   6.472   0.396   5.885 -2.3857 -0.2379  0.0409
 5238TIP3    H237206   6.380   0.368   5.769 -0.1512  0.0729 -1.8491
 5239TIP3   OH237207   3.217   2.166   5.840  0.2825  0.4463  0.1069
 5239TIP3    H137208   3.220   2.222   5.917 -0.0323  1.0286 -0.2962
 5239TIP3    H237209   3.125   2.144   5.829  0.3269  0.3595 -0.0955
 5240TIP3   OH237210   0.764   1.467   6.575  0.2665  0.5156  0.0279
 5240TIP3    H137211   0.847   1.495   6.537 -0.5133  0.9680 -1.3620
 5240TIP3    H237212   0.772   1.371   6.581 -0.0103  0.3345 -2.2709
 5241TIP3   OH237213   6.483   6.812   6.253  0.0930  0.5048 -0.2248
 5241TIP3    H137214   6.425   6.822   6.328 -0.6353  0.4378 -0.7771
 5241TIP3    H237215   6.426   6.785   6.181  0.1287  4.3788 -1.8110
 5242TIP3   OH237216   1.013   4.015   2.176  0.1282 -0.0026 -0.1165
 5242TIP3    H137217   0.974   4.032   2.262  2.1339  0.9836  0.6081
 5242TIP3    H237218   1.077   4.085   2.164  0.9284 -0.9897 -1.7672
 5243TIP3   OH237219   2.712   5.157   2.345 -0.2731 -0.0320  0.0948
 5243TIP3    H137220   2.769   5.108   2.405  0.2548 -0.3851 -0.6927
 5243TIP3    H237221   2.693   5.239   2.392  2.1904  0.7941 -0.2912
 5244TIP3   OH237222   5.807   3.083   1.904 -0.0224  0.4204  0.2107
 5244TIP3    H137223   5.878   3.111   1.846  0.1502  0.2047  0.3186
 5244TIP3    H237224   5.745   3.156   1.903  1.8152  2.1026  2.8429
 5245TIP3   OH237225   4.173   3.128  17.213  0.4094 -0.4229 -0.0310
 5245TIP3    H137226   4.164   3.086  17.128  1.8647  0.8867 -0.8576
 5245TIP3    H237227   4.258   3.098  17.246  0.5093  0.2100  0.2988
 5246TIP3   OH237228   6.131   6.173  13.004 -0.3240 -0.1330 -0.0848
 5246TIP3    H137229   6.188   6.108  13.044 -0.7142 -0.0945  0.5405
 5246TIP3    H237230   6.113   6.236  13.074 -2.3785 -0.9714  0.1776
 5247TIP3   OH237231   0.740   3.964  14.956  0.5675  0.1349 -0.1337
 5247TIP3    H137232   0.650   3.936  14.943  0.9832 -1.5089  0.3728
 5247TIP3    H237233   0.792   3.907  14.900  1.4268  0.0219  0.7511
 5248TIP3   OH237234   2.138   2.030  17.014 -0.2812 -0.3388  0.1794
 5248TIP3    H137235   2.170   2.120  17.010  0.2772 -0.5171  0.6147
 5248TIP3    H237236   2.203   1.984  17.067 -1.9681 -0.3879  2.2723
 5249TIP3   OH237237   1.460   4.112  11.422 -0.1906 -0.0128  0.3588
 5249TIP3    H137238   1.554   4.120  11.441 -0.1546  0.8163 -0.1463
 5249TIP3    H237239   1.457   4.060  11.342 -0.1958 -0.6983  0.8051
 5250TIP3   OH237240   3.499   0.151  13.441  0.0249  0.5183  1.2575
 5250TIP3    H137241   3.546   0.137  13.523 -0.5298  1.6553  1.7736
 5250TIP3    H237242   3.410   0.123  13.459  0.0682  0.0749  0.8123
 5251TIP3   OH237243   2.637   5.015   4.788  0.6679  0.4544 -0.1554
 5251TIP3    H137244   2.657   4.925   4.816 -0.4393  0.1541 -0.2651
 5251TIP3    H237245   2.717   5.064   4.805  0.8116 -0.2339  1.3171
 5252TIP3   OH237246   6.483   0.221   1.233 -0.7111 -0.0322 -0.0151
 5252TIP3    H137247   6.566   0.190   1.269 -0.2554 -0.7198 -1.6503
 5252TIP3    H237248   6.497   0.227   1.139 -2.0073  1.4323 -0.1459
 5253TIP3   OH237249   4.688   3.439  12.394  0.6763  0.6010  0.5430
 5253TIP3    H137250   4.762   3.416  12.451  0.4454 -0.5669  0.3820
 5253TIP3    H237251   4.613   3.443  12.453  0.8048  1.4849  0.6559
 5254TIP3   OH237252   5.748   3.140  15.265 -0.5000 -0.1549 -0.3152
 5254TIP3    H137253   5.728   3.219  15.214 -1.7919 -1.7946 -2.3939
 5254TIP3    H237254   5.663   3.101  15.283  0.3152 -3.5950 -3.4162
 5255TIP3   OH237255   0.025   1.716   3.095  0.2021 -0.0421  0.2470
 5255TIP3    H137256   0.028   1.811   3.097  0.5361 -0.0565  0.5487
 5255TIP3    H237257   0.105   1.688   3.141 -0.6401 -0.4581  1.5018
 5256TIP3   OH237258   4.537   6.603   0.892 -0.4284 -0.4779 -0.0875
 5256TIP3    H137259   4.468   6.543   0.921  0.4526 -1.3913  0.1138
 5256TIP3    H237260   4.618   6.553   0.898  0.1721  0.3372 -1.0831
 5257TIP3   OH237261   3.834   2.948  13.630  0.2492  0.2940  0.5015
 5257TIP3    H137262   3.897   2.877  13.614  0.8472  0.7915  0.6003
 5257TIP3    H237263   3.877   3.026  13.595 -1.1692  0.3265 -1.2336
 5258TIP3   OH237264   6.365   6.678   1.721  0.1304  0.1535  0.0365
 5258TIP3    H137265   6.368   6.583   1.725 -1.7606  0.1428  1.9114
 5258TIP3    H237266   6.457   6.705   1.721  0.6668 -1.5508  2.8531
 5259TIP3   OH237267   3.937   3.082   4.550  0.3636  0.7362  0.0128
 5259TIP3    H137268   3.885   3.140   4.493 -0.9945  0.4612  0.9385
 5259TIP3    H237269   3.939   3.127   4.634 -0.3667 -0.3569  0.6297
 5260TIP3   OH237270   4.652   2.632  13.384 -0.6381 -0.0007  0.4003
 5260TIP3    H137271   4.614   2.658  13.301  1.2426 -0.8065 -0.7505
 5260TIP3    H237272   4.579   2.632  13.446 -1.8405  1.6374 -1.0081
 5261TIP3   OH237273   2.634   3.533  11.630  0.1591 -0.2397 -0.4983
 5261TIP3    H137274   2.621   3.438  11.634 -1.3443 -0.0096  0.1040
 5261TIP3    H237275   2.662   3.557  11.718 -3.1144  0.3999  0.4168
 5262TIP3   OH237276   3.102   2.122  13.620 -0.0280  0.4332 -0.1935
 5262TIP3    H137277   3.096   2.079  13.534  2.2164 -0.3630 -0.0023
 5262TIP3    H237278   3.182   2.175  13.614  0.3849  0.0289  1.5321
 5263TIP3   OH237279   0.204   6.317   3.934  0.5945 -0.5909  0.5861
 5263TIP3    H137280   0.161   6.258   3.996 -1.5639 -0.0229 -0.3435
 5263TIP3    H237281   0.198   6.272   3.850 -1.1333  0.9677 -0.1414
 5264TIP3   OH237282   2.040   3.189   6.427 -0.0216  0.4370  0.3632
 5264TIP3    H137283   1.981   3.244   6.478  0.4415  0.3047  1.0568
 5264TIP3    H237284   2.107   3.161   6.490  0.7596  0.5654 -0.3954
 5265TIP3   OH237285   5.791   5.577  15.065  0.3487 -0.2955  0.0763
 5265TIP3    H137286   5.835   5.573  14.980  0.0452  1.2912 -0.1684
 5265TIP3    H237287   5.843   5.639  15.115 -0.8630  0.6065  0.2242
 5266TIP3   OH237288   6.039   5.753   0.039 -0.5272 -0.3586 -0.3449
 5266TIP3    H137289   6.012   5.830   0.090 -2.0562 -0.0697 -1.5670
 5266TIP3    H237290   6.007   5.678   0.089  2.0049 -0.2981  1.4740
 5267TIP3   OH237291   0.557   5.048   0.938 -0.0946 -0.2534 -0.0961
 5267TIP3    H137292   0.625   4.989   0.905 -0.1516 -0.0514 -0.5748
 5267TIP3    H237293   0.493   4.991   0.979  0.9825 -0.3639  1.4883
 5268TIP3   OH237294   0.310   1.180  13.742  0.5748 -0.1146  0.6638
 5268TIP3    H137295   0.322   1.206  13.651  1.7275 -1.0174  0.5430
 5268TIP3    H237296   0.326   1.260  13.792 -1.0935  0.6362  0.0344
 5269TIP3   OH237297   6.579   3.303   2.799  0.4811 -0.4562  0.2591
 5269TIP3    H137298   6.653   3.324   2.743  0.2774 -0.7609 -0.1221
 5269TIP3    H237299   6.567   3.380   2.854 -0.5488  0.6107 -1.4360
 5270TIP3   OH237300   4.188   1.359  16.835  0.1042  0.1833 -0.3630
 5270TIP3    H137301   4.256   1.367  16.902 -0.4659 -1.9178  0.5238
 5270TIP3    H237302   4.137   1.439  16.841  2.4214  1.7506 -0.9645
 5271TIP3   OH237303   0.495   5.990  16.538 -0.5317 -0.1902 -0.9805
 5271TIP3    H137304   0.532   6.075  16.560  1.0635 -0.9731 -0.5596
 5271TIP3    H237305   0.450   6.004  16.455  1.1352  0.6948 -1.7643
 5272TIP3   OH237306   2.691   1.424  11.870  0.3624 -0.1023  0.4381
 5272TIP3    H137307   2.724   1.419  11.960  0.4701  0.7068  0.4487
 5272TIP3    H237308   2.747   1.489  11.828 -0.7269  0.7086  0.2384
 5273TIP3   OH237309   4.181   3.298  14.448  0.7297 -0.9084  0.7208
 5273TIP3    H137310   4.216   3.379  14.410 -1.4444 -1.1983 -2.1258
 5273TIP3    H237311   4.236   3.229  14.413  1.2148 -0.8661  1.3833
 5274TIP3   OH237312   2.100   2.537  13.761 -0.2915  0.2721 -0.5399
 5274TIP3    H137313   2.151   2.580  13.829 -2.1579  1.5999  0.0702
 5274TIP3    H237314   2.160   2.529  13.687  0.7303  2.0433  0.0654
 5275TIP3   OH237315   2.157   5.283   1.769 -0.0598  0.5005  0.5984
 5275TIP3    H137316   2.200   5.356   1.725 -0.6605  0.2861 -0.3670
 5275TIP3    H237317   2.115   5.323   1.846  1.6380  0.7399  1.4129
 5276TIP3   OH237318   0.067   1.195   0.198  0.5529  0.0792 -0.6024
 5276TIP3    H137319   0.104   1.220   0.113  0.1830  0.4497 -0.6587
 5276TIP3    H237320  -0.024   1.224   0.193  0.2265 -0.9324 -0.5109
 5277TIP3   OH237321   3.677   4.698  10.946 -0.1160 -0.2568  0.2632
 5277TIP3    H137322   3.582   4.695  10.953 -0.1372  1.5556  1.1302
 5277TIP3    H237323   3.694   4.766  10.880  0.5862 -0.6260  0.0504
 5278TIP3   OH237324   2.005   1.925   0.265 -0.2823 -0.1544  0.4084
 5278TIP3    H137325   1.931   1.894   0.214  0.1139  0.0764 -0.3162
 5278TIP3    H237326   1.980   1.910   0.356 -0.3337 -2.0539  0.0924
 5279TIP3   OH237327   6.008   3.684  14.859  0.7190 -0.2643  0.1760
 5279TIP3    H137328   6.025   3.771  14.824  1.3809 -0.9144 -1.1384
 5279TIP3    H237329   6.065   3.678  14.936  0.9524  0.3239  0.0499
 5280TIP3   OH237330   3.847   0.788   1.338 -0.3889  0.5992 -0.2556
 5280TIP3    H137331   3.906   0.725   1.296 -3.2326 -0.6689 -2.4811
 5280TIP3    H237332   3.805   0.738   1.408 -0.8910  0.6951 -0.4897
 5281TIP3   OH237333   5.660   2.782  14.396 -0.0577  0.2565  0.3996
 5281TIP3    H137334   5.738   2.733  14.423 -0.3617 -0.3584  0.1604
 5281TIP3    H237335   5.636   2.745  14.311 -1.2096 -0.2539  0.9388
 5282TIP3   OH237336   0.990   1.896   6.089 -0.3798 -0.2477  0.1161
 5282TIP3    H137337   0.978   1.968   6.151 -1.7025 -1.7611  1.7034
 5282TIP3    H237338   1.038   1.934   6.016 -1.7313  2.4245  0.5614
 5283TIP3   OH237339   6.254   6.642   6.229 -0.0467 -0.6498 -0.2921
 5283TIP3    H137340   6.249   6.596   6.145 -0.5245 -0.8573 -0.1504
 5283TIP3    H237341   6.168   6.630   6.268  0.5929 -1.6638  0.8166
 5284TIP3   OH237342   0.287   2.301  12.440  0.3479 -0.5166 -0.0072
 5284TIP3    H137343   0.372   2.291  12.398  2.4313  1.0374  3.5754
 5284TIP3    H237344   0.263   2.212  12.467  1.4344 -0.8190 -0.0163
 5285TIP3   OH237345   0.725   1.892   1.588 -0.0423 -0.3898 -0.0997
 5285TIP3    H137346   0.644   1.865   1.630 -0.0921  0.4830  0.3709
 5285TIP3    H237347   0.793   1.838   1.630 -0.1649  0.0586  0.6858
 5286TIP3   OH237348   0.719   6.597   4.202  0.0267  0.2843 -0.6403
 5286TIP3    H137349   0.799   6.643   4.180 -0.5105  2.0943  1.0863
 5286TIP3    H237350   0.658   6.619   4.131  0.1331  1.3428 -0.4115
 5287TIP3   OH237351   0.926   4.640  11.280 -0.3486 -0.2871  1.3357
 5287TIP3    H137352   0.954   4.569  11.337  1.3660 -0.1323  0.7244
 5287TIP3    H237353   0.858   4.685  11.329 -1.6110 -2.4525  1.6458
 5288TIP3   OH237354   0.856   6.329  17.292 -0.4361 -0.1302 -0.0345
 5288TIP3    H137355   0.868   6.397  17.225 -0.3667 -2.8222 -2.8542
 5288TIP3    H237356   0.765   6.301  17.282  0.3449 -2.4610 -0.9230
 5289TIP3   OH237357   3.424   0.927   3.120  0.0547 -0.0940 -0.5743
 5289TIP3    H137358   3.493   0.980   3.160 -1.4581  0.3045  1.6203
 5289TIP3    H237359   3.464   0.841   3.107  0.7452 -0.1060  1.4387
 5290TIP3   OH237360   1.405   3.945  16.040 -0.7092 -0.0909 -1.0796
 5290TIP3    H137361   1.469   3.964  15.972  0.8013  1.2374  0.6595
 5290TIP3    H237362   1.325   3.989  16.011  0.7026  2.8644 -0.7055
 5291TIP3   OH237363   4.737   1.756   5.265 -0.3083  0.0884 -0.1254
 5291TIP3    H137364   4.739   1.687   5.200 -1.2873 -0.1606  0.0912
 5291TIP3    H237365   4.767   1.714   5.346 -1.5178 -0.2646  0.1549
 5292TIP3   OH237366   2.032   6.538   2.989 -0.0579  0.2565  0.0971
 5292TIP3    H137367   1.983   6.464   3.024  0.4549  0.5603  1.5018
 5292TIP3    H237368   1.997   6.551   2.902 -1.5252 -0.3921  0.5790
 5293TIP3   OH237369   3.563   1.930  11.684  0.0680 -0.5216 -0.4431
 5293TIP3    H137370   3.526   1.897  11.602 -1.6928  0.4425 -0.0553
 5293TIP3    H237371   3.497   1.911  11.750  0.7260  0.2516  0.4599
 5294TIP3   OH237372   0.103   4.531   1.533 -0.2620  0.2818  0.0387
 5294TIP3    H137373   0.082   4.620   1.561 -2.0136 -0.8653  2.5375
 5294TIP3    H237374   0.183   4.509   1.582 -1.0829 -0.2908  1.1476
 5295TIP3   OH237375   6.799   5.240  11.223 -0.4427  0.3559 -0.5360
 5295TIP3    H137376   6.819   5.158  11.178 -0.4656 -0.5485  1.0705
 5295TIP3    H237377   6.747   5.214  11.299  1.7735  1.5505  1.4791
 5296TIP3   OH237378   1.564   3.096   0.243  0.2050  0.3951 -0.1143
 5296TIP3    H137379   1.512   3.016   0.252  1.2461 -0.1985  0.7099
 5296TIP3    H237380   1.641   3.081   0.297 -0.4620  2.7207  1.5543
 5297TIP3   OH237381   0.129   4.786  16.411  0.3443 -0.4585  0.1553
 5297TIP3    H137382   0.096   4.698  16.432 -0.5588  0.1137  1.1683
 5297TIP3    H237383   0.160   4.820  16.494  3.0807 -0.7844 -0.6861
 5298TIP3   OH237384   0.469   5.400   3.227 -0.1930  0.7705  0.2928
 5298TIP3    H137385   0.490   5.489   3.198 -1.1747  0.7743 -0.4164
 5298TIP3    H237386   0.515   5.343   3.165 -2.0009  0.7795 -1.0744
 5299TIP3   OH237387   1.955   2.119  14.096 -0.2356 -0.0210  0.3610
 5299TIP3    H137388   1.934   2.207  14.062 -1.5010 -0.7958 -0.9364
 5299TIP3    H237389   1.881   2.098  14.153  0.3948  0.0145  1.1959
 5300TIP3   OH237390   1.116   2.760   4.940  0.0105 -0.5882 -0.2228
 5300TIP3    H137391   1.135   2.722   5.026  0.0808 -0.8286 -0.3450
 5300TIP3    H237392   1.038   2.714   4.910  0.0322 -0.5584 -0.3242
 5301TIP3   OH237393   3.925   5.930   4.975 -0.3803  0.2750 -0.1546
 5301TIP3    H137394   3.874   6.006   4.948  1.0773  1.4852  0.4482
 5301TIP3    H237395   3.942   5.883   4.893 -3.4595 -0.8186 -0.2337
 5302TIP3   OH237396   0.937   2.241  14.220 -0.0191  0.0976 -0.4080
 5302TIP3    H137397   0.933   2.336  14.209 -0.9075 -0.2328 -3.3863
 5302TIP3    H237398   0.872   2.222  14.287 -0.1490  1.5448 -0.1078
 5303TIP3   OH237399   5.645   3.983  13.272  0.0679 -0.3310 -0.1031
 5303TIP3    H137400   5.729   3.939  13.287  0.5416  0.2216 -1.0737
 5303TIP3    H237401   5.580   3.926  13.312  0.7020 -1.8088 -1.1467
 5304TIP3   OH237402   4.511   0.987  14.414  0.5653  0.5085 -0.3093
 5304TIP3    H137403   4.543   0.976  14.324 -0.4779  1.0213 -0.7473
 5304TIP3    H237404   4.452   1.063  14.410 -0.7422 -0.4444  0.4733
 5305TIP3   OH237405   1.458   2.038   3.769  0.2503 -0.4710 -0.0989
 5305TIP3    H137406   1.485   2.004   3.684 -0.6878  0.2622 -0.7094
 5305TIP3    H237407   1.416   1.964   3.812 -0.0847 -0.6119 -0.6546
 5306TIP3   OH237408   1.848   0.433   4.447 -0.1550  0.0283  0.1364
 5306TIP3    H137409   1.848   0.350   4.493 -0.1711  0.4331  0.8712
 5306TIP3    H237410   1.797   0.417   4.367 -1.5997 -0.2254  1.0823
 5307TIP3   OH237411   1.789   6.234  10.778 -0.7762 -0.6163 -0.5847
 5307TIP3    H137412   1.862   6.295  10.784 -1.1374 -0.0527 -1.7873
 5307TIP3    H237413   1.726   6.266  10.843  0.0819 -1.1926  0.5658
 5308TIP3   OH237414   0.781   3.926   2.043  0.9070 -0.0426  0.3592
 5308TIP3    H137415   0.873   3.949   2.057  0.9124 -0.7138  1.4526
 5308TIP3    H237416   0.766   3.943   1.950  1.7780  1.3470  0.4554
 5309TIP3   OH237417   1.879   3.971  12.047  0.5470 -0.4271 -0.2109
 5309TIP3    H137418   1.944   3.901  12.055 -0.0845 -1.1702 -1.4446
 5309TIP3    H237419   1.929   4.046  12.014  1.1687 -0.3699  0.8315
 5310TIP3   OH237420   0.607   6.677  15.880  0.1405 -0.0626 -0.3812
 5310TIP3    H137421   0.696   6.711  15.872  0.3733 -0.4504  0.4819
 5310TIP3    H237422   0.608   6.625  15.961 -0.6807 -0.6473 -0.7325
 5311TIP3   OH237423   0.962   5.962  14.961  0.5737 -0.6354  0.3205
 5311TIP3    H137424   0.927   5.878  14.930  0.6198 -0.9816  1.1674
 5311TIP3    H237425   0.917   5.976  15.045 -1.1892  1.3439 -0.8926
 5312TIP3   OH237426   2.332   3.572   5.241  0.3685  0.3364  0.4124
 5312TIP3    H137427   2.426   3.579   5.225  0.1586 -0.0064 -1.0902
 5312TIP3    H237428   2.306   3.492   5.197 -0.2657 -0.7692  2.7238
 5313TIP3   OH237429   2.095   1.646  15.276  0.5142 -0.5167 -0.0222
 5313TIP3    H137430   2.093   1.689  15.362  1.4224 -1.1433  0.3136
 5313TIP3    H237431   2.022   1.686  15.228  2.2645  2.5962 -0.2838
 5314TIP3   OH237432   0.252   4.628  14.845 -0.4540 -0.3404 -0.1137
 5314TIP3    H137433   0.339   4.601  14.873 -0.7039  0.3901  1.4186
 5314TIP3    H237434   0.192   4.572  14.896 -0.8900 -0.5061 -0.7980
 5315TIP3   OH237435   4.385   5.194  15.808  0.1789 -0.2040 -0.2018
 5315TIP3    H137436   4.371   5.262  15.742 -0.2767  0.0082  0.1132
 5315TIP3    H237437   4.380   5.240  15.891 -2.5374 -0.9996  0.1128
 5316TIP3   OH237438   2.784   0.767   0.484 -0.8230  0.1393  0.0183
 5316TIP3    H137439   2.836   0.844   0.461 -0.5393  0.0925  0.4965
 5316TIP3    H237440   2.781   0.715   0.403 -1.3718  0.8494 -0.4243
 5317TIP3   OH237441   2.118   0.185   2.094 -0.0765  0.2510 -0.5656
 5317TIP3    H137442   2.038   0.134   2.080  0.2732 -0.4350 -0.0956
 5317TIP3    H237443   2.120   0.200   2.188 -0.2894  1.3370 -0.7223
 5318TIP3   OH237444   5.275   1.828  16.483  0.3189 -0.1630 -0.1305
 5318TIP3    H137445   5.252   1.825  16.575  1.5115 -1.8936  0.1313
 5318TIP3    H237446   5.276   1.922  16.462 -1.2198  0.1910  1.2574
 5319TIP3   OH237447   3.300   6.248  16.772  0.3916 -0.1409 -0.4788
 5319TIP3    H137448   3.379   6.233  16.719  2.3264  1.2633  1.9155
 5319TIP3    H237449   3.299   6.175  16.835 -0.6898 -0.5929 -1.0065
 5320TIP3   OH237450   0.163   2.799  11.793 -0.1220 -0.4224 -0.1120
 5320TIP3    H137451   0.130   2.721  11.748 -2.0640 -0.4787  1.3980
 5320TIP3    H237452   0.161   2.777  11.886 -0.0940  1.2125  0.2928
 5321TIP3   OH237453   3.354   5.549  13.397  0.4200  0.5891  0.3390
 5321TIP3    H137454   3.446   5.548  13.371  0.6986 -0.9372  1.3148
 5321TIP3    H237455   3.354   5.587  13.485  0.0321  1.1270  0.1159
 5322TIP3   OH237456   3.623   1.416   3.405  0.1638  0.3094  0.1227
 5322TIP3    H137457   3.557   1.454   3.464 -0.7389 -0.7560 -0.1891
 5322TIP3    H237458   3.671   1.353   3.459 -1.4654 -1.5702 -0.5484
 5323TIP3   OH237459   5.288   0.331   0.526 -0.2907 -0.5795  0.2367
 5323TIP3    H137460   5.330   0.402   0.477 -1.7403  0.6193  0.7217
 5323TIP3    H237461   5.262   0.268   0.459 -0.2719  0.0071 -0.3275
 5324TIP3   OH237462   6.489   3.559   2.835 -0.0816  0.3428  0.5223
 5324TIP3    H137463   6.495   3.654   2.833  2.5188  0.2756  1.9581
 5324TIP3    H237464   6.533   3.531   2.755 -1.3687  0.3545 -0.1934
 5325TIP3   OH237465   3.988   1.914   0.163  0.4949 -0.3593 -0.5056
 5325TIP3    H137466   3.899   1.930   0.133  1.1289  0.3642 -2.0446
 5325TIP3    H237467   4.013   1.994   0.210  0.7399 -0.0724 -1.1088
 5326TIP3   OH237468   0.001   3.339  15.415  0.0994 -0.3774 -0.4757
 5326TIP3    H137469  -0.058   3.414  15.418  0.6593  0.1095 -1.3020
 5326TIP3    H237470   0.086   3.376  15.391  0.5578 -1.1702 -0.0957
 5327TIP3   OH237471   1.194   2.747  12.845 -0.1372  0.1403  0.0945
 5327TIP3    H137472   1.137   2.696  12.788 -1.0008  0.1869  0.9131
 5327TIP3    H237473   1.162   2.730  12.934  0.1141  1.4169  0.4456
 5328TIP3   OH237474   1.065   1.082   6.398  0.1224  0.4084 -0.3893
 5328TIP3    H137475   0.975   1.052   6.392  0.0525  0.8024 -1.4650
 5328TIP3    H237476   1.074   1.116   6.487 -1.1935  1.6400 -0.7137
 5329TIP3   OH237477   1.984   2.125   3.895  0.1405 -0.9013 -0.6292
 5329TIP3    H137478   1.977   2.029   3.897 -2.5635 -0.7382  0.8731
 5329TIP3    H237479   1.898   2.154   3.864 -0.3821  1.0844  2.4296
 5330TIP3   OH237480   2.209   5.790   0.189 -0.3170  0.0256  0.1600
 5330TIP3    H137481   2.204   5.863   0.250 -0.8367  0.1038  0.0255
 5330TIP3    H237482   2.145   5.811   0.121 -0.5118 -0.5845  0.1528
 5331TIP3   OH237483   4.546   1.062   1.185 -0.0863 -0.0565  0.0243
 5331TIP3    H137484   4.480   1.105   1.240  2.1033  0.6593  2.1466
 5331TIP3    H237485   4.531   0.969   1.198  0.9938  0.0966  2.6172
 5332TIP3   OH237486   4.914   6.338   4.159 -0.5913  0.1445 -0.8024
 5332TIP3    H137487   4.882   6.351   4.248 -1.0242 -0.5775 -0.8495
 5332TIP3    H237488   4.999   6.382   4.158 -0.7900  0.5548 -0.1678
 5333TIP3   OH237489   4.692   1.112  12.199  0.0124  0.3041 -0.1774
 5333TIP3    H137490   4.659   1.024  12.181 -0.0083  0.2242  0.2361
 5333TIP3    H237491   4.623   1.153  12.251  0.2636  0.3717  0.1050
 5334TIP3   OH237492   5.590   5.902   2.615 -0.0916  0.2946 -0.1683
 5334TIP3    H137493   5.625   5.984   2.650 -1.1818  1.0156 -0.7248
 5334TIP3    H237494   5.498   5.922   2.598 -0.5926 -1.3229  0.5480
 5335TIP3   OH237495   4.523   5.099  14.346  0.6969 -0.4927 -0.3134
 5335TIP3    H137496   4.457   5.071  14.409  0.1731 -0.3621 -0.7998
 5335TIP3    H237497   4.473   5.129  14.270  1.3242 -0.6884 -0.8101
 5336TIP3   OH237498   6.663   3.105  13.196 -0.4465 -0.4165 -0.0250
 5336TIP3    H137499   6.644   3.108  13.290 -2.1135 -0.8609 -0.3421
 5336TIP3    H237500   6.734   3.168  13.184  0.4140 -1.0226  1.6759
 5337TIP3   OH237501   2.222   6.039  10.704  0.0862  0.3513 -0.3568
 5337TIP3    H137502   2.306   5.998  10.683  1.0238  0.9022  2.1850
 5337TIP3    H237503   2.203   6.094  10.628  1.5562 -0.4973 -1.3640
 5338TIP3   OH237504   0.840   1.786  12.225  0.1854  0.1423 -0.2367
 5338TIP3    H137505   0.920   1.774  12.277  0.5798  0.2013 -0.8299
 5338TIP3    H237506   0.775   1.731  12.268  1.1802 -1.7998 -1.1779
 5339TIP3   OH237507   5.763   4.651   6.262 -0.3087 -0.2803 -0.1052
 5339TIP3    H137508   5.827   4.700   6.314 -0.4170 -1.1426  0.8377
 5339TIP3    H237509   5.706   4.719   6.226 -1.2174  0.2202  2.2083
 5340TIP3   OH237510   2.118   0.595   1.527  0.4797  0.0599  0.3425
 5340TIP3    H137511   2.162   0.513   1.505  1.0423 -0.0813  1.9135
 5340TIP3    H237512   2.037   0.568   1.570  0.2131  0.3324  0.0129
 5341TIP3   OH237513   2.409   2.460  10.849 -0.2755  0.6044 -0.0892
 5341TIP3    H137514   2.476   2.407  10.894 -0.2145  0.4800 -0.3246
 5341TIP3    H237515   2.387   2.529  10.911  0.4928  0.9894 -0.2360
 5342TIP3   OH237516   0.099   4.467   0.380  0.0511 -0.6252  0.1519
 5342TIP3    H137517   0.071   4.516   0.302 -1.5239 -2.5122 -0.5257
 5342TIP3    H237518   0.148   4.392   0.344 -1.8837 -2.2811  0.8401
 5343TIP3   OH237519   6.458   4.843   2.137  0.5267  0.2121  0.2408
 5343TIP3    H137520   6.367   4.838   2.111  0.4410 -0.0563  0.5855
 5343TIP3    H237521   6.501   4.771   2.090  0.3837 -0.2359  0.7955
 5344TIP3   OH237522   6.797   2.564  15.823 -0.3813  0.4295 -0.1575
 5344TIP3    H137523   6.858   2.627  15.784 -0.9845  1.5265  0.6357
 5344TIP3    H237524   6.723   2.617  15.853  0.2439 -0.2991  2.8572
 5345TIP3   OH237525   1.830   4.050   6.719 -0.0795  0.1493  0.2206
 5345TIP3    H137526   1.832   4.132   6.670 -1.1392  0.3054  0.4114
 5345TIP3    H237527   1.921   4.034   6.744  0.0592  1.5650  0.6719
 5346TIP3   OH237528   3.561   4.400   2.705 -0.9827  0.1806  0.2839
 5346TIP3    H137529   3.639   4.350   2.682 -1.9431 -1.3381  0.2086
 5346TIP3    H237530   3.594   4.475   2.754  0.5685 -0.0896 -0.3164
 5347TIP3   OH237531   6.499   1.058   4.911 -0.0942 -0.1487 -0.3668
 5347TIP3    H137532   6.426   0.996   4.916  0.2787 -0.5769 -0.1644
 5347TIP3    H237533   6.560   1.027   4.978 -0.5714  1.3108  0.7626
 5348TIP3   OH237534   1.469   4.087  11.771  0.1372  1.2137  0.0923
 5348TIP3    H137535   1.386   4.119  11.806  0.2216 -0.1119  1.5670
 5348TIP3    H237536   1.531   4.100  11.843  0.8760  0.7563 -0.4627
 5349TIP3   OH237537   5.654   3.089   1.358 -0.2267 -0.5233 -0.1564
 5349TIP3    H137538   5.622   3.013   1.406 -1.5136  0.3666  0.4277
 5349TIP3    H237539   5.637   3.068   1.266  0.3507 -1.3594 -0.0744
 5350TIP3   OH237540   6.161   4.520  15.772 -0.5147  0.1622  0.0215
 5350TIP3    H137541   6.098   4.578  15.815  0.3499  0.3142  1.1201
 5350TIP3    H237542   6.246   4.563  15.784  0.0724 -1.0557  0.3917
 5351TIP3   OH237543   5.047   1.413   0.029  0.2820 -0.6216 -0.0269
 5351TIP3    H137544   5.051   1.354   0.104 -0.0698 -0.3836  0.1829
 5351TIP3    H237545   4.964   1.459   0.040  1.1708  0.8669  0.5195
 5352TIP3   OH237546   3.218   1.230   3.608  0.6333 -0.0744  0.2913
 5352TIP3    H137547   3.186   1.320   3.611 -0.6056 -0.5090  0.7920
 5352TIP3    H237548   3.156   1.181   3.663  0.1738 -1.5594 -1.5155
 5353TIP3   OH237549   6.199   2.695   0.889 -0.2674 -0.0158  0.2681
 5353TIP3    H137550   6.142   2.764   0.855  0.6683  0.7888  0.3264
 5353TIP3    H237551   6.256   2.740   0.951  1.1520 -0.6310 -0.5883
 5354TIP3   OH237552   3.136   5.947  12.765 -0.1142  0.0964 -0.6028
 5354TIP3    H137553   3.169   5.983  12.848  0.0254  0.9126 -1.0033
 5354TIP3    H237554   3.054   5.903  12.789  1.0648 -1.6432  0.3459
 5355TIP3   OH237555   4.490   6.138   3.075  0.6989 -0.2916  0.2219
 5355TIP3    H137556   4.436   6.060   3.091  1.3248 -0.8375 -0.3355
 5355TIP3    H237557   4.426   6.206   3.053  0.3107 -1.2183 -1.5753
 5356TIP3   OH237558   1.101   0.351  15.720  0.3550 -0.2520 -0.6639
 5356TIP3    H137559   1.171   0.415  15.734  0.6598 -1.0839  1.8552
 5356TIP3    H237560   1.133   0.297  15.647  0.9974  1.1748 -1.4680
 5357TIP3   OH237561   4.693   3.383   5.575  0.3010 -0.1694  0.3429
 5357TIP3    H137562   4.664   3.378   5.666 -1.6978 -0.2708 -0.2779
 5357TIP3    H237563   4.669   3.472   5.547  1.0617 -0.0771 -0.0251
 5358TIP3   OH237564   4.002   6.450   2.871  0.0757  0.9110 -0.0408
 5358TIP3    H137565   4.025   6.368   2.827 -0.9100  1.5929 -1.9239
 5358TIP3    H237566   3.934   6.489   2.815 -0.1803  2.5325  1.3403
 5359TIP3   OH237567   2.605   4.874   4.467 -0.1962  0.1408  0.1771
 5359TIP3    H137568   2.579   4.826   4.389 -2.2326  0.0750  0.8632
 5359TIP3    H237569   2.569   4.823   4.540  3.0702 -0.7076  1.2907
 5360TIP3   OH237570   6.213   1.867   1.496  0.6155  0.0539  0.2066
 5360TIP3    H137571   6.210   1.907   1.583 -1.8232  0.7199 -0.1409
 5360TIP3    H237572   6.131   1.894   1.455  0.6026 -2.3028 -1.3918
 5361TIP3   OH237573   0.547   5.740   3.937  0.3314 -0.1438  0.0104
 5361TIP3    H137574   0.457   5.771   3.953  0.2920 -0.0160 -0.4355
 5361TIP3    H237575   0.587   5.736   4.023 -0.0987 -0.1735  0.2092
 5362TIP3   OH237576   6.244   6.183  17.259 -0.1563  0.1544 -0.1087
 5362TIP3    H137577   6.167   6.163  17.206 -1.1368 -0.6587  1.5940
 5362TIP3    H237578   6.244   6.279  17.265 -2.3668  0.0739  1.7755
 5363TIP3   OH237579   0.589   2.343   3.939  0.1144  0.9247  0.4924
 5363TIP3    H137580   0.555   2.401   3.871 -0.1394  0.2588  0.0409
 5363TIP3    H237581   0.668   2.305   3.902 -0.7341 -0.4498  0.0294
 5364TIP3   OH237582   3.671   5.132   0.127  0.5653 -1.1190 -0.4742
 5364TIP3    H137583   3.709   5.045   0.118 -1.1359 -1.9901  0.5913
 5364TIP3    H237584   3.582   5.123   0.094  0.5165  0.3302 -0.7607
 5365TIP3   OH237585   4.525   0.725   5.989  0.0802 -0.8040  0.8424
 5365TIP3    H137586   4.604   0.693   6.033  0.7461 -1.0380 -0.5134
 5365TIP3    H237587   4.556   0.796   5.933 -0.8047 -0.3386  0.9448
 5366TIP3   OH237588   6.116   3.246  13.518  0.7262  0.3078  0.3151
 5366TIP3    H137589   6.125   3.271  13.610  1.0257  0.8985  0.1241
 5366TIP3    H237590   6.141   3.324  13.469  0.2726  0.0901 -0.2684
 5367TIP3   OH237591   6.139   0.634   1.899  0.0173 -0.5362  0.3362
 5367TIP3    H137592   6.121   0.568   1.967 -0.6090  1.0506  1.7433
 5367TIP3    H237593   6.055   0.647   1.856 -0.1192  0.1484  0.8031
 5368TIP3   OH237594   5.659   4.679   2.079  0.0585  0.7399 -0.0635
 5368TIP3    H137595   5.728   4.739   2.108  0.7975  0.9897 -2.2864
 5368TIP3    H237596   5.580   4.713   2.120  1.0820  0.9395  1.8517
 5369TIP3   OH237597   3.361   0.526   1.902 -0.3883 -0.4052 -0.8342
 5369TIP3    H137598   3.442   0.546   1.949  0.5825 -1.7555 -1.8906
 5369TIP3    H237599   3.377   0.557   1.813 -1.5857  0.6070 -0.7162
 5370TIP3   OH237600   5.392   6.632  11.543  0.0828  0.1171 -0.0507
 5370TIP3    H137601   5.366   6.651  11.633  0.3494  0.0629  0.0389
 5370TIP3    H237602   5.364   6.542  11.528  2.4971 -0.8280  0.8953
 5371TIP3   OH237603   1.235   5.366   4.967 -0.4776  0.1115  0.1162
 5371TIP3    H137604   1.167   5.433   4.974 -0.3322  0.2305  0.4061
 5371TIP3    H237605   1.285   5.390   4.889 -0.9513 -0.1458 -0.2677
 5372TIP3   OH237606   1.780   1.693   3.333  0.1972  0.2182 -0.2534
 5372TIP3    H137607   1.802   1.724   3.421  1.3108 -0.4184 -0.2904
 5372TIP3    H237608   1.765   1.599   3.344 -1.8949  0.5229 -0.3592
 5373TIP3   OH237609   6.679   0.735   1.159  0.5090  0.2759 -0.0248
 5373TIP3    H137610   6.653   0.767   1.072 -0.7784  1.8313  0.9056
 5373TIP3    H237611   6.630   0.789   1.220  2.4755  0.1562  1.7197
 5374TIP3   OH237612   4.111   2.373  15.977 -0.0821  0.0609  0.0299
 5374TIP3    H137613   4.017   2.363  15.991 -0.2701 -0.1783 -1.2779
 5374TIP3    H237614   4.124   2.350  15.885  1.2891 -0.1092  0.2485
 5375TIP3   OH237615   3.121   2.779  14.727  0.2010 -0.3053  0.5352
 5375TIP3    H137616   3.037   2.808  14.762 -1.0619 -0.0843 -2.4942
 5375TIP3    H237617   3.147   2.850  14.668  1.0615 -1.6698 -0.7688
 5376TIP3   OH237618   3.817   1.851  11.665 -0.3911 -0.0264  0.1601
 5376TIP3    H137619   3.864   1.921  11.621 -1.8721  0.2272 -1.0383
 5376TIP3    H237620   3.726   1.879  11.666 -0.6168 -0.7009  2.1013
 5377TIP3   OH237621   1.665   4.732  11.319 -0.0504 -0.3394 -0.0775
 5377TIP3    H137622   1.654   4.641  11.348 -2.0502  0.1495  0.7482
 5377TIP3    H237623   1.757   4.751  11.335  0.5798 -2.4640 -0.9807
 5378TIP3   OH237624   6.455   3.252  11.705 -0.1284 -0.1418 -0.1466
 5378TIP3    H137625   6.539   3.253  11.660  0.0444 -2.6087  0.0729
 5378TIP3    H237626   6.474   3.284  11.793  0.5934 -0.7142 -0.0922
 5379TIP3   OH237627   3.857   0.573   4.764  0.1633 -0.2925  0.2599
 5379TIP3    H137628   3.829   0.652   4.811  3.0093  0.6348  0.4777
 5379TIP3    H237629   3.899   0.607   4.684 -0.9777 -1.7095 -0.9675
 5380TIP3   OH237630   1.268   5.805  13.850 -0.4622  0.3143  0.3036
 5380TIP3    H137631   1.194   5.829  13.794  0.1847  3.5289  0.7304
 5380TIP3    H237632   1.346   5.822  13.797  0.0224 -2.3576  0.1074
 5381TIP3   OH237633   6.566   5.834  12.088  0.0642 -0.4567  0.3977
 5381TIP3    H137634   6.564   5.900  12.158 -0.7243  0.2404 -0.2663
 5381TIP3    H237635   6.490   5.778  12.105  0.7357 -1.2024  0.9620
 5382TIP3   OH237636   3.842   5.233  11.052  0.1578 -0.0003  0.0614
 5382TIP3    H137637   3.752   5.202  11.040  0.4311 -0.7688  0.0120
 5382TIP3    H237638   3.896   5.169  11.008  0.7157  0.6483 -0.2025
 5383TIP3   OH237639   1.103   2.844  15.769  0.1616 -0.8200 -0.1216
 5383TIP3    H137640   1.165   2.892  15.714 -0.7297  0.4191 -0.0509
 5383TIP3    H237641   1.125   2.752  15.754  1.4659 -0.4199 -0.7468
 5384TIP3   OH237642   6.549   6.578   3.962 -0.0940  0.1099 -0.1840
 5384TIP3    H137643   6.631   6.573   3.913 -0.0940  1.0126 -0.2945
 5384TIP3    H237644   6.519   6.487   3.969  0.0786 -0.0721 -1.5779
 5385TIP3   OH237645   5.173   5.182  12.201  0.4184 -0.6209  0.4066
 5385TIP3    H137646   5.103   5.211  12.260  1.0717 -1.8931  1.8548
 5385TIP3    H237647   5.239   5.251  12.206  0.3793 -0.6212  1.0289
 5386TIP3   OH237648   6.453   5.362   4.513  0.0815  0.0057  0.1169
 5386TIP3    H137649   6.494   5.311   4.583 -0.5963  0.1640  0.6429
 5386TIP3    H237650   6.365   5.324   4.505 -0.1651  0.6025  0.0012
 5387TIP3   OH237651   6.529   4.259  11.134  0.8167  0.3446  0.3375
 5387TIP3    H137652   6.509   4.340  11.088  2.7662  0.5726 -0.1534
 5387TIP3    H237653   6.453   4.244  11.190 -0.1711  1.7679 -0.5847
 5388TIP3   OH237654   0.415   6.265  14.975 -0.1019  0.1834  0.2724
 5388TIP3    H137655   0.505   6.234  14.986 -0.3863 -0.7026  0.1593
 5388TIP3    H237656   0.379   6.211  14.905 -0.7332  0.5122  0.3365
 5389TIP3   OH237657   0.020   4.673   5.442  0.6811 -0.1435 -0.4099
 5389TIP3    H137658  -0.009   4.651   5.354 -0.2261 -0.7503  0.0324
 5389TIP3    H237659   0.099   4.726   5.429  0.9058 -0.7422 -1.5673
 5390TIP3   OH237660   0.334   2.723   2.406  0.4283 -0.4825 -0.4650
 5390TIP3    H137661   0.309   2.640   2.446 -0.1923 -0.1602 -0.1951
 5390TIP3    H237662   0.429   2.726   2.416  0.4166 -1.0040 -0.1755
 5391TIP3   OH237663   3.764   0.419  13.324 -0.5609 -0.1386  0.2533
 5391TIP3    H137664   3.714   0.346  13.287 -0.6383 -0.0442  0.1718
 5391TIP3    H237665   3.840   0.378  13.365 -0.2405 -0.2062 -0.3960
 5392TIP3   OH237666   5.569   3.418   4.285 -0.1022 -0.2815 -0.2382
 5392TIP3    H137667   5.660   3.435   4.258  0.1036  0.1366  0.6804
 5392TIP3    H237668   5.547   3.492   4.342 -0.4898 -1.1641  0.7791
 5393TIP3   OH237669   3.278   6.029  13.953 -0.1081 -0.1737 -0.0259
 5393TIP3    H137670   3.359   6.001  13.995  0.7326  0.7574 -1.0020
 5393TIP3    H237671   3.272   6.123  13.972  0.1944  0.2290 -1.8044
 5394TIP3   OH237672   5.260   1.224  14.412  0.2444  0.2038 -0.0888
 5394TIP3    H137673   5.205   1.264  14.344 -1.6937 -0.4046  1.0616
 5394TIP3    H237674   5.251   1.130  14.398  1.4771  0.1054 -0.2419
 5395TIP3   OH237675   0.665   1.527   5.634  0.7711  0.0169 -0.1373
 5395TIP3    H137676   0.645   1.576   5.714  0.5209 -1.6558  0.8574
 5395TIP3    H237677   0.759   1.511   5.638  1.4012  2.8504 -1.9114
 5396TIP3   OH237678   4.534   0.877  16.486  0.5378  0.3874  0.0548
 5396TIP3    H137679   4.569   0.796  16.524  1.5327  0.3688 -0.8716
 5396TIP3    H237680   4.495   0.923  16.560  0.4176 -0.6974  0.6891
 5397TIP3   OH237681   1.496   0.956  14.697  0.7560  0.0055  0.3974
 5397TIP3    H137682   1.495   1.051  14.694 -0.0370 -0.0022  0.3231
 5397TIP3    H237683   1.465   0.934  14.785  0.5958 -0.1922  0.2923
 5398TIP3   OH237684   5.646   3.247  11.767  0.0005 -0.3107 -0.0658
 5398TIP3    H137685   5.552   3.268  11.770  0.1488  0.1860  1.2434
 5398TIP3    H237686   5.678   3.292  11.689 -0.5368  0.8041  0.3490
 5399TIP3   OH237687   0.816   4.560  14.480 -0.1608  0.1491  0.3904
 5399TIP3    H137688   0.792   4.652  14.471  1.5488  0.5811  0.1436
 5399TIP3    H237689   0.898   4.560  14.529 -1.5302 -1.4097  2.8383
 5400TIP3   OH237690   5.719   2.735  16.629 -0.8802 -0.4288 -0.0282
 5400TIP3    H137691   5.781   2.705  16.563 -1.1063  1.2575 -1.0652
 5400TIP3    H237692   5.648   2.774  16.578 -1.0654  0.8819  1.2030
 5401TIP3   OH237693   4.229   3.634  11.319  0.4513  0.1069 -0.4419
 5401TIP3    H137694   4.210   3.681  11.239  0.6691 -0.4230 -0.8068
 5401TIP3    H237695   4.265   3.700  11.378 -1.6570  0.9554 -0.0449
 5402TIP3   OH237696   2.128   4.878   0.646  0.1542 -0.0838 -0.1203
 5402TIP3    H137697   2.046   4.880   0.696  0.3418 -0.3785  0.2072
 5402TIP3    H237698   2.117   4.946   0.580  0.1089  0.6829  0.6616
 5403TIP3   OH237699   2.500   5.351   0.206  0.2600  0.0561 -0.5946
 5403TIP3    H137700   2.496   5.278   0.144  1.5978 -0.8246  0.3244
 5403TIP3    H237701   2.469   5.426   0.156 -2.6993 -1.4112 -1.0909
 5404TIP3   OH237702   0.931   3.527   4.710 -0.3527  0.2273  0.7504
 5404TIP3    H137703   0.933   3.589   4.783  0.1808  0.4194  0.5786
 5404TIP3    H237704   0.839   3.502   4.702 -0.3710 -0.0070  1.6663
 5405TIP3   OH237705   0.351   6.039  14.810 -0.1535  0.4097 -0.3764
 5405TIP3    H137706   0.292   6.087  14.752  1.0387  2.3710  0.0025
 5405TIP3    H237707   0.345   5.948  14.780  1.4135  1.5299 -4.4562
 5406TIP3   OH237708   4.652   2.256  16.468 -0.6873  0.9396  0.5849
 5406TIP3    H137709   4.681   2.171  16.501 -1.0960  0.3684 -0.4892
 5406TIP3    H237710   4.616   2.300  16.544 -1.3421 -0.2248  0.9645
 5407TIP3   OH237711   6.780   4.200  15.369  0.6147 -0.1395  0.0325
 5407TIP3    H137712   6.842   4.134  15.339  1.9685  0.5009  1.3709
 5407TIP3    H237713   6.757   4.249  15.290  1.6403 -0.5362 -0.5155
 5408TIP3   OH237714   4.495   4.975  13.103  0.4798 -0.2727  0.3413
 5408TIP3    H137715   4.456   5.058  13.076  1.5262  0.8574  2.1651
 5408TIP3    H237716   4.496   4.978  13.199  0.9254 -2.2096  0.4378
 5409TIP3   OH237717   5.864   0.853   4.116 -0.1641  0.2969  0.5178
 5409TIP3    H137718   5.890   0.805   4.195  2.4424  0.4274 -0.2100
 5409TIP3    H237719   5.848   0.785   4.051  1.1109  0.2928  0.1908
 5410TIP3   OH237720   1.045   4.034  13.768  0.3050  0.6271  0.0551
 5410TIP3    H137721   1.069   4.002  13.681 -0.4892 -0.1607  0.1109
 5410TIP3    H237722   1.107   4.103  13.787  0.6869  0.5790 -1.0120
 5411TIP3   OH237723   4.590   3.348   0.090  0.1022 -0.3148 -0.6138
 5411TIP3    H137724   4.554   3.424   0.045 -0.2313  0.6185  1.1743
 5411TIP3    H237725   4.644   3.385   0.160  1.7611 -1.7177 -1.1094
 5412TIP3   OH237726   0.752   4.950   1.388  0.4511 -0.1772  0.3822
 5412TIP3    H137727   0.703   5.031   1.403  2.0318  1.0284 -0.6902
 5412TIP3    H237728   0.799   4.935   1.469 -1.4398 -1.2011  1.3259
 5413TIP3   OH237729   1.619   0.847  16.081  0.3368 -0.0225  0.0394
 5413TIP3    H137730   1.620   0.786  16.008 -0.1034 -0.0386  0.0453
 5413TIP3    H237731   1.706   0.888  16.079 -0.1766  1.0561 -1.4071
 5414TIP3   OH237732   5.914   0.598  14.634 -0.6023  0.1609 -0.5179
 5414TIP3    H137733   5.920   0.522  14.576  0.2643 -0.5026  0.4246
 5414TIP3    H237734   5.999   0.603  14.677 -2.1471 -1.1389  2.8681
 5415TIP3   OH237735   3.979   2.556   2.988  0.0932 -0.1762 -0.0729
 5415TIP3    H137736   3.943   2.613   2.920  0.1832 -1.0097 -0.8198
 5415TIP3    H237737   3.942   2.470   2.970  2.0881 -0.9572 -0.5891
 5416TIP3   OH237738   0.010   3.850  10.972  0.6793  0.1743 -0.7345
 5416TIP3    H137739   0.003   3.883  10.883 -2.1444  1.7554  0.0101
 5416TIP3    H237740   0.005   3.929  11.027  0.9656 -0.8944  0.8639
 5417TIP3   OH237741   3.737   5.953   3.435 -0.0557  0.0763  0.0100
 5417TIP3    H137742   3.724   5.992   3.349 -0.5352  0.4206  0.2367
 5417TIP3    H237743   3.823   5.912   3.430  0.0027  0.2649 -0.5673
 5418TIP3   OH237744   1.646   1.660   0.620 -0.3402  0.1126  0.0805
 5418TIP3    H137745   1.610   1.590   0.674 -0.3590 -0.7710 -1.0660
 5418TIP3    H237746   1.651   1.735   0.679  0.5543 -1.0950  1.5672
 5419TIP3   OH237747   3.306   2.083  14.525  0.4010  0.3650  0.4819
 5419TIP3    H137748   3.312   1.988  14.518 -1.1219  0.2601  0.2484
 5419TIP3    H237749   3.263   2.110  14.444  1.1789  1.3001  0.3732
 5420TIP3   OH237750   1.431   6.402   4.329 -0.2180 -0.1361 -0.0437
 5420TIP3    H137751   1.361   6.367   4.384  1.2101 -1.4688  0.9577
 5420TIP3    H237752   1.415   6.496   4.326 -0.5466 -0.0900  2.3309
 5421TIP3   OH237753   4.368   6.146  13.304 -0.4336 -0.2122  0.5772
 5421TIP3    H137754   4.295   6.180  13.356 -0.3110  1.5107 -0.3286
 5421TIP3    H237755   4.380   6.211  13.235  3.2244  0.5466  1.8267
 5422TIP3   OH237756   0.410   4.621  12.738  0.3844  0.2897 -0.0268
 5422TIP3    H137757   0.385   4.547  12.684  0.0940  0.2647  0.1375
 5422TIP3    H237758   0.381   4.698  12.689 -0.4874  0.2425  0.3958
 5423TIP3   OH237759   2.576   5.626   2.505 -0.4686 -0.5814 -0.1893
 5423TIP3    H137760   2.518   5.684   2.554  0.9054  0.6006  0.0755
 5423TIP3    H237761   2.527   5.603   2.427 -0.9885  1.0663 -0.3689
 5424TIP3   OH237762   3.918   1.175  14.351  0.0038  0.8407 -0.1738
 5424TIP3    H137763   3.890   1.247  14.295  1.3445  1.7888  0.3480
 5424TIP3    H237764   3.899   1.096  14.300  0.4624  1.6501 -1.6445
 5425TIP3   OH237765   4.921   5.749   4.496 -0.3513 -0.6652  0.0549
 5425TIP3    H137766   4.985   5.741   4.567  0.0760 -0.9060 -0.3540
 5425TIP3    H237767   4.945   5.830   4.451  0.2490 -1.2379 -0.6666
 5426TIP3   OH237768   3.675   3.099   5.850 -0.1562 -0.5006 -0.0317
 5426TIP3    H137769   3.768   3.119   5.854 -0.8633  3.2360 -1.0011
 5426TIP3    H237770   3.664   3.055   5.765  0.6386 -0.6374 -0.0704
 5427TIP3   OH237771   1.068   1.779  12.416 -0.0015  0.4434 -0.2667
 5427TIP3    H137772   1.099   1.866  12.440  2.6470 -0.8857  1.2745
 5427TIP3    H237773   1.023   1.747  12.494 -0.2070  0.0900 -0.5279
 5428TIP3   OH237774   4.929   4.279   4.651  0.3054  0.2287  0.0574
 5428TIP3    H137775   4.879   4.338   4.594 -0.3132 -1.2468 -0.9456
 5428TIP3    H237776   4.990   4.235   4.592 -1.3836 -2.4464  0.2531
 5429TIP3   OH237777   1.449   3.300   3.539  0.3628 -0.1483  0.0962
 5429TIP3    H137778   1.466   3.391   3.563  0.5861 -0.9665  3.2030
 5429TIP3    H237779   1.382   3.306   3.470 -0.0390  2.3237  0.6393
 5430TIP3   OH237780   2.530   5.598  15.391 -0.7480 -0.0094  0.2056
 5430TIP3    H137781   2.511   5.513  15.350 -0.4037  0.3101 -0.6403
 5430TIP3    H237782   2.578   5.576  15.471 -2.2731 -0.6881  0.9488
 5431TIP3   OH237783   2.341   3.578   3.816 -0.4883 -1.0327  0.1691
 5431TIP3    H137784   2.435   3.563   3.824 -0.7297 -1.4051  2.6589
 5431TIP3    H237785   2.334   3.652   3.756  1.5046  0.4503  1.6733
 5432TIP3   OH237786   6.324   4.184   3.175  0.1165 -0.3154 -0.2335
 5432TIP3    H137787   6.293   4.274   3.161  0.1195 -0.1282  0.9769
 5432TIP3    H237788   6.419   4.190   3.163  0.3536  0.2263  1.6907
 5433TIP3   OH237789   0.217   6.223   1.778 -0.1088 -0.0962 -0.0710
 5433TIP3    H137790   0.155   6.286   1.742 -0.3584 -1.3058 -1.8296
 5433TIP3    H237791   0.162   6.153   1.813  0.1727  0.5254  1.6889
 5434TIP3   OH237792   4.324   5.239   0.748  0.3193  0.9552  0.3453
 5434TIP3    H137793   4.376   5.294   0.689 -0.9864  1.6802 -0.1340
 5434TIP3    H237794   4.264   5.299   0.791  1.8355  0.5838  3.1073
 5435TIP3   OH237795   0.420   4.541  11.168 -0.5529 -0.3504  0.0320
 5435TIP3    H137796   0.345   4.510  11.117 -0.3449 -0.2511 -0.3362
 5435TIP3    H237797   0.496   4.519  11.114 -0.4755  1.9897 -0.8563
 5436TIP3   OH237798   1.454   2.714   2.049  0.6092  0.0092  0.6845
 5436TIP3    H137799   1.489   2.654   1.982  0.6291 -0.7595  1.3792
 5436TIP3    H237800   1.359   2.702   2.045  0.3233  2.5692 -1.6496
 5437TIP3   OH237801   3.217   4.572  15.357  0.3655 -0.2956 -0.4770
 5437TIP3    H137802   3.135   4.616  15.336  0.0694 -0.3118  0.6011
 5437TIP3    H237803   3.209   4.484  15.319 -0.8789 -0.9249  1.1948
 5438TIP3   OH237804   1.897   2.122   5.054  0.3257 -0.0270 -0.3714
 5438TIP3    H137805   1.884   2.141   5.147  0.8499  0.0681 -0.3143
 5438TIP3    H237806   1.809   2.119   5.017  0.1267  0.1466  0.0862
 5439TIP3   OH237807   5.326   5.315  15.932 -0.3137  0.5489 -0.0229
 5439TIP3    H137808   5.256   5.302  15.869 -0.6560 -0.0236  0.4672
 5439TIP3    H237809   5.403   5.276  15.891 -0.4980  0.3344 -0.1701
 5440TIP3   OH237810   2.486   3.998  14.708 -0.1101 -0.2911  0.5860
 5440TIP3    H137811   2.546   4.031  14.776  0.7822 -1.2747  0.2937
 5440TIP3    H237812   2.470   3.907  14.733  0.7118 -0.8491 -0.8386
 5441TIP3   OH237813   0.313   5.566   3.863 -0.0580  0.0936  0.4424
 5441TIP3    H137814   0.362   5.560   3.781 -1.2117 -0.0556 -0.2369
 5441TIP3    H237815   0.351   5.498   3.919 -1.0132 -1.5720 -0.8908
 5442TIP3   OH237816   2.323   2.668  14.326  0.7217  0.4292  0.0503
 5442TIP3    H137817   2.273   2.628  14.398  1.1019  0.8174  0.5354
 5442TIP3    H237818   2.268   2.741  14.296  0.5281  0.2198 -0.1058
 5443TIP3   OH237819   0.367   5.409  17.193 -0.5126  0.0860  0.6309
 5443TIP3    H137820   0.393   5.334  17.139  0.0885 -0.0394  1.0857
 5443TIP3    H237821   0.448   5.436  17.237 -0.6922  1.0932  0.3642
 5444TIP3   OH237822   0.907   1.043   4.884 -0.6617  0.1342  0.2193
 5444TIP3    H137823   0.972   1.036   4.954 -0.3141 -1.0317 -0.2084
 5444TIP3    H237824   0.952   1.010   4.806 -1.9321 -1.2029  0.0304
 5445TIP3   OH237825   1.215   1.405  13.436 -0.7271 -0.3661  0.0423
 5445TIP3    H137826   1.159   1.482  13.423 -0.5916 -0.4106 -0.8250
 5445TIP3    H237827   1.295   1.440  13.476 -1.1527 -0.2223  0.7621
 5446TIP3   OH237828   2.874   0.343   3.937  0.0960 -0.3018  0.1176
 5446TIP3    H137829   2.841   0.253   3.927 -0.1973 -0.1146 -0.6364
 5446TIP3    H237830   2.836   0.373   4.020 -0.0180 -0.7853  0.2420
 5447TIP3   OH237831   1.083   0.276  13.705  0.5387 -0.4026  0.2284
 5447TIP3    H137832   1.007   0.265  13.763  0.0584  1.4694 -0.0066
 5447TIP3    H237833   1.120   0.188  13.697 -1.4451 -1.2947  0.5567
 5448TIP3   OH237834   5.122   0.501  14.699 -0.2637  0.3138 -0.1712
 5448TIP3    H137835   5.029   0.481  14.685 -0.4872 -0.1655  1.8111
 5448TIP3    H237836   5.168   0.420  14.679 -0.3135  0.4255 -0.7418
 5449TIP3   OH237837   3.691   0.876  15.928  0.7005 -0.0531 -0.1976
 5449TIP3    H137838   3.747   0.802  15.951 -1.0844 -1.6442 -0.9446
 5449TIP3    H237839   3.702   0.887  15.834 -1.8920 -1.7949 -0.7498
 5450TIP3   OH237840   2.836   2.973   4.356 -0.0995 -0.0609  0.2141
 5450TIP3    H137841   2.793   3.025   4.288  1.1902  1.3437  0.4434
 5450TIP3    H237842   2.841   3.031   4.431  1.8239 -0.3218  0.3142
 5451TIP3   OH237843   4.822   2.886  15.405 -0.1501 -0.4080  0.3288
 5451TIP3    H137844   4.734   2.916  15.426 -2.2175 -4.6589 -1.7073
 5451TIP3    H237845   4.833   2.905  15.312  0.5020 -1.1868  0.2329
 5452TIP3   OH237846   2.620   1.856  15.632  0.0079 -0.2784 -0.3325
 5452TIP3    H137847   2.564   1.809  15.694  1.3174 -1.1317  0.2247
 5452TIP3    H237848   2.584   1.945  15.632 -3.2885 -1.5080 -2.3730
 5453TIP3   OH237849   4.041   4.594  13.110 -0.0068 -0.1094 -0.0916
 5453TIP3    H137850   4.058   4.687  13.094 -0.6182  0.0199  0.0111
 5453TIP3    H237851   3.947   4.589  13.127 -0.2595 -0.9436 -1.5558
 5454TIP3   OH237852   6.528   6.405  13.216  0.1853  0.5883 -0.0894
 5454TIP3    H137853   6.440   6.430  13.244  0.4272 -1.4021  2.5867
 5454TIP3    H237854   6.580   6.485  13.225 -1.5618  2.1535 -2.9818
 5455TIP3   OH237855   2.934   0.104   4.643 -0.2855 -0.0504  0.5946
 5455TIP3    H137856   2.882   0.040   4.692 -0.2477  0.0058  0.7083
 5455TIP3    H237857   3.024   0.087   4.668 -0.0076 -1.6549 -1.3293
 5456TIP3   OH237858   2.121   1.717  12.206  0.0433 -0.0746  0.1892
 5456TIP3    H137859   2.214   1.735  12.196  0.0569  0.0293  0.4911
 5456TIP3    H237860   2.086   1.795  12.250 -0.3262  0.2232 -0.6092
 5457TIP3   OH237861   1.770   3.823  14.341  0.3775 -0.1747 -0.4601
 5457TIP3    H137862   1.744   3.739  14.379  0.0160 -0.6099 -1.6534
 5457TIP3    H237863   1.824   3.864  14.409  1.7881 -1.9936 -0.4558
 5458TIP3   OH237864   1.700   5.229   3.327  0.0044  0.0730  0.0198
 5458TIP3    H137865   1.616   5.273   3.314 -0.4168 -0.0604  2.0988
 5458TIP3    H237866   1.689   5.143   3.284  0.3358  1.3658 -2.7786
 5459TIP3   OH237867   2.621   6.756   1.071 -0.3966 -0.5287 -0.3479
 5459TIP3    H137868   2.685   6.810   1.118 -1.6793  0.6500  0.0921
 5459TIP3    H237869   2.641   6.770   0.979  1.2410 -1.7504 -0.2085
 5460TIP3   OH237870   4.802   3.797  10.710 -0.1642 -0.3840  0.3718
 5460TIP3    H137871   4.717   3.794  10.667 -1.5349  2.4064  2.7267
 5460TIP3    H237872   4.865   3.813  10.639 -1.7423 -1.0897 -1.2056
 5461TIP3   OH237873   1.178   4.042   4.008  0.6742 -0.2057  0.1000
 5461TIP3    H137874   1.098   4.095   4.011  0.0248 -1.1571 -0.1802
 5461TIP3    H237875   1.247   4.101   4.037 -0.1061  0.6784  0.1790
 5462TIP3   OH237876   6.596   0.221   0.418  1.1487 -0.8358 -0.0173
 5462TIP3    H137877   6.641   0.143   0.386 -0.6574 -2.4217  1.1605
 5462TIP3    H237878   6.546   0.190   0.494 -1.0461  1.0575 -0.6318
 5463TIP3   OH237879   6.021   3.054  11.686  0.6265  0.1075 -0.9602
 5463TIP3    H137880   6.110   3.065  11.720  1.0415 -1.5270 -1.4414
 5463TIP3    H237881   5.998   2.963  11.708 -0.9252  0.5201 -0.8357
 5464TIP3   OH237882   0.435   4.521   2.505  0.2241 -0.1659 -0.3735
 5464TIP3    H137883   0.358   4.465   2.491  1.8351 -2.1730 -1.4902
 5464TIP3    H237884   0.458   4.507   2.597 -0.7987  0.5132 -0.0110
 5465TIP3   OH237885   2.312   3.149   5.537  0.0030 -0.8603  0.2647
 5465TIP3    H137886   2.402   3.160   5.569  0.7422 -1.7153 -1.4232
 5465TIP3    H237887   2.266   3.106   5.610  1.0550 -0.7312  1.0225
 5466TIP3   OH237888   0.600   3.724  14.390 -0.7015 -0.1660  0.0604
 5466TIP3    H137889   0.541   3.649  14.388  0.1791 -0.9213  1.3393
 5466TIP3    H237890   0.674   3.698  14.335 -1.8820  1.0768 -2.1568
 5467TIP3   OH237891   2.571   0.426  16.162  0.2010  0.4297 -0.3087
 5467TIP3    H137892   2.644   0.366  16.179  0.2024  0.4475 -0.2506
 5467TIP3    H237893   2.545   0.408  16.071 -0.7788 -0.7311  0.1810
 5468TIP3   OH237894   6.481   3.699   1.233 -0.3328  0.3426 -0.0797
 5468TIP3    H137895   6.577   3.690   1.234 -0.2598  1.1518  0.4163
 5468TIP3    H237896   6.449   3.609   1.243  0.3910  0.2942  2.2046
 5469TIP3   OH237897   3.164   6.348   2.498 -1.2216  0.1092 -0.3592
 5469TIP3    H137898   3.116   6.268   2.520 -0.1385 -0.1297  1.2031
 5469TIP3    H237899   3.164   6.351   2.403 -2.0402 -1.2779 -0.4155
 5470TIP3   OH237900   0.539   4.329   1.381 -0.5447 -0.1663 -0.5847
 5470TIP3    H137901   0.616   4.386   1.375  0.4085 -1.5224 -1.5203
 5470TIP3    H237902   0.569   4.245   1.347 -2.1611 -1.0058  0.0293
 5471TIP3   OH237903   2.966   5.599  12.838 -0.2729  0.3476  0.1141
 5471TIP3    H137904   2.900   5.575  12.773  0.6982 -1.2975 -0.3094
 5471TIP3    H237905   3.035   5.533  12.827  0.0052  0.1472  2.6616
 5472TIP3   OH237906   3.890   2.199   1.054  0.5829 -0.1172 -0.5263
 5472TIP3    H137907   3.821   2.132   1.055  1.0147 -0.6287 -2.3306
 5472TIP3    H237908   3.853   2.270   1.002  1.0401  0.0211 -0.6646
 5473TIP3   OH237909   5.681   5.081  13.100  0.4860 -0.0393 -0.2055
 5473TIP3    H137910   5.636   5.114  13.178  0.8369 -0.5699  0.2258
 5473TIP3    H237911   5.648   4.992  13.089  0.5910 -0.0359 -0.5438
 5474TIP3   OH237912   4.422   3.358   5.105  0.2066  0.3225 -0.1848
 5474TIP3    H137913   4.411   3.387   5.196 -1.3823 -0.8057  0.0074
 5474TIP3    H237914   4.407   3.264   5.108 -0.0772  0.3084 -1.6678
 5475TIP3   OH237915   0.322   6.180  12.248 -0.5924 -0.3306 -0.4801
 5475TIP3    H137916   0.327   6.263  12.295 -1.5768 -1.2391  1.2923
 5475TIP3    H237917   0.392   6.185  12.183  1.5993  0.5364  1.8380
 5476TIP3   OH237918   0.756   3.057   1.435  0.1607  0.3086  0.5185
 5476TIP3    H137919   0.772   2.977   1.385  0.2363  0.4473  0.3226
 5476TIP3    H237920   0.840   3.103   1.435  0.6246 -0.5011  2.2137
 5477TIP3   OH237921   2.622   0.837  14.657  0.1178 -0.0390 -0.1065
 5477TIP3    H137922   2.584   0.751  14.641 -0.0395  0.0971 -0.4708
 5477TIP3    H237923   2.698   0.841  14.600  0.8548 -0.4224  0.8368
 5478TIP3   OH237924   2.772   1.888  12.378 -0.4552  0.5453 -1.1859
 5478TIP3    H137925   2.822   1.967  12.400 -0.9189  0.4427  0.3039
 5478TIP3    H237926   2.681   1.914  12.388 -0.6523  0.1640 -1.9367
 5479TIP3   OH237927   4.552   4.425  14.784 -0.0882 -0.2215  0.1359
 5479TIP3    H137928   4.462   4.457  14.796 -0.9685 -3.2117  2.2609
 5479TIP3    H237929   4.572   4.442  14.692 -2.1102  2.2149  0.1013
 5480TIP3   OH237930   0.265   6.455  13.880 -0.1779  0.9780  0.1273
 5480TIP3    H137931   0.224   6.486  13.800 -1.4830 -0.6231  0.1513
 5480TIP3    H237932   0.300   6.534  13.921 -0.5179  1.9588 -1.4272
 5481TIP3   OH237933   2.210   5.781  16.236  0.7203 -0.1508  0.2006
 5481TIP3    H137934   2.282   5.741  16.186  0.6651  1.6667 -1.4053
 5481TIP3    H237935   2.252   5.848  16.290  0.1301  1.9264 -1.8206
 5482TIP3   OH237936   4.371   5.782  15.962  0.0930 -0.0221  0.2547
 5482TIP3    H137937   4.461   5.774  15.992  0.0315  0.1899  0.5028
 5482TIP3    H237938   4.345   5.693  15.940  0.1983 -0.1561  0.6674
 5483TIP3   OH237939   2.737   1.746  16.036 -0.2399  0.2714  0.0628
 5483TIP3    H137940   2.817   1.701  16.012 -0.3329 -0.8086  1.7954
 5483TIP3    H237941   2.700   1.696  16.109 -1.4571  1.8834  0.6002
 5484TIP3   OH237942   2.705   0.881   0.943 -0.4355 -0.4030  0.2935
 5484TIP3    H137943   2.753   0.963   0.956 -2.8570  0.9751  0.8969
 5484TIP3    H237944   2.746   0.820   1.004  2.1702 -0.0089 -1.0053
 5485TIP3   OH237945   6.718   6.523   4.979 -0.1154  0.6089 -0.0626
 5485TIP3    H137946   6.728   6.596   4.917 -1.5396  1.2692  0.4484
 5485TIP3    H237947   6.774   6.454   4.944  2.3795  2.4351  0.2413
 5486TIP3   OH237948   2.946   1.423  11.995 -0.1830  0.0232  0.0752
 5486TIP3    H137949   3.035   1.400  11.968  1.1187  2.1349  2.3305
 5486TIP3    H237950   2.942   1.518  11.985 -2.0882 -0.0191  0.2843
 5487TIP3   OH237951   0.100   4.815   3.122 -0.0611 -0.3114  0.0941
 5487TIP3    H137952   0.195   4.812   3.108  0.0318  1.9877  0.0176
 5487TIP3    H237953   0.086   4.892   3.177 -2.0233  0.2752 -1.1653
 5488TIP3   OH237954   2.088   0.901   3.372 -0.6979  0.0842  0.1754
 5488TIP3    H137955   2.006   0.912   3.420 -2.3361 -0.1885 -2.4953
 5488TIP3    H237956   2.061   0.884   3.282  2.2779 -1.3982 -0.4782
 5489TIP3   OH237957   1.632   5.340   3.719 -0.6054 -0.4471  0.1329
 5489TIP3    H137958   1.607   5.326   3.627 -1.1142 -0.5354  0.2830
 5489TIP3    H237959   1.725   5.361   3.715 -1.0527  1.4956 -0.5847
 5490TIP3   OH237960   4.277   0.024  16.567  0.1691 -0.0536  0.1462
 5490TIP3    H137961   4.333   0.049  16.494  0.7849 -2.8492 -0.3868
 5490TIP3    H237962   4.216   0.097  16.576  1.1237  1.0785 -2.0997
 5491TIP3   OH237963   6.562   1.838   4.451 -0.0573  0.1099  0.1738
 5491TIP3    H137964   6.616   1.864   4.526  0.0794 -0.8904  0.4399
 5491TIP3    H237965   6.480   1.808   4.490 -0.2269  0.1919 -0.1211
 5492TIP3   OH237966   2.517   0.307  12.260  0.1612  0.0937  0.8739
 5492TIP3    H137967   2.566   0.229  12.235 -1.0789 -0.6350  0.6557
 5492TIP3    H237968   2.580   0.379  12.252  1.2212 -0.8384  0.7600
 5493TIP3   OH237969   1.156   0.796   6.011 -0.0125  0.2328  0.0446
 5493TIP3    H137970   1.236   0.843   6.037 -0.7419  1.0190  0.8790
 5493TIP3    H237971   1.097   0.805   6.086 -0.1632 -2.0364  0.2163
 5494TIP3   OH237972   0.694   0.418   4.958 -0.0666  0.1611  0.7552
 5494TIP3    H137973   0.648   0.338   4.985  0.2724  0.1944  1.4422
 5494TIP3    H237974   0.638   0.489   4.990  0.1275  0.1997  1.0112
 5495TIP3   OH237975   4.847   5.077  16.236 -0.1439  0.0130 -0.2223
 5495TIP3    H137976   4.939   5.098  16.248 -0.1197  0.1777 -0.6622
 5495TIP3    H237977   4.836   5.070  16.141 -0.9467  1.6850 -0.2867
 5496TIP3   OH237978   2.089   5.380  13.961  0.1912 -0.0029 -0.8707
 5496TIP3    H137979   2.160   5.436  13.991  0.7261 -0.6669 -0.8856
 5496TIP3    H237980   2.010   5.434  13.970  0.2965 -0.2305  1.8744
 5497TIP3   OH237981   6.081   4.769   3.164 -0.4189 -0.3840  0.9807
 5497TIP3    H137982   6.115   4.811   3.243  1.1808 -1.1320  0.7109
 5497TIP3    H237983   6.154   4.719   3.130 -0.6015  1.1739 -1.8702
 5498TIP3   OH237984   3.826   1.514   5.040 -0.3421  0.3361  0.0899
 5498TIP3    H137985   3.859   1.599   5.068  0.2098  0.0764  0.2266
 5498TIP3    H237986   3.762   1.535   4.972 -0.4516  0.8758  0.3533
 5499TIP3   OH237987   3.182   4.924  16.532 -0.1366 -0.9112 -0.1033
 5499TIP3    H137988   3.226   4.974  16.600 -2.1319  0.3246  0.3097
 5499TIP3    H237989   3.229   4.946  16.452 -1.5515  2.4026 -0.0900
 5500TIP3   OH237990   5.505   0.624   2.416  0.4643  0.5612  0.2344
 5500TIP3    H137991   5.594   0.617   2.381  0.8988 -0.9081  1.5869
 5500TIP3    H237992   5.456   0.557   2.368  0.2405  0.8941 -0.0057
 5501TIP3   OH237993   6.010   6.709   3.731  0.5586 -0.0077  0.1833
 5501TIP3    H137994   5.970   6.622   3.724 -1.3693  0.8463  0.3840
 5501TIP3    H237995   5.979   6.743   3.815  2.8395  0.1235  0.9902
 5502TIP3   OH237996   5.835   6.228  10.979 -0.5375 -0.0835 -0.3618
 5502TIP3    H137997   5.924   6.259  10.996 -0.9198  0.5212  0.5500
 5502TIP3    H237998   5.828   6.147  11.030 -0.3226 -0.4402 -0.8912
 5503TIP3   OH237999   1.940   2.519   1.127  0.0821 -0.4089  0.1125
 5503TIP3    H138000   1.856   2.497   1.166 -0.7957  0.0561 -1.4945
 5503TIP3    H238001   1.954   2.611   1.148 -1.5388  0.5303 -2.6463
 5504TIP3   OH238002   5.982   5.156  15.859  0.0462  0.2515  0.0191
 5504TIP3    H138003   5.993   5.082  15.918 -2.2356 -0.8386 -0.8748
 5504TIP3    H238004   5.898   5.194  15.883  0.4913  1.6540 -0.5448
 5505TIP3   OH238005   4.634   4.369  16.331 -0.1220 -0.8055 -0.4202
 5505TIP3    H138006   4.694   4.418  16.387  1.0432 -0.6440 -1.7567
 5505TIP3    H238007   4.547   4.391  16.363  0.5409 -1.7521  2.1642
 5506TIP3   OH238008   0.094   4.062   4.522 -0.3087  0.1626  0.1165
 5506TIP3    H138009   0.161   4.123   4.490 -2.2188  1.7532 -0.9222
 5506TIP3    H238010   0.107   3.983   4.468  0.7888  0.4288 -0.0146
 5507TIP3   OH238011   0.221   4.614  16.208  0.4242  0.5434  0.5896
 5507TIP3    H138012   0.165   4.679  16.251 -0.9127 -0.7913  0.9363
 5507TIP3    H238013   0.160   4.564  16.152  1.2838 -0.8939  0.9235
 5508TIP3   OH238014   0.978   4.473   6.754 -0.1007  0.5281 -0.8278
 5508TIP3    H138015   0.902   4.500   6.805  0.1913  2.0196 -1.1568
 5508TIP3    H238016   1.046   4.458   6.819  0.0402  1.6439 -0.7096
 5509TIP3   OH238017   4.491   1.376   5.154  0.2272 -0.8362 -0.0575
 5509TIP3    H138018   4.546   1.422   5.091  0.0053 -2.4273 -1.4521
 5509TIP3    H238019   4.548   1.362   5.230  0.5597  0.9001  0.0260
 5510TIP3   OH238020   5.213   3.395   3.695 -0.7075 -0.3047  0.3975
 5510TIP3    H138021   5.283   3.404   3.760  0.0477  1.1919 -0.5873
 5510TIP3    H238022   5.136   3.433   3.737 -0.3401  0.2240  0.6023
 5511TIP3   OH238023   1.321   2.924  15.647 -0.1783 -0.1710 -0.3926
 5511TIP3    H138024   1.415   2.910  15.633 -0.1830  0.3627 -0.9785
 5511TIP3    H238025   1.281   2.904  15.562 -0.7207 -1.5216  0.1776
 5512TIP3   OH238026   3.033   5.510  13.093  0.3181 -0.2876 -0.1239
 5512TIP3    H138027   3.110   5.564  13.111 -0.1545  0.0152  1.0356
 5512TIP3    H238028   2.984   5.558  13.026  0.7600 -0.1106 -0.3162
 5513TIP3   OH238029   2.687   5.971  14.320  0.1109  0.7131  0.3778
 5513TIP3    H138030   2.641   6.031  14.379 -0.9847  1.9097 -1.6443
 5513TIP3    H238031   2.642   5.980  14.236 -0.0852 -2.9502  0.0065
 5514TIP3   OH238032   5.510   6.152  11.987 -0.5190  0.2836  0.1877
 5514TIP3    H138033   5.534   6.242  11.964  0.0085  0.2537  0.6113
 5514TIP3    H238034   5.494   6.154  12.081 -0.9075  0.0201  0.1286
 5515TIP3   OH238035   0.409   3.601   2.534  0.1001  0.0841  0.1306
 5515TIP3    H138036   0.393   3.526   2.591  0.7829  1.2975  1.9618
 5515TIP3    H238037   0.375   3.676   2.583  3.2694  1.5360  0.2823
 5516TIP3   OH238038   3.197   0.397  17.252  0.5661 -0.3256 -0.0012
 5516TIP3    H138039   3.248   0.450  17.313 -0.0485  1.9673 -1.3865
 5516TIP3    H238040   3.255   0.325  17.228  1.8397  0.3135  1.1052
 5517TIP3   OH238041   3.399   3.673   6.629 -0.2952 -0.1749  0.3465
 5517TIP3    H138042   3.456   3.693   6.555 -2.1082 -0.3325 -1.1267
 5517TIP3    H238043   3.359   3.757   6.652 -1.2907 -0.4978 -0.1900
 5518TIP3   OH238044   3.394   6.269  14.197 -0.1654  0.0932  0.1092
 5518TIP3    H138045   3.390   6.173  14.189  1.2966  0.0916 -0.6705
 5518TIP3    H238046   3.475   6.286  14.244  2.6265  1.1875 -4.8431
 5519TIP3   OH238047   4.655   2.968   0.131  0.0338  0.2138 -0.2531
 5519TIP3    H138048   4.708   3.047   0.118 -0.5609  0.6668  0.0414
 5519TIP3    H238049   4.711   2.910   0.183 -0.9500  1.9911  2.9417
 5520TIP3   OH238050   1.164   0.608   4.639 -0.3941  0.2992  0.3582
 5520TIP3    H138051   1.240   0.651   4.678 -0.6294  0.0869  1.0678
 5520TIP3    H238052   1.120   0.566   4.713 -1.2226  0.4602 -0.0354
 5521TIP3   OH238053   0.466   3.142   5.146 -0.4427 -0.3342  0.0546
 5521TIP3    H138054   0.371   3.151   5.135 -0.1486  0.4557 -1.9931
 5521TIP3    H238055   0.475   3.080   5.219 -2.5222 -0.0192  0.6256
 5522TIP3   OH238056   4.911   5.532  12.365  0.8143 -0.7330 -1.4105
 5522TIP3    H138057   4.925   5.524  12.459 -0.9516  1.8486 -0.8693
 5522TIP3    H238058   4.998   5.546  12.328  1.2498  0.6983  0.1341
 5523TIP3   OH238059   5.401   6.452  14.165 -0.1782  0.6655  0.2344
 5523TIP3    H138060   5.484   6.425  14.202 -0.7545 -0.5147  0.6708
 5523TIP3    H238061   5.414   6.545  14.144  2.2193 -0.2128 -2.4700
 5524TIP3   OH238062   6.519   4.529  11.152  0.1668 -0.2000  0.6085
 5524TIP3    H138063   6.509   4.607  11.098 -0.5512 -0.7757 -0.0891
 5524TIP3    H238064   6.484   4.555  11.238  0.2008  0.3309  0.4619
 5525TIP3   OH238065   0.807   1.095  13.421 -0.0423 -0.1059  0.3866
 5525TIP3    H138066   0.741   1.162  13.406  1.8496  1.6236 -0.5437
 5525TIP3    H238067   0.877   1.140  13.468  0.1087 -2.1127  2.1155
 5526TIP3   OH238068   6.502   3.845   2.410 -0.3789 -0.0602  0.0937
 5526TIP3    H138069   6.509   3.845   2.314 -1.0888  0.8899  0.0375
 5526TIP3    H238070   6.439   3.914   2.429 -0.9426 -0.8734  1.2090
 5527TIP3   OH238071   0.581   5.646  12.429 -0.4113 -0.0898  0.0487
 5527TIP3    H138072   0.495   5.664  12.467 -0.1808  0.2033  0.4348
 5527TIP3    H238073   0.618   5.733  12.412 -0.1231 -0.2139  0.0371
 5528TIP3   OH238074   5.220   1.201   2.811  0.2899 -0.2589 -0.3185
 5528TIP3    H138075   5.168   1.150   2.750 -0.7464  0.8577 -0.3763
 5528TIP3    H238076   5.267   1.135   2.863 -0.9466 -1.2711 -0.4581
 5529TIP3   OH238077   4.749   2.601  12.017 -0.3454  0.1651  0.5828
 5529TIP3    H138078   4.659   2.591  11.984  0.3816 -1.4720 -0.9582
 5529TIP3    H238079   4.738   2.633  12.106 -2.5527 -2.6147  1.3893
 5530TIP3   OH238080   0.206   4.376  11.865 -0.1089 -0.3973 -0.2422
 5530TIP3    H138081   0.219   4.466  11.836  0.6371 -0.8781 -1.4693
 5530TIP3    H238082   0.111   4.365  11.870 -0.2071  0.2753 -0.6776
 5531TIP3   OH238083   6.280   5.733   1.558  0.3648 -0.4695  0.1935
 5531TIP3    H138084   6.288   5.815   1.509 -1.2375 -1.3433 -1.6331
 5531TIP3    H238085   6.347   5.676   1.521 -0.7342 -1.0748 -0.8924
 5532TIP3   OH238086   6.219   5.689   4.142  0.1529 -0.1069 -0.2829
 5532TIP3    H138087   6.139   5.666   4.095  0.0253 -1.2051  0.4363
 5532TIP3    H238088   6.290   5.659   4.084  0.0167 -0.2300 -0.3880
 5533TIP3   OH238089   1.048   3.894  16.168 -0.1422  0.6294  0.3974
 5533TIP3    H138090   1.127   3.843  16.154  0.0310  0.7675  0.8849
 5533TIP3    H238091   1.064   3.977  16.123  1.6654  2.3092  3.9666
 5534TIP3   OH238092   3.771   4.130  12.167 -0.2391 -0.7310  0.6551
 5534TIP3    H138093   3.692   4.116  12.218  0.8988 -0.0861  2.6469
 5534TIP3    H238094   3.823   4.051  12.180 -0.4960 -1.1076 -0.5526
 5535TIP3   OH238095   0.063   5.467   6.082  0.2132 -0.0023  0.1669
 5535TIP3    H138096   0.030   5.500   6.166  2.3494  0.6211  0.7842
 5535TIP3    H238097   0.094   5.545   6.037  0.9620 -0.5922 -0.3438
 5536TIP3   OH238098   3.142   2.556  12.334  0.6938 -0.0524  0.3701
 5536TIP3    H138099   3.235   2.554  12.359  0.5371 -0.0242  0.9679
 5536TIP3    H238100   3.130   2.476  12.282  1.3282  0.5562 -0.7384
 5537TIP3   OH238101   4.082   6.697   6.488  0.2440 -0.1703  0.0107
 5537TIP3    H138102   4.013   6.677   6.551 -0.1862  0.2756 -0.3178
 5537TIP3    H238103   4.066   6.788   6.463  0.1490 -0.4798 -1.0665
 5538TIP3   OH238104   2.725   3.235   2.421  0.1614 -0.3540  0.6017
 5538TIP3    H138105   2.674   3.235   2.502 -2.7524 -1.5030 -1.1456
 5538TIP3    H238106   2.736   3.142   2.400  1.9678 -0.0814  0.3319
 5539TIP3   OH238107   2.543   6.363   5.421 -0.4629 -0.0109  0.5180
 5539TIP3    H138108   2.539   6.280   5.375 -0.0446 -0.2685  0.9405
 5539TIP3    H238109   2.514   6.428   5.357  2.7309  0.0045 -1.0105
 5540TIP3   OH238110   1.368   2.877   6.315 -0.1001  0.0635  0.5648
 5540TIP3    H138111   1.297   2.911   6.370  0.7789  0.4031  1.5089
 5540TIP3    H238112   1.380   2.787   6.345 -0.4486 -0.1485  0.0753
 5541TIP3   OH238113   0.451   3.120   2.824  0.0080  0.0356 -0.1052
 5541TIP3    H138114   0.384   3.055   2.842  1.0960 -1.3402 -0.9430
 5541TIP3    H238115   0.520   3.102   2.888  0.2946  0.3941 -0.3118
 5542TIP3   OH238116   3.420   6.687   4.638  0.2533 -0.0659 -0.0586
 5542TIP3    H138117   3.380   6.771   4.614 -0.2896  0.0200  1.0848
 5542TIP3    H238118   3.514   6.704   4.636  0.1359  1.2920  2.4857
 5543TIP3   OH238119   4.171   2.664   3.403 -0.2164 -0.2405 -0.4232
 5543TIP3    H138120   4.140   2.627   3.486 -1.3304  1.2803 -0.1461
 5543TIP3    H238121   4.140   2.601   3.337 -1.8637  0.0362  0.0667
 5544TIP3   OH238122   2.369   2.571   2.778 -0.2559  0.3080  0.2166
 5544TIP3    H138123   2.334   2.553   2.865 -0.2644  2.7285  0.7641
 5544TIP3    H238124   2.389   2.665   2.779  0.8650  0.1435 -1.9947
 5545TIP3   OH238125   4.820   1.175  12.482 -0.1578  0.4712  0.5029
 5545TIP3    H138126   4.905   1.147  12.447 -0.6052  0.1065 -0.3207
 5545TIP3    H238127   4.827   1.161  12.576  0.8292  0.8030  0.4852
 5546TIP3   OH238128   3.288   0.847  14.190  0.2162  0.1921  0.4980
 5546TIP3    H138129   3.355   0.798  14.236  0.3775  0.4657  0.5522
 5546TIP3    H238130   3.325   0.934  14.177  0.3361  0.0058 -0.5030
 5547TIP3   OH238131   3.807   4.329   3.946  0.6109  0.7541  0.1431
 5547TIP3    H138132   3.717   4.355   3.964  0.5190 -1.5310  3.3211
 5547TIP3    H238133   3.858   4.370   4.016  1.8229  0.5612 -0.6134
 5548TIP3   OH238134   1.671   6.758  11.181  0.5890  0.7970 -0.7377
 5548TIP3    H138135   1.578   6.771  11.158  0.6076  2.1030 -0.1398
 5548TIP3    H238136   1.669   6.697  11.254  0.0865  1.9334  0.2267
 5549TIP3   OH238137   0.450   4.036  14.381  0.2831 -0.1498  0.5192
 5549TIP3    H138138   0.397   3.989  14.316  0.6141  0.0489  0.1087
 5549TIP3    H238139   0.389   4.098  14.421  0.2050  0.0939  0.0298
 5550TIP3   OH238140   3.207   1.425   3.236  0.4022  0.2328 -0.1115
 5550TIP3    H138141   3.292   1.399   3.202  0.2322 -1.0770  0.4252
 5550TIP3    H238142   3.209   1.398   3.328 -0.6274  0.0757 -0.1268
 5551TIP3   OH238143   3.881   5.071  12.740  0.2321 -0.4420 -0.2626
 5551TIP3    H138144   3.917   4.991  12.779 -0.0732  0.1030  1.1708
 5551TIP3    H238145   3.943   5.139  12.762  0.0767 -0.1259 -0.7826
 5552TIP3   OH238146   6.397   1.097  14.530  0.1813  0.3084  0.2319
 5552TIP3    H138147   6.358   1.042  14.598 -0.8223 -1.2340 -1.5423
 5552TIP3    H238148   6.485   1.063  14.518  0.0182 -0.0724  0.0845
 5553TIP3   OH238149   1.839   1.453   2.815 -0.5284 -0.0906  0.3312
 5553TIP3    H138150   1.890   1.454   2.734  1.8518  2.9789  1.7803
 5553TIP3    H238151   1.833   1.360   2.838  3.2419 -0.6594 -0.6371
 5554TIP3   OH238152   6.731   2.623  10.460  0.2614  0.6435  0.8860
 5554TIP3    H138153   6.806   2.655  10.410  0.9996 -2.3370 -0.0420
 5554TIP3    H238154   6.766   2.550  10.512 -1.9962 -0.9148  0.3111
 5555TIP3   OH238155   5.622   3.024  16.376  0.2265  0.2363 -0.2840
 5555TIP3    H138156   5.714   3.001  16.362  0.5399  1.5055 -0.3438
 5555TIP3    H238157   5.585   3.031  16.288 -0.2606 -1.4929 -0.2546
 5556TIP3   OH238158   1.162   0.315   4.106  0.1722  0.4538  0.0517
 5556TIP3    H138159   1.237   0.329   4.164  2.1057  0.9250 -2.5009
 5556TIP3    H238160   1.127   0.403   4.091  0.7823  0.5359 -0.9219
 5557TIP3   OH238161   2.047   0.599   5.732  0.2961  0.4961  0.1506
 5557TIP3    H138162   2.131   0.555   5.723 -0.5787 -1.1895  0.1221
 5557TIP3    H238163   2.050   0.670   5.667  1.0800 -0.5382 -0.9541
 5558TIP3   OH238164   0.166   3.980  11.365 -0.6418 -0.6799 -0.9230
 5558TIP3    H138165   0.116   3.901  11.384  1.1249 -1.5502  0.3208
 5558TIP3    H238166   0.114   4.051  11.401 -0.1201 -1.7545  2.1558
 5559TIP3   OH238167   2.434   0.412  12.789  0.5985  0.3967  0.1019
 5559TIP3    H138168   2.527   0.406  12.810  0.8008  1.0937 -0.5616
 5559TIP3    H238169   2.425   0.367  12.705  0.4704  0.9568 -0.1906
 5560TIP3   OH238170   1.903   3.057   3.945 -0.0224 -0.4876 -0.0070
 5560TIP3    H138171   1.807   3.059   3.954 -0.1956  0.9739 -1.8562
 5560TIP3    H238172   1.931   3.143   3.975  0.5446 -0.2781 -1.1217
 5561TIP3   OH238173   2.732   0.205  12.105  0.0590  0.0267 -0.1986
 5561TIP3    H138174   2.813   0.223  12.153 -1.2373  0.2371  2.0077
 5561TIP3    H238175   2.715   0.112  12.122 -0.7954  0.2853  0.3689
 5562TIP3   OH238176   2.510   2.928  16.766  0.1671  0.0340  0.1464
 5562TIP3    H138177   2.547   2.973  16.842 -0.4061 -0.0007  0.4455
 5562TIP3    H238178   2.428   2.973  16.748  0.5808  0.4077 -0.8106
 5563TIP3   OH238179   6.675   2.301  11.719 -0.3632 -0.0229  0.0421
 5563TIP3    H138180   6.696   2.209  11.704 -0.7502 -0.2452  0.8343
 5563TIP3    H238181   6.711   2.347  11.643  1.2194 -0.6339  0.4119
 5564TIP3   OH238182   1.793   3.198  13.453  0.3813 -0.7643 -0.2125
 5564TIP3    H138183   1.795   3.103  13.447 -0.5562 -0.9872  2.4064
 5564TIP3    H238184   1.837   3.218  13.536 -2.2890  0.8724  0.8854
 5565TIP3   OH238185   4.983   0.189   0.787  0.2566  0.6002 -0.4321
 5565TIP3    H138186   4.948   0.125   0.849 -2.6359  1.6940 -0.8578
 5565TIP3    H238187   4.923   0.264   0.794  2.7639  2.7086 -0.9507
 5566TIP3   OH238188   3.643   4.833  12.324 -0.1020 -1.0487  0.0151
 5566TIP3    H138189   3.639   4.845  12.419 -2.7340 -0.7267 -0.1060
 5566TIP3    H238190   3.595   4.907  12.288  1.9775 -0.4626 -1.6655
 5567TIP3   OH238191   4.327   2.207   5.838  0.4952  0.3998 -0.0132
 5567TIP3    H138192   4.320   2.238   5.748 -1.4065  2.1534  0.6916
 5567TIP3    H238193   4.237   2.185   5.863  1.1516 -1.0847  1.1074
 5568TIP3   OH238194   0.726   3.890   1.772  0.0428 -0.2901 -0.2028
 5568TIP3    H138195   0.737   3.953   1.701  2.1688 -0.9863 -0.5208
 5568TIP3    H238196   0.764   3.808   1.738 -0.5611 -1.1134  1.0665
 5569TIP3   OH238197   6.275   2.928  16.815 -0.0163  0.5351 -0.1115
 5569TIP3    H138198   6.230   2.935  16.899  1.6182  1.9893  0.6886
 5569TIP3    H238199   6.300   3.018  16.794 -1.2777  0.3359 -2.6683
 5570TIP3   OH238200   3.688   2.033   1.819  0.0834  0.2735 -0.2077
 5570TIP3    H138201   3.703   2.103   1.882  1.3097  0.3636 -0.5797
 5570TIP3    H238202   3.742   1.960   1.850  0.2304  0.1163 -0.8236
 5571TIP3   OH238203   2.292   3.531  16.535 -0.2024  0.2661 -0.6856
 5571TIP3    H138204   2.341   3.489  16.465  0.2539 -0.3744 -0.0013
 5571TIP3    H238205   2.358   3.573  16.590 -0.4626 -0.1006 -0.0844
 5572TIP3   OH238206   0.942   0.385  13.356 -0.1414 -0.6796  0.3138
 5572TIP3    H138207   0.873   0.325  13.327 -0.0854 -0.3621 -0.4900
 5572TIP3    H238208   1.021   0.351  13.313 -0.1618  0.1432 -0.3848
 5573TIP3   OH238209   3.685   2.843  16.804 -0.5135 -0.1420 -0.4229
 5573TIP3    H138210   3.744   2.773  16.778  1.2507  0.1899  2.4296
 5573TIP3    H238211   3.719   2.921  16.759  1.6962  0.1730  1.6691
 5574TIP3   OH238212   1.592   2.715   1.690 -0.9051  0.3425 -0.2029
 5574TIP3    H138213   1.508   2.684   1.725  0.4247 -4.1589 -0.6958
 5574TIP3    H238214   1.576   2.724   1.596 -1.7265  2.8901  0.1348
 5575TIP3   OH238215   2.186   1.627   2.379  0.3913  0.5477 -0.6720
 5575TIP3    H138216   2.273   1.627   2.418  0.4677 -0.6127 -0.7965
 5575TIP3    H238217   2.200   1.657   2.289  0.5720  0.9670 -0.5008
 5576TIP3   OH238218   0.826   4.926  14.781 -0.3403  0.1058 -0.3102
 5576TIP3    H138219   0.824   5.007  14.831 -0.3199  0.0348 -0.1950
 5576TIP3    H238220   0.905   4.934  14.726 -0.1044 -0.0193  0.0081
 5577TIP3   OH238221   1.564   1.141   2.521 -0.2552 -0.5024 -0.0762
 5577TIP3    H138222   1.568   1.068   2.584  0.9841 -0.7276 -0.3990
 5577TIP3    H238223   1.528   1.101   2.441  0.0016 -0.6602 -0.1137
 5578TIP3   OH238224   2.940   4.841   4.770  0.1586 -0.5552 -0.0690
 5578TIP3    H138225   2.856   4.795   4.769 -0.5674  0.7804 -2.2633
 5578TIP3    H238226   2.975   4.829   4.682  2.3645 -1.2124  0.8691
 5579TIP3   OH238227   3.994   4.003   2.574  0.4180 -0.0193  0.1304
 5579TIP3    H138228   4.021   4.093   2.591  1.4590 -0.0463 -1.2868
 5579TIP3    H238229   4.076   3.955   2.560 -0.1328 -1.1546  0.6631
 5580TIP3   OH238230   3.603   4.144   3.120 -0.1380 -0.3574  0.1235
 5580TIP3    H138231   3.555   4.061   3.119  1.3403 -1.2221 -0.5299
 5580TIP3    H238232   3.609   4.166   3.213 -3.5879  0.8634  0.1260
 5581TIP3   OH238233   6.020   4.864   4.606 -0.0237 -0.0683  0.7700
 5581TIP3    H138234   5.928   4.892   4.607 -0.7516 -2.3545  0.8831
 5581TIP3    H238235   6.029   4.816   4.524  1.4980  1.3865  0.0447
 5582TIP3   OH238236   1.641   3.620  13.166 -0.1823 -0.0492 -0.0393
 5582TIP3    H138237   1.551   3.627  13.132 -0.5445  0.6116  1.0407
 5582TIP3    H238238   1.649   3.529  13.194 -0.1145 -0.4212 -1.2451
 5583TIP3   OH238239   1.423   1.665   3.591  0.2349 -0.2413 -0.1039
 5583TIP3    H138240   1.329   1.671   3.576  0.2738 -1.4622 -0.9250
 5583TIP3    H238241   1.444   1.572   3.580  2.1527  0.5189 -3.9513
 5584TIP3   OH238242   1.858   4.108  15.253  0.0185 -0.0648  0.2622
 5584TIP3    H138243   1.864   4.015  15.270 -0.5649 -0.5268 -1.8240
 5584TIP3    H238244   1.945   4.142  15.272  1.2774 -1.6797 -2.3341
 5585TIP3   OH238245   1.413   0.552  13.075 -0.6848 -0.0946  0.1610
 5585TIP3    H138246   1.500   0.588  13.096 -1.2440  1.6452 -0.4295
 5585TIP3    H238247   1.431   0.462  13.049  0.9158  0.1445  0.3503
 5586TIP3   OH238248   6.550   3.777  15.793  0.1374  0.5208 -0.2392
 5586TIP3    H138249   6.607   3.725  15.736  0.0457  2.1993 -1.9256
 5586TIP3    H238250   6.607   3.804  15.865  0.8785  0.3205 -0.7441
 5587TIP3   OH238251   2.359   6.308  14.164 -1.1507 -0.1473 -0.5535
 5587TIP3    H138252   2.375   6.373  14.232  0.3024 -0.6412 -0.4137
 5587TIP3    H238253   2.267   6.321  14.139 -1.6413  0.1415  1.3786
 5588TIP3   OH238254   3.153   4.306  16.206  0.3236  0.0595 -0.3853
 5588TIP3    H138255   3.221   4.239  16.215 -1.2431 -1.4061  0.7645
 5588TIP3    H238256   3.127   4.326  16.296 -2.4968 -1.1890 -0.8966
 5589TIP3   OH238257   5.322   2.064   4.032 -0.1185 -0.7095  0.3784
 5589TIP3    H138258   5.274   1.986   4.004 -1.3816 -0.8880  2.9163
 5589TIP3    H238259   5.255   2.132   4.037  0.6392  0.0651 -0.0313
 5590TIP3   OH238260   0.387   5.443  14.583 -0.0140  0.0226  0.4228
 5590TIP3    H138261   0.458   5.380  14.590  0.6278  0.7610  0.6324
 5590TIP3    H238262   0.318   5.397  14.533  0.2261 -1.0146  1.0434
 5591TIP3   OH238263   6.707   3.228   4.602  0.3328  0.8286 -0.1626
 5591TIP3    H138264   6.625   3.269   4.629 -1.4056 -3.1664  0.9823
 5591TIP3    H238265   6.694   3.206   4.510 -0.1502 -0.2974  0.1611
 5592TIP3   OH238266   2.278   3.396  13.474  0.4043  0.8852 -0.5573
 5592TIP3    H138267   2.337   3.322  13.462  1.1426  1.1904  1.0092
 5592TIP3    H238268   2.215   3.367  13.540  0.5816  1.5631 -0.0769
 5593TIP3   OH238269   4.449   1.377  14.932  0.0068  0.0422  0.1575
 5593TIP3    H138270   4.450   1.359  14.838  0.4699 -2.4815  0.6012
 5593TIP3    H238271   4.376   1.438  14.944  0.8008  1.4955 -1.9896
 5594TIP3   OH238272   1.778   5.978  12.395 -0.4678 -0.1914  0.5908
 5594TIP3    H138273   1.744   5.978  12.485  2.0603  2.7000  1.6333
 5594TIP3    H238274   1.825   5.895  12.387 -1.5120 -0.9027  1.5871
 5595TIP3   OH238275   1.073   3.459  12.684 -0.0394 -0.3721  0.6978
 5595TIP3    H138276   1.096   3.508  12.763  1.3811 -0.4422  0.3365
 5595TIP3    H238277   1.059   3.369  12.714 -1.6465  0.0377  1.2027
 5596TIP3   OH238278   5.748   5.370  16.378  0.3745 -0.0758  0.3133
 5596TIP3    H138279   5.712   5.455  16.401 -2.5048 -1.5231  1.4703
 5596TIP3    H238280   5.794   5.341  16.457  0.3960 -0.0871  0.2972
 5597TIP3   OH238281   0.096   0.316   1.712 -0.1909 -0.1467 -0.1401
 5597TIP3    H138282   0.182   0.340   1.677  0.2189 -1.2232  0.1031
 5597TIP3    H238283   0.094   0.356   1.799  0.5072 -1.0150  0.2860
 5598TIP3   OH238284   1.198   2.858  12.529 -0.4997 -0.4180 -0.2111
 5598TIP3    H138285   1.276   2.803  12.533  0.1650  0.4605 -0.8687
 5598TIP3    H238286   1.230   2.947  12.545 -1.4013 -0.0926 -0.1921
 5599TIP3   OH238287   5.447   3.000  13.789 -0.4658 -0.5197  0.1957
 5599TIP3    H138288   5.477   2.922  13.743  1.1766  0.2337 -0.0476
 5599TIP3    H238289   5.388   3.043  13.727 -1.7109 -1.7602  0.4919
 5600TIP3   OH238290   2.790   0.613   4.226 -0.0010  0.3186 -0.1241
 5600TIP3    H138291   2.727   0.541   4.217 -1.4440  1.3371  1.5950
 5600TIP3    H238292   2.778   0.666   4.147  0.7268 -1.0165 -1.1667
 5601TIP3   OH238293   1.178   0.344  13.202  0.2623  0.6780 -0.1067
 5601TIP3    H138294   1.175   0.251  13.177 -0.0633  0.0598  2.0603
 5601TIP3    H238295   1.271   0.366  13.200  0.4457 -0.0086  0.3284
 5602TIP3   OH238296   3.418   4.806  15.684  0.2848  0.0068  0.0836
 5602TIP3    H138297   3.510   4.834  15.690  0.1449  0.3906  0.4277
 5602TIP3    H238298   3.397   4.773  15.771 -0.1537  0.6925  0.2378
 5603TIP3   OH238299   1.309   2.397  13.503 -0.0544  0.0948  0.1812
 5603TIP3    H138300   1.240   2.431  13.560 -0.0205 -0.0286  0.2938
 5603TIP3    H238301   1.265   2.335  13.446  0.2287 -1.0559  1.1987
 5604TIP3   OH238302   5.339   0.063  11.165  0.0175  0.2671 -0.7456
 5604TIP3    H138303   5.307   0.125  11.100 -0.4371 -1.2111 -1.9920
 5604TIP3    H238304   5.383  -0.005  11.113  0.0556 -0.7060  0.5210
 5605TIP3   OH238305   5.829   0.372  13.313  0.3357  0.2248  0.4377
 5605TIP3    H138306   5.818   0.406  13.224 -0.0726  0.0111  0.4068
 5605TIP3    H238307   5.741   0.349  13.341  0.5649 -0.4690  0.5989
 5606TIP3   OH238308   2.905   6.542  10.675 -0.2628 -0.4468  0.1393
 5606TIP3    H138309   2.926   6.585  10.592 -2.2446 -1.4097 -0.8943
 5606TIP3    H238310   2.948   6.457  10.669  1.0832  0.1740  0.8710
 5607TIP3   OH238311   2.625   4.454   2.032  1.0297  0.2203  0.6291
 5607TIP3    H138312   2.569   4.404   1.972  1.1205  1.5892 -0.6291
 5607TIP3    H238313   2.604   4.420   2.119  0.1621 -1.1017 -0.0890
 5608TIP3   OH238314   5.006   2.112  16.111 -0.0007  0.1188 -0.4773
 5608TIP3    H138315   5.084   2.156  16.147  0.4162  0.4317 -1.7090
 5608TIP3    H238316   4.982   2.166  16.036 -1.0719 -0.3082 -0.4357
 5609TIP3   OH238317   6.811   3.148   2.487  0.3301  0.2621  0.4758
 5609TIP3    H138318   6.786   3.061   2.518  0.2751  0.3660  0.7238
 5609TIP3    H238319   6.829   3.198   2.567  0.6590  0.3884  0.3235
 5610TIP3   OH238320   6.571   3.681   3.761  0.1152  0.4134  0.0479
 5610TIP3    H138321   6.625   3.701   3.838  1.0575  0.2703 -0.5605
 5610TIP3    H238322   6.507   3.752   3.758 -0.2729  0.1245  1.2763
 5611TIP3   OH238323   1.686   5.708  14.084  0.3726 -0.1201  0.4932
 5611TIP3    H138324   1.641   5.714  14.000  1.4430  0.4925 -0.0442
 5611TIP3    H238325   1.730   5.792  14.095  2.5830 -1.2075  0.3026
 5612TIP3   OH238326   1.754   0.170  13.813  0.6193  0.5094  0.1518
 5612TIP3    H138327   1.840   0.127  13.818  0.8822  0.7662 -1.6125
 5612TIP3    H238328   1.695   0.101  13.785  0.8153  0.9625 -1.4767
 5613TIP3   OH238329   5.102   6.682   0.890  0.1094 -0.1922  0.1008
 5613TIP3    H138330   5.070   6.658   0.802 -1.5293 -1.6261  1.0491
 5613TIP3    H238331   5.030   6.732   0.928  0.8058  0.3880  0.6706
 5614TIP3   OH238332   1.638   0.432  11.345 -0.1058  0.4817 -0.4155
 5614TIP3    H138333   1.603   0.404  11.260 -0.2023  1.1922 -0.6148
 5614TIP3    H238334   1.725   0.394  11.349  0.1598  1.0155 -1.1334
 5615TIP3   OH238335   0.779   2.816  15.717  0.5147  0.1768  0.3505
 5615TIP3    H138336   0.868   2.837  15.744  0.2548  1.0745  0.5339
 5615TIP3    H238337   0.766   2.865  15.635  0.4315 -0.5004 -0.0426
 5616TIP3   OH238338   3.048   0.375  12.534 -0.4112  0.6139  0.2519
 5616TIP3    H138339   3.020   0.467  12.539 -0.8810  0.4763  0.1750
 5616TIP3    H238340   2.976   0.331  12.490 -0.1478  0.2211  0.2186
 5617TIP3   OH238341   3.554   2.920  11.579  0.1912  0.3637  0.1854
 5617TIP3    H138342   3.585   2.842  11.624 -0.6300  0.1870  0.4461
 5617TIP3    H238343   3.485   2.955  11.635 -0.4415  0.4704 -0.6427
 5618TIP3   OH238344   2.426   3.341   0.067  0.5099  0.1671 -0.1849
 5618TIP3    H138345   2.482   3.307   0.138 -0.3530 -2.0209 -0.5049
 5618TIP3    H238346   2.355   3.277   0.060 -1.1558  2.0316 -0.9055
 5619TIP3   OH238347   1.461   5.334   0.956 -0.1109  0.2003  0.6047
 5619TIP3    H138348   1.414   5.257   0.988 -0.8871  0.0131 -0.9345
 5619TIP3    H238349   1.464   5.323   0.861 -0.5507  2.2519  0.3266
 5620TIP3   OH238350   6.143   2.693  12.238 -0.0087  0.7164  0.0301
 5620TIP3    H138351   6.209   2.630  12.266 -0.3319  1.4850  2.6123
 5620TIP3    H238352   6.193   2.772  12.215  0.2012  0.3042 -0.9506
 5621TIP3   OH238353   6.064   2.467   2.055  0.0138  0.5760 -0.0545
 5621TIP3    H138354   5.982   2.468   2.006  0.1184  1.8435 -0.2162
 5621TIP3    H238355   6.105   2.385   2.030 -1.0607  0.0777 -0.2133
 5622TIP3   OH238356   1.935   4.000   1.397  0.0109 -0.4168 -0.3096
 5622TIP3    H138357   1.862   4.051   1.431  0.5122 -0.7860  1.3414
 5622TIP3    H238358   2.009   4.060   1.397  0.9492 -1.4639  2.9718
 5623TIP3   OH238359   3.812   5.675  11.794 -0.0506 -0.2563 -0.5844
 5623TIP3    H138360   3.878   5.615  11.759  0.5241 -0.2217  0.4411
 5623TIP3    H238361   3.839   5.691  11.884 -0.4221  1.2339 -0.7295
 5624TIP3   OH238362   2.825   2.890  15.360  0.0537  0.2103 -0.1970
 5624TIP3    H138363   2.739   2.876  15.400  0.8522  0.4392  1.6573
 5624TIP3    H238364   2.884   2.905  15.434  1.4319  1.5054 -1.5129
 5625TIP3   OH238365   4.057   6.490   6.305  0.6307 -0.6638 -0.1545
 5625TIP3    H138366   4.113   6.422   6.341 -0.8240 -1.1911  1.1420
 5625TIP3    H238367   4.068   6.565   6.364  0.8599 -0.3536 -0.5773
 5626TIP3   OH238368   1.673   0.098  11.905  0.3458  0.1739  0.1773
 5626TIP3    H138369   1.578   0.087  11.909  0.4794 -1.5219 -0.6195
 5626TIP3    H238370   1.707   0.039  11.973  0.8341  0.6195  0.3223
 5627TIP3   OH238371   5.125   2.811   1.217  0.1887  0.2415 -0.3964
 5627TIP3    H138372   5.127   2.851   1.130  0.9622  1.3551  0.1185
 5627TIP3    H238373   5.214   2.776   1.229  0.6820  1.8452  0.7350
 5628TIP3   OH238374   6.749   4.732   2.556  0.1071 -0.5600 -0.5827
 5628TIP3    H138375   6.721   4.719   2.646  1.0293 -0.9457 -0.3459
 5628TIP3    H238376   6.835   4.690   2.551 -1.4157 -3.6689 -2.5499
 5629TIP3   OH238377   3.645   4.050   3.666  0.4588 -0.4113  0.2214
 5629TIP3    H138378   3.662   3.960   3.695  1.2890 -0.2471  0.2346
 5629TIP3    H238379   3.551   4.062   3.681  0.9400 -0.1498  3.4036
 5630TIP3   OH238380   2.269   3.893   0.672  0.0521 -0.7968 -0.0143
 5630TIP3    H138381   2.311   3.875   0.755 -0.1199 -0.5212  0.1331
 5630TIP3    H238382   2.176   3.878   0.688 -0.1951  1.0380  0.3407
 5631TIP3   OH238383   5.721   5.596  12.954  0.2423  0.3278 -0.5289
 5631TIP3    H138384   5.749   5.506  12.969 -1.4258 -0.2502 -0.7804
 5631TIP3    H238385   5.706   5.631  13.042  1.6436  0.6254 -0.3927
 5632TIP3   OH238386   1.295   6.179  12.097  0.9102 -0.0371 -0.3563
 5632TIP3    H138387   1.242   6.130  12.033 -3.3501  1.4942  1.8087
 5632TIP3    H238388   1.295   6.124  12.175  1.0022  0.7873  0.2260
 5633TIP3   OH238389   2.790   6.197   0.300  0.2414 -0.4197 -0.3588
 5633TIP3    H138390   2.841   6.133   0.351  2.3447  0.3248 -1.4619
 5633TIP3    H238391   2.791   6.276   0.354 -0.1596 -0.5511 -0.1599
 5634TIP3   OH238392   5.281   6.043  15.410 -0.4662 -0.7449 -0.5682
 5634TIP3    H138393   5.345   6.049  15.339  0.0374  0.6086 -0.0202
 5634TIP3    H238394   5.333   6.022  15.488 -0.7860 -0.4401 -0.2696
 5635TIP3   OH238395   5.056   1.068   4.761  0.5147  1.0045  0.2615
 5635TIP3    H138396   4.977   1.015   4.759  0.8730  0.4645  0.4447
 5635TIP3    H238397   5.127   1.006   4.780  0.7158  1.7757  2.1702
 5636TIP3   OH238398   4.936   5.370  14.177 -0.0317  0.0614  0.8492
 5636TIP3    H138399   5.032   5.373  14.169 -0.1664  0.2050 -0.9522
 5636TIP3    H238400   4.920   5.299  14.239  1.1829 -1.8383 -0.8970
 5637TIP3   OH238401   0.648   6.023   1.178  0.0910  0.5213 -0.3738
 5637TIP3    H138402   0.693   6.052   1.099  1.7482  1.5381  0.9033
 5637TIP3    H238403   0.687   5.937   1.197 -0.7641 -0.0170 -0.9876
 5638TIP3   OH238404   0.150   5.323   3.743  0.7840 -0.4525  0.4062
 5638TIP3    H138405   0.191   5.257   3.687 -0.1436 -1.0336  0.4094
 5638TIP3    H238406   0.214   5.394   3.746  0.7046 -0.2746 -1.6572
 5639TIP3   OH238407   3.788   4.356   5.159 -0.2181 -0.7987  0.1951
 5639TIP3    H138408   3.797   4.442   5.117 -1.6631 -0.1906  1.0739
 5639TIP3    H238409   3.697   4.354   5.190  0.3342 -1.8872  1.8190
 5640TIP3   OH238410   0.849   3.496  11.281 -0.2496 -0.0541  0.2880
 5640TIP3    H138411   0.818   3.460  11.197 -1.3771 -0.2310  0.7737
 5640TIP3    H238412   0.943   3.512  11.267  0.3069 -3.1934  0.0582
 5641TIP3   OH238413   0.067   4.684  14.139 -0.9716  0.5331  0.2150
 5641TIP3    H138414   0.122   4.611  14.170 -2.2188 -0.0423  1.0954
 5641TIP3    H238415   0.129   4.756  14.127  0.7254 -1.3208 -3.0284
 5642TIP3   OH238416   6.213   0.912   3.680  0.1061 -0.5583 -0.1197
 5642TIP3    H138417   6.305   0.907   3.706 -0.1952 -0.8227  0.8971
 5642TIP3    H238418   6.175   0.829   3.710 -1.1353  0.7601  2.0663
 5643TIP3   OH238419   5.214   2.765  14.837  0.0634  0.3069 -0.0055
 5643TIP3    H138420   5.299   2.746  14.796  0.3130 -0.5171  0.8801
 5643TIP3    H238421   5.157   2.786  14.763  0.9756  0.6297 -0.6342
 5644TIP3   OH238422   3.101   0.688  16.733  0.0819  0.3037  0.0823
 5644TIP3    H138423   3.009   0.708  16.746 -0.1196 -1.0615  0.7882
 5644TIP3    H238424   3.103   0.629  16.657  0.5833  2.0995 -1.3408
 5645TIP3   OH238425   0.396   2.411   3.013 -0.3292  0.3141  0.1502
 5645TIP3    H138426   0.409   2.448   2.926  2.6242  1.4884  1.0186
 5645TIP3    H238427   0.373   2.486   3.068  1.8362  0.3139  1.1348
 5646TIP3   OH238428   6.714   3.908  14.700  0.3519 -0.7737  0.2638
 5646TIP3    H138429   6.620   3.911  14.719  0.5774  2.1757  1.1308
 5646TIP3    H238430   6.729   3.980  14.639  1.9886 -1.5514 -0.2905
 5647TIP3   OH238431   5.296   0.394   1.197 -0.4815  0.2196  0.3770
 5647TIP3    H138432   5.341   0.381   1.281  1.2116 -0.4562 -0.6120
 5647TIP3    H238433   5.343   0.337   1.136 -2.9106 -0.7730 -0.6305
 5648TIP3   OH238434   6.466   4.845  12.324 -0.0779 -0.0186 -0.4599
 5648TIP3    H138435   6.439   4.863  12.234  3.4518 -0.5681 -1.7170
 5648TIP3    H238436   6.438   4.755  12.341 -0.1399 -0.1512 -1.2709
 5649TIP3   OH238437   3.455   4.074  12.773 -0.4889 -0.3526  0.1624
 5649TIP3    H138438   3.410   4.043  12.852 -0.5342 -1.9381 -0.4656
 5649TIP3    H238439   3.545   4.044  12.783 -0.8937 -2.0806 -1.1772
 5650TIP3   OH238440   3.597   1.237  12.112 -0.1593 -0.1778 -0.2353
 5650TIP3    H138441   3.583   1.280  12.027 -1.1337  1.2217  0.6180
 5650TIP3    H238442   3.517   1.185  12.126 -0.1926 -0.0544  0.0347
 5651TIP3   OH238443   0.167   4.563  11.447  0.4357  0.2525 -0.2977
 5651TIP3    H138444   0.220   4.628  11.493  1.2269  2.1437 -3.6902
 5651TIP3    H238445   0.098   4.614  11.405 -0.6638 -1.4784 -0.6282
 5652TIP3   OH238446   4.458   6.233   3.662  0.3587  0.5442 -0.5141
 5652TIP3    H138447   4.448   6.323   3.632  1.3453  1.0134  0.5272
 5652TIP3    H238448   4.464   6.240   3.758  2.0566 -0.4400 -0.5182
 5653TIP3   OH238449   0.076   0.056   3.461  0.1060 -0.3526  0.7934
 5653TIP3    H138450   0.143   0.063   3.392 -0.3104 -1.1155  0.3011
 5653TIP3    H238451   0.124   0.021   3.537  0.6456  0.8504  1.0138
 5654TIP3   OH238452   6.318   5.716  12.117  0.1839  0.1635 -0.0449
 5654TIP3    H138453   6.321   5.620  12.116  0.1711  0.1690 -0.5146
 5654TIP3    H238454   6.272   5.740  12.037 -1.6859  0.4937  1.0727
 5655TIP3   OH238455   5.334   0.090   5.572  0.1763 -0.0993  0.3333
 5655TIP3    H138456   5.298   0.008   5.607 -0.0958 -0.3102 -0.4268
 5655TIP3    H238457   5.258   0.138   5.539  0.3689  0.3372  0.5234
 5656TIP3   OH238458   0.576   5.575  16.444  0.4080  0.0470 -0.3648
 5656TIP3    H138459   0.655   5.615  16.409 -0.7274  1.4745 -1.3275
 5656TIP3    H238460   0.608   5.504  16.500  2.3153 -0.3934 -1.9613
 5657TIP3   OH238461   2.125   3.000  15.006 -0.2507  0.0890  0.0649
 5657TIP3    H138462   2.164   2.999  15.094 -0.9983 -0.4058  0.3886
 5657TIP3    H238463   2.091   2.911  14.993 -0.0573  0.1292 -0.7649
 5658TIP3   OH238464   6.291   4.107  14.293 -0.6523  0.6168  0.8925
 5658TIP3    H138465   6.372   4.066  14.325 -1.1893  0.9818  2.7566
 5658TIP3    H238466   6.304   4.200  14.308 -1.2950  0.6992  0.9366
 5659TIP3   OH238467   0.479   0.146   0.805  0.0326  0.0258  0.1628
 5659TIP3    H138468   0.405   0.119   0.750  2.1717 -0.3094 -2.7141
 5659TIP3    H238469   0.497   0.236   0.778  2.3615 -0.7953 -1.2587
 5660TIP3   OH238470   0.432   6.419   2.799  0.1235 -0.4404  0.0290
 5660TIP3    H138471   0.470   6.498   2.836 -0.5111  0.4509 -1.1839
 5660TIP3    H238472   0.491   6.349   2.825  0.1369  0.2747  1.9953
 5661TIP3   OH238473   3.801   4.598   2.682  0.2901 -0.0660  0.9865
 5661TIP3    H138474   3.836   4.679   2.719 -0.2062  0.1831  0.9037
 5661TIP3    H238475   3.840   4.593   2.595 -0.2927  0.4764  0.6984
 5662TIP3   OH238476   6.073   1.162  15.300  0.3621 -0.3859  0.0949
 5662TIP3    H138477   5.984   1.191  15.280  0.5540  0.8538  0.9826
 5662TIP3    H238478   6.061   1.088  15.359 -0.0556  1.1490  1.9664
 5663TIP3   OH238479   0.161   3.536  12.848  0.1156 -0.6118  0.2586
 5663TIP3    H138480   0.153   3.509  12.756  0.5280 -0.2016  0.1036
 5663TIP3    H238481   0.108   3.615  12.855 -0.2081 -0.8426  0.4640
 5664TIP3   OH238482   4.912   1.460  13.352  0.8103 -0.1505  0.6526
 5664TIP3    H138483   4.951   1.413  13.426  0.4669  1.7427  2.0850
 5664TIP3    H238484   4.986   1.478  13.294  1.3901 -0.1732  1.3661
 5665TIP3   OH238485   4.033   5.399   1.404 -0.5988  0.2387 -0.0193
 5665TIP3    H138486   3.993   5.364   1.324 -0.0056  0.7215 -0.5418
 5665TIP3    H238487   4.110   5.344   1.418 -0.6353  0.2309  0.1451
 5666TIP3   OH238488   0.195   4.097   4.107  0.0950 -0.4990  0.1722
 5666TIP3    H138489   0.182   4.014   4.063  1.4342 -1.1116  0.8867
 5666TIP3    H238490   0.204   4.161   4.036  1.8230 -1.4123 -0.4618
 5667TIP3   OH238491   3.321   1.066   5.929  0.3415  0.8734  0.1051
 5667TIP3    H138492   3.263   1.142   5.921  0.0381  0.4722 -1.4841
 5667TIP3    H238493   3.408   1.104   5.942  0.0215  1.4814  0.4874
 5668TIP3   OH238494   5.753   0.140   2.830  0.7599 -0.5757 -0.3776
 5668TIP3    H138495   5.821   0.151   2.897  2.6594 -1.5645 -2.0727
 5668TIP3    H238496   5.776   0.202   2.761 -0.0104 -0.9750 -1.0076
 5669TIP3   OH238497   0.086   2.295   4.273  0.0115 -0.2251  0.1976
 5669TIP3    H138498   0.110   2.240   4.197  0.5133 -1.8174  1.4781
 5669TIP3    H238499   0.041   2.235   4.332  0.3915  0.8015  1.5388
 5670TIP3   OH238500   5.795   0.899   0.958 -0.5797  0.8935  0.5504
 5670TIP3    H138501   5.864   0.851   1.004  0.6256  0.1724 -1.8712
 5670TIP3    H238502   5.840   0.976   0.922 -0.9434  0.2451 -1.3297
 5671TIP3   OH238503   3.831   3.676  11.576  0.5925  0.4237  0.1966
 5671TIP3    H138504   3.890   3.638  11.511 -0.9478 -2.8536  0.6107
 5671TIP3    H238505   3.753   3.701  11.525  0.5386  0.5518  0.3413
 5672TIP3   OH238506   0.990   0.776   3.807  0.3435  0.5304  0.4645
 5672TIP3    H138507   1.015   0.863   3.839  1.1181  0.5211 -0.0990
 5672TIP3    H238508   0.930   0.793   3.735  1.6311  0.6528 -0.6127
 5673TIP3   OH238509   0.407   6.169   0.906 -0.1380 -0.4174  0.2174
 5673TIP3    H138510   0.449   6.239   0.856  1.8172 -1.5751  0.2173
 5673TIP3    H238511   0.418   6.195   0.998  1.4428 -1.2028  0.2526
 5674TIP3   OH238512   6.287   5.128   0.481 -0.7343  0.4679  0.1290
 5674TIP3    H138513   6.328   5.131   0.567  0.4578  0.5988 -0.4363
 5674TIP3    H238514   6.310   5.212   0.441  3.4073 -1.7147 -2.4387
 5675TIP3   OH238515   0.234   3.488  10.957  0.2189  0.2466  0.2471
 5675TIP3    H138516   0.163   3.501  10.894  0.4970 -0.0920 -0.1385
 5675TIP3    H238517   0.202   3.420  11.016 -0.4816  1.3109  1.1403
 5676TIP3   OH238518   0.722   0.414   4.686  0.1996  0.6400  0.8049
 5676TIP3    H138519   0.715   0.391   4.779  1.4297  1.3476  1.0781
 5676TIP3    H238520   0.736   0.331   4.641  0.3234  0.3754  1.3296
 5677TIP3   OH238521   5.380   2.449  13.060  0.2164 -0.6566  0.2703
 5677TIP3    H138522   5.416   2.524  13.107  0.9809 -1.1595  0.5064
 5677TIP3    H238523   5.361   2.385  13.129 -1.3383 -0.3299  0.1725
 5678TIP3   OH238524   4.238   6.483  14.519  0.0105 -0.2991 -0.0685
 5678TIP3    H138525   4.251   6.510  14.610  0.5380  1.8251 -0.7305
 5678TIP3    H238526   4.149   6.446  14.517  0.7488 -2.2130  1.6845
 5679TIP3   OH238527   0.721   0.879  10.851 -0.2311  0.3415  0.6669
 5679TIP3    H138528   0.739   0.806  10.792 -1.9995  0.9638 -0.7031
 5679TIP3    H238529   0.663   0.842  10.918 -1.1766  0.4720 -0.0609
 5680TIP3   OH238530   1.663   0.447   5.326  0.3823  0.1497 -0.0455
 5680TIP3    H138531   1.724   0.492   5.384  2.5380  0.1149 -2.2039
 5680TIP3    H238532   1.690   0.355   5.330  0.0784  0.0397 -0.5382
 5681TIP3   OH238533   2.979   4.913   1.707 -0.2438  0.2485  0.2311
 5681TIP3    H138534   2.905   4.963   1.673 -0.4064 -0.1306  0.0189
 5681TIP3    H238535   2.943   4.825   1.723 -0.0162  0.2550  0.7921
 5682TIP3   OH238536   3.894   2.642  14.323 -0.1203  0.4491 -0.2817
 5682TIP3    H138537   3.873   2.695  14.247  2.3929  0.7944 -0.7888
 5682TIP3    H238538   3.986   2.618  14.311 -0.8436 -3.0628  0.5196
 5683TIP3   OH238539   5.904   5.425   0.941  0.0190  0.4906 -0.4538
 5683TIP3    H138540   5.955   5.346   0.923 -2.8188 -1.3372 -0.7229
 5683TIP3    H238541   5.956   5.496   0.902  2.0647 -1.3438 -1.2029
 5684TIP3   OH238542   5.478   6.401   1.075 -0.5234 -0.3492 -0.0003
 5684TIP3    H138543   5.565   6.417   1.110 -0.4297  0.8568 -0.7905
 5684TIP3    H238544   5.470   6.460   1.000 -2.6933  0.9206  1.1719
 5685TIP3   OH238545   0.335   2.406   6.847  0.0250 -0.3972  0.4528
 5685TIP3    H138546   0.270   2.353   6.801  0.8628  0.5194 -1.8839
 5685TIP3    H238547   0.405   2.344   6.867  0.6490 -0.3985 -1.5713
 5686TIP3   OH238548   2.433   0.930   2.408 -0.2078  0.2769 -0.2507
 5686TIP3    H138549   2.373   0.997   2.442 -2.4048 -1.4139 -0.6577
 5686TIP3    H238550   2.396   0.847   2.439  0.8482 -0.9474 -2.1624
 5687TIP3   OH238551   6.443   1.373   2.297 -0.8441  0.1420 -0.0962
 5687TIP3    H138552   6.465   1.280   2.301 -0.6934  0.1267 -1.1133
 5687TIP3    H238553   6.405   1.385   2.210  0.3608  1.2844 -0.4853
 5688TIP3   OH238554   2.204   5.586  17.118 -0.0082  0.0310 -0.3013
 5688TIP3    H138555   2.210   5.681  17.113 -1.3490  0.1518  0.2402
 5688TIP3    H238556   2.248   5.555  17.039 -1.7600  1.1975 -1.7714
 5689TIP3   OH238557   1.722   5.865   1.299 -0.1966  0.5399 -0.8938
 5689TIP3    H138558   1.780   5.922   1.349 -0.0910  0.1926 -0.6149
 5689TIP3    H238559   1.634   5.889   1.327 -0.1369  0.3289 -0.5210
 5690TIP3   OH238560   1.583   2.772   2.275 -0.3949  0.2633  0.5190
 5690TIP3    H138561   1.524   2.806   2.342 -1.1509 -0.3521  0.1719
 5690TIP3    H238562   1.525   2.737   2.208  0.3718 -0.1687  0.0800
 5691TIP3   OH238563   5.908   6.323  14.532 -0.0178 -0.1716  0.0976
 5691TIP3    H138564   5.997   6.344  14.561  0.5965 -0.3963 -1.5316
 5691TIP3    H238565   5.880   6.399  14.482  0.5366 -1.3760 -2.1317
 5692TIP3   OH238566   5.567   2.478   0.477 -0.2849 -0.0675 -0.3053
 5692TIP3    H138567   5.577   2.421   0.401 -2.0685 -1.0583  0.1713
 5692TIP3    H238568   5.473   2.492   0.484  0.0462  2.0376  0.2563
 5693TIP3   OH238569   1.242   6.752   3.975  0.7433 -0.4984  0.1663
 5693TIP3    H138570   1.191   6.675   4.000  0.5166 -0.8197 -1.2384
 5693TIP3    H238571   1.282   6.728   3.892 -1.3671  1.7777 -1.5889
 5694TIP3   OH238572   6.490   5.737  15.294 -0.0958 -0.2219  0.0219
 5694TIP3    H138573   6.561   5.672  15.287 -0.8578 -0.9762 -0.7791
 5694TIP3    H238574   6.427   5.697  15.354  0.1167  0.4209  0.6811
 5695TIP3   OH238575   5.417   4.587  12.249  0.2073  0.0949  0.2525
 5695TIP3    H138576   5.440   4.496  12.269 -1.4021 -0.4730 -0.4093
 5695TIP3    H238577   5.323   4.586  12.236 -0.0526  2.1402  1.6239
 5696TIP3   OH238578   4.388   2.692  14.449 -0.0254  0.3330 -0.1279
 5696TIP3    H138579   4.466   2.673  14.397  0.3801 -0.0771  0.6203
 5696TIP3    H238580   4.369   2.610  14.494  0.0503  0.8770  0.9176
 5697TIP3   OH238581   6.249   6.072  12.107  0.0123 -0.4853 -0.8654
 5697TIP3    H138582   6.324   6.130  12.097 -0.2547 -0.0990 -0.6603
 5697TIP3    H238583   6.218   6.088  12.196 -0.5199 -0.3847 -1.0597
 5698TIP3   OH238584   0.850   6.711  12.522 -0.6282 -0.7325  0.5041
 5698TIP3    H138585   0.945   6.708  12.528 -0.6904  0.6150  3.0764
 5698TIP3    H238586   0.824   6.622  12.500  1.3205 -0.5768 -2.7783
 5699TIP3   OH238587   2.367   0.735   3.176  0.1679 -0.0963 -1.0982
 5699TIP3    H138588   2.458   0.717   3.198 -0.0524 -1.5202 -1.2821
 5699TIP3    H238589   2.362   0.830   3.169  0.7649  0.3115  2.7715
 5700TIP3   OH238590   1.952   2.917   5.580 -0.7236  0.5164 -0.0881
 5700TIP3    H138591   2.004   2.976   5.637  0.1130 -1.1617  0.9288
 5700TIP3    H238592   1.873   2.967   5.560  0.9362  2.8462 -1.0299
 5701TIP3   OH238593   1.445   5.334   2.092  0.4158  0.5887 -0.3348
 5701TIP3    H138594   1.352   5.335   2.068  0.8724  1.5501 -2.1399
 5701TIP3    H238595   1.486   5.277   2.027  1.0550 -0.0347  0.6106
 5702TIP3   OH238596   4.917   6.012  12.136 -0.7220 -0.9576  0.7556
 5702TIP3    H138597   4.898   5.969  12.052  0.8048  0.0479 -0.1342
 5702TIP3    H238598   4.865   6.092  12.134  0.4586 -0.1972  0.0990
 5703TIP3   OH238599   2.472   2.410   3.727 -0.2946  0.7112  0.4970
 5703TIP3    H138600   2.379   2.389   3.716 -0.2284  0.3048  0.6921
 5703TIP3    H238601   2.518   2.331   3.698  0.0225  1.2196 -0.3865
 5704TIP3   OH238602   0.983   3.759  14.532 -0.0569  0.2603  0.3654
 5704TIP3    H138603   1.056   3.803  14.488  1.0554  0.4089  2.2959
 5704TIP3    H238604   1.000   3.666  14.518 -0.3601  0.3295 -0.5122
 5705TIP3   OH238605   0.870   1.558  13.429  0.3964  0.0841 -0.1436
 5705TIP3    H138606   0.939   1.552  13.496  0.2613  0.5162  0.0345
 5705TIP3    H238607   0.832   1.470  13.426 -0.2317  0.3085  1.0215
 5706TIP3   OH238608   3.535   5.685  11.828  0.0496  0.1988 -0.1524
 5706TIP3    H138609   3.510   5.771  11.793  1.3128  0.7244  0.1912
 5706TIP3    H238610   3.631   5.685  11.823  0.0944 -0.8691  0.6189
 5707TIP3   OH238611   3.848   1.884   3.470  0.0278  0.6471  0.2729
 5707TIP3    H138612   3.761   1.924   3.468 -0.5475 -0.5836  0.1894
 5707TIP3    H238613   3.831   1.789   3.467  1.2689  0.3070  2.4723
 5708TIP3   OH238614   1.995   0.555   2.056 -0.2952  0.0262  0.1181
 5708TIP3    H138615   1.986   0.644   2.090 -1.2610  0.8794 -2.2392
 5708TIP3    H238616   2.070   0.559   1.997 -1.0747 -0.4251 -0.9117
 5709TIP3   OH238617   1.169   3.239   0.938 -0.4987 -0.0755 -0.6172
 5709TIP3    H138618   1.171   3.157   0.888 -1.2816 -2.0835  2.4539
 5709TIP3    H238619   1.261   3.267   0.943  0.0981 -2.0460  0.1848
 5710TIP3   OH238620   1.887   4.055  17.199  0.1006 -0.0727  0.2166
 5710TIP3    H138621   1.793   4.045  17.182 -0.1569 -0.2023  1.7049
 5710TIP3    H238622   1.892   4.111  17.276  1.2521 -0.1293  0.1925
 5711TIP3   OH238623   5.506   2.524  13.806 -0.0078 -0.8168 -0.2781
 5711TIP3    H138624   5.591   2.510  13.849 -0.7470  0.1891  1.5828
 5711TIP3    H238625   5.474   2.436  13.787  1.9354 -1.1799 -2.0062
 5712TIP3   OH238626   2.892   1.334  12.241  0.0462 -0.3800 -0.1080
 5712TIP3    H138627   2.922   1.366  12.156 -0.9034  0.2196 -0.2252
 5712TIP3    H238628   2.961   1.360  12.302 -0.7893  2.1169 -0.1588
 5713TIP3   OH238629   3.005   1.081  12.413  0.3927  0.1532  0.5992
 5713TIP3    H138630   2.973   1.077  12.503 -1.9016  1.1850 -0.1314
 5713TIP3    H238631   3.056   1.162  12.409  2.1402 -0.8744  1.4478
 5714TIP3   OH238632   2.412   0.783  11.295 -0.2116  0.5393  0.3677
 5714TIP3    H138633   2.471   0.857  11.281  0.8564 -0.6499 -1.7159
 5714TIP3    H238634   2.391   0.786  11.388  1.6032  2.1322  0.7520
 5715TIP3   OH238635   3.615   2.605  13.187  0.0695 -0.6943 -0.8275
 5715TIP3    H138636   3.650   2.622  13.275 -0.6545  2.9002 -1.1762
 5715TIP3    H238637   3.523   2.631  13.192 -0.0512 -0.7148 -2.5904
 5716TIP3   OH238638   5.257   4.038  12.347 -0.3614 -0.4311  0.4187
 5716TIP3    H138639   5.265   4.054  12.441 -3.0718 -0.8012  0.7465
 5716TIP3    H238640   5.214   4.116  12.313  1.8787  0.3093 -0.7658
 5717TIP3   OH238641   6.615   4.780   0.154  0.2937  1.0855  0.0700
 5717TIP3    H138642   6.525   4.810   0.165 -0.5039 -1.0161 -0.5260
 5717TIP3    H238643   6.640   4.809   0.066 -0.5820 -0.2462 -0.6288
 5718TIP3   OH238644   1.472   0.556  10.621  0.4742  0.5576  0.3538
 5718TIP3    H138645   1.525   0.579  10.697 -0.4814 -0.5888  1.3800
 5718TIP3    H238646   1.535   0.550  10.549  1.5859  0.2477  1.3364
 5719TIP3   OH238647   4.442   3.817   5.496  0.0969  0.0257  0.1108
 5719TIP3    H138648   4.357   3.859   5.510 -0.2957 -0.9316  0.6322
 5719TIP3    H238649   4.504   3.890   5.493 -0.7411  0.7351 -0.2992
 5720TIP3   OH238650   5.925   3.219   3.248 -0.2329  0.4139 -0.3919
 5720TIP3    H138651   5.925   3.210   3.153  0.4539 -0.9135 -0.2718
 5720TIP3    H238652   5.979   3.297   3.263  0.4489  0.0883 -1.0563
 5721TIP3   OH238653   0.682   0.125   1.856  0.1083 -0.1705 -0.2739
 5721TIP3    H138654   0.721   0.059   1.914 -2.0304 -2.5701 -1.4785
 5721TIP3    H238655   0.678   0.083   1.771 -3.3438  0.6454 -0.5846
 5722TIP3   OH238656   5.280   5.577   0.032 -0.0857 -0.3499  0.4398
 5722TIP3    H138657   5.230   5.547   0.108  1.1448 -0.7664  1.1071
 5722TIP3    H238658   5.290   5.671   0.045 -0.5780 -0.2867  0.3717
 5723TIP3   OH238659   6.010   5.184  11.147  0.7425 -0.0915  0.0949
 5723TIP3    H138660   6.008   5.205  11.240  0.8147 -1.3188  0.3778
 5723TIP3    H238661   5.935   5.126  11.134  0.0858  0.9466 -0.8311
 5724TIP3   OH238662   3.409   1.515   5.223 -0.4425  0.2219  0.2662
 5724TIP3    H138663   3.446   1.441   5.177 -1.2042 -0.0280  0.0459
 5724TIP3    H238664   3.477   1.542   5.285 -0.1284 -0.5936  0.2792
 5725TIP3   OH238665   3.881   0.794  15.194  0.1218  0.2016 -0.1142
 5725TIP3    H138666   3.821   0.726  15.162 -0.0721 -0.2744  1.2183
 5725TIP3    H238667   3.943   0.808  15.122  0.7401 -2.0735 -0.0680
 5726TIP3   OH238668   3.837   0.385   2.352  0.1000  0.4739  0.0346
 5726TIP3    H138669   3.818   0.465   2.303  0.3946  1.0916  0.9126
 5726TIP3    H238670   3.921   0.402   2.394  0.9483 -0.9138 -1.0383
 5727TIP3   OH238671   5.392   5.673  16.170 -0.3482  0.1945  0.2842
 5727TIP3    H138672   5.316   5.699  16.118  1.5504  1.1088 -2.1434
 5727TIP3    H238673   5.400   5.742  16.236 -0.3279  1.3301 -0.8656
 5728TIP3   OH238674   5.535   3.469  15.609 -0.7464  0.1918  0.5123
 5728TIP3    H138675   5.627   3.483  15.630 -0.8932  0.2449  1.1049
 5728TIP3    H238676   5.528   3.375  15.592 -0.8075  0.0049  1.5522
 5729TIP3   OH238677   3.250   5.989  12.272  0.1322 -0.3762 -0.5555
 5729TIP3    H138678   3.295   5.938  12.204 -0.4489 -0.3121 -0.9861
 5729TIP3    H238679   3.303   6.068  12.282 -0.5445  0.2581 -1.9215
 5730TIP3   OH238680   5.400   3.219  14.836  0.4918 -0.1204 -0.3367
 5730TIP3    H138681   5.399   3.136  14.884  0.7138 -0.1696 -0.4181
 5730TIP3    H238682   5.431   3.196  14.748 -0.0498 -0.0509 -0.5464
 5731TIP3   OH238683   1.867   5.226  12.872 -0.1218  0.2080  0.0848
 5731TIP3    H138684   1.843   5.144  12.916  0.2219 -0.0986 -0.2919
 5731TIP3    H238685   1.953   5.208  12.834  0.3116  1.0087  0.6760
 5732TIP3   OH238686   5.839   0.736  12.715  0.6770  0.4406 -0.2466
 5732TIP3    H138687   5.875   0.650  12.738  0.2724 -0.2812 -2.2264
 5732TIP3    H238688   5.751   0.737  12.752  0.7765  0.1071 -0.0026
 5733TIP3   OH238689   0.228   2.384   3.743  0.2461 -0.4072 -0.3209
 5733TIP3    H138690   0.282   2.315   3.705 -1.0076 -2.0352  0.7812
 5733TIP3    H238691   0.242   2.377   3.837 -1.4172 -0.4573 -0.0663
 5734TIP3   OH238692   0.086   6.564  14.964  0.2861 -0.1894 -0.1627
 5734TIP3    H138693   0.073   6.470  14.948 -0.6385  0.2418 -2.0172
 5734TIP3    H238694   0.138   6.594  14.890  1.3097  0.6286  0.8629
 5735TIP3   OH238695   5.028   6.664  12.668 -0.3918 -0.5920  0.3340
 5735TIP3    H138696   4.971   6.605  12.717 -1.3409 -0.4938 -0.6554
 5735TIP3    H238697   4.969   6.721  12.619  0.5384  0.0834 -0.0195
 5736TIP3   OH238698   6.716   0.974   4.251  0.4700  0.4667  0.1568
 5736TIP3    H138699   6.628   0.936   4.243  1.4774 -2.1015  0.7697
 5736TIP3    H238700   6.721   1.038   4.179 -1.7164  0.3060 -0.1823
 5737TIP3   OH238701   6.310   3.209  11.369  0.1255 -0.4677 -0.4592
 5737TIP3    H138702   6.316   3.264  11.447 -0.4869  0.3417 -0.9780
 5737TIP3    H238703   6.320   3.269  11.296  1.3289 -1.3069 -1.0123
 5738TIP3   OH238704   3.699   5.761   5.025 -0.2693 -0.4199  0.3377
 5738TIP3    H138705   3.674   5.853   5.038  0.2613 -0.0433 -1.1787
 5738TIP3    H238706   3.794   5.761   5.036 -0.3094 -0.8626  0.6841
 5739TIP3   OH238707   1.906   5.721  12.444  0.0692 -0.7090 -0.3940
 5739TIP3    H138708   1.974   5.714  12.511 -0.7943 -2.1616  0.3557
 5739TIP3    H238709   1.954   5.739  12.363  1.2073 -0.0148  0.4212
 5740TIP3   OH238710   5.404   0.142  12.512  0.1741  0.3464 -0.4704
 5740TIP3    H138711   5.355   0.224  12.520 -1.1919 -0.5289  0.3368
 5740TIP3    H238712   5.485   0.157  12.562 -0.0701  1.1984 -0.3301
 5741TIP3   OH238713   2.352   0.350   6.081 -0.4232 -0.8290  0.1398
 5741TIP3    H138714   2.444   0.322   6.083 -0.3375 -0.7407 -1.9776
 5741TIP3    H238715   2.333   0.376   6.171  0.9383 -3.0643  1.1106
 5742TIP3   OH238716   2.067   2.634   1.805  0.3151  0.5365  0.0295
 5742TIP3    H138717   2.101   2.582   1.877  0.5068  0.4719 -0.1054
 5742TIP3    H238718   2.138   2.634   1.740 -0.3728 -0.5203 -0.7249
 5743TIP3   OH238719   6.549   2.547  13.316  0.1414  0.1517  0.1569
 5743TIP3    H138720   6.467   2.596  13.314 -0.3425 -0.5275  2.2533
 5743TIP3    H238721   6.523   2.455  13.323  1.0816 -0.2200 -0.9230
 5744TIP3   OH238722   2.255   6.215  10.505 -0.5744 -0.5682 -0.3928
 5744TIP3    H138723   2.183   6.253  10.455 -0.3377  0.0614 -0.2620
 5744TIP3    H238724   2.298   6.290  10.547 -0.0660 -0.9721 -0.1758
 5745TIP3   OH238725   5.976   4.877   5.810  0.2416 -0.3051  0.5493
 5745TIP3    H138726   5.949   4.869   5.901  1.2217 -1.3505  0.7487
 5745TIP3    H238727   6.071   4.869   5.812  0.2979  0.0540 -0.5221
 5746TIP3   OH238728   1.436   1.799  15.576 -0.3714 -0.5450 -0.0477
 5746TIP3    H138729   1.458   1.806  15.483  0.1117  0.9809  0.1602
 5746TIP3    H238730   1.371   1.868  15.590  0.8816  0.4235  1.1215
 5747TIP3   OH238731   1.204   0.633   5.150 -0.1300  0.2725  0.6240
 5747TIP3    H138732   1.276   0.588   5.193  0.9437 -0.7890 -2.1453
 5747TIP3    H238733   1.243   0.673   5.072 -2.5819 -0.7062 -1.1866
 5748TIP3   OH238734   6.486   1.973   3.089 -0.5968  0.0536  0.1134
 5748TIP3    H138735   6.429   1.988   3.014 -0.0541 -0.9640 -0.5037
 5748TIP3    H238736   6.426   1.959   3.162 -1.1443 -1.1209 -0.5481
 5749TIP3   OH238737   0.029   2.529   2.420 -0.0579 -0.2899  0.1598
 5749TIP3    H138738   0.095   2.534   2.489  0.2719 -1.0512 -0.1015
 5749TIP3    H238739  -0.053   2.551   2.464  0.4015  0.9985  0.4177
 5750TIP3   OH238740   0.421   6.325  16.286  0.2052  0.4962  0.7226
 5750TIP3    H138741   0.355   6.386  16.320 -1.7506 -0.8273 -0.6215
 5750TIP3    H238742   0.468   6.295  16.364 -1.3389  0.7974  1.7874
 5751TIP3   OH238743   5.437   1.469   1.573 -0.5967  0.0509  0.1638
 5751TIP3    H138744   5.433   1.560   1.601  1.4427  0.3269 -0.3933
 5751TIP3    H238745   5.478   1.472   1.487 -0.1982 -1.4205  0.2817
 5752TIP3   OH238746   1.278   4.938  15.332 -0.2005 -0.2014 -0.0510
 5752TIP3    H138747   1.302   5.015  15.282  0.5018 -1.8556 -2.3382
 5752TIP3    H238748   1.359   4.911  15.375 -0.2271 -0.1883  0.0084
 5753TIP3   OH238749   2.681   3.641  12.099 -0.5987 -0.8139 -0.4235
 5753TIP3    H138750   2.641   3.554  12.103 -1.5563 -0.3804 -0.4302
 5753TIP3    H238751   2.700   3.653  12.006 -1.0599 -0.7514 -0.5104
 5754TIP3   OH238752   0.193   4.800   3.913 -0.2005 -0.4477  0.3574
 5754TIP3    H138753   0.150   4.771   3.993 -0.7410 -0.2533  0.1359
 5754TIP3    H238754   0.278   4.833   3.943 -0.7500  0.4323  0.9522
 5755TIP3   OH238755   1.769   1.462   4.591 -0.1652 -0.3585 -0.7401
 5755TIP3    H138756   1.785   1.522   4.517 -0.1402  0.6492  0.0685
 5755TIP3    H238757   1.680   1.483   4.620  0.3691  0.2813  0.4530
 5756TIP3   OH238758   3.752   1.371   5.888 -0.1060 -0.1061  0.1914
 5756TIP3    H138759   3.814   1.305   5.857 -0.1452 -0.8250  1.6056
 5756TIP3    H238760   3.671   1.322   5.906  0.2726  0.0709  2.5251
 5757TIP3   OH238761   5.599   0.336   0.089 -0.1193  1.0927  0.4510
 5757TIP3    H138762   5.648   0.254   0.084  0.4869  1.5868 -2.0833
 5757TIP3    H238763   5.514   0.310   0.125 -0.5241 -0.9528 -1.8187
 5758TIP3   OH238764   3.378   0.132  11.043  0.0443  0.3824  0.0906
 5758TIP3    H138765   3.471   0.113  11.046 -0.7505 -3.6678  2.5884
 5758TIP3    H238766   3.356   0.163  11.131 -0.9496  1.5588 -0.5468
 5759TIP3   OH238767   1.734   5.745  13.745 -0.4689 -0.0300  0.3990
 5759TIP3    H138768   1.743   5.839  13.728 -1.9718  0.1052  0.3289
 5759TIP3    H238769   1.798   5.704  13.687  0.3234  0.9515  0.5561
 5760TIP3   OH238770   2.547   4.167   1.352 -0.0631  0.4131 -0.2309
 5760TIP3    H138771   2.619   4.105   1.358  1.3628  1.7410 -2.5328
 5760TIP3    H238772   2.535   4.200   1.441  1.3488 -0.7585  0.3988
 5761TIP3   OH238773   4.497   6.101  14.432 -0.4265 -0.2739  0.4481
 5761TIP3    H138774   4.420   6.091  14.488  0.3070 -1.1357  1.3250
 5761TIP3    H238775   4.523   6.192  14.443 -2.1633  0.4313 -0.9845
 5762TIP3   OH238776   1.172   3.918   6.028 -0.4463 -0.2035 -0.4088
 5762TIP3    H138777   1.104   3.955   6.086  0.0091 -0.2461  0.1589
 5762TIP3    H238778   1.241   3.984   6.028 -1.1222  0.5205 -2.1888
 5763TIP3   OH238779   0.436   0.876   1.657 -0.1287 -0.4615 -0.5037
 5763TIP3    H138780   0.462   0.964   1.681  0.0165 -0.2734 -1.3273
 5763TIP3    H238781   0.397   0.885   1.570 -0.1956 -1.1940 -0.5577
 5764TIP3   OH238782   3.812   6.157  15.246 -0.0240 -0.1776  0.3923
 5764TIP3    H138783   3.836   6.076  15.201  0.4138 -0.4477  1.0982
 5764TIP3    H238784   3.789   6.129  15.335 -0.3438  0.4118  0.4988
 5765TIP3   OH238785   2.727   0.671  15.380  0.2689 -0.1779 -0.1270
 5765TIP3    H138786   2.801   0.639  15.431  0.0350 -0.0247  0.3089
 5765TIP3    H238787   2.743   0.637  15.292  1.8790  1.4977 -0.5089
 5766TIP3   OH238788   0.996   2.917  15.249 -0.7625  0.5159 -0.0843
 5766TIP3    H138789   0.982   2.991  15.189 -1.7759  0.9718  0.7038
 5766TIP3    H238790   0.908   2.886  15.269 -0.3105 -2.5126 -2.3488
 5767TIP3   OH238791   4.134   3.037   1.580 -1.1555  0.1514  0.4998
 5767TIP3    H138792   4.098   3.111   1.530 -0.8494  1.8148  2.6560
 5767TIP3    H238793   4.219   3.068   1.611 -0.4960 -1.5561  0.4546
 5768TIP3   OH238794   2.512   6.658  16.207  0.8533  0.2862 -0.3029
 5768TIP3    H138795   2.548   6.580  16.249  0.3191 -0.1816 -0.7011
 5768TIP3    H238796   2.420   6.660  16.234  1.2332  1.6388  0.9433
 5769TIP3   OH238797   4.865   2.849   1.974 -0.0029 -0.7670  0.1869
 5769TIP3    H138798   4.791   2.806   2.016 -0.2759  0.5746  1.1310
 5769TIP3    H238799   4.911   2.893   2.046  0.4002  0.3015 -0.7058
 5770TIP3   OH238800   0.218   5.475  15.008 -0.1897 -0.4454 -0.1495
 5770TIP3    H138801   0.245   5.411  14.943 -0.2679 -1.8013  1.1155
 5770TIP3    H238802   0.198   5.554  14.958  1.5764 -0.8655 -1.5590
 5771TIP3   OH238803   3.828   6.708  16.893 -0.5589  0.5049 -0.3723
 5771TIP3    H138804   3.886   6.778  16.922 -0.4278  0.6335 -0.9333
 5771TIP3    H238805   3.802   6.663  16.973 -0.9790  1.4533  0.0340
 5772TIP3   OH238806   4.256   5.877   4.483  0.0474 -0.5508  0.4414
 5772TIP3    H138807   4.286   5.966   4.468  3.5951 -1.8324 -0.5733
 5772TIP3    H238808   4.222   5.878   4.572  0.1854  1.7506  0.5056
 5773TIP3   OH238809   1.163   0.559   2.077  0.1014  0.1023 -0.5507
 5773TIP3    H138810   1.239   0.501   2.068 -0.4291 -0.5169 -1.1157
 5773TIP3    H238811   1.157   0.575   2.171  1.3851  0.7725 -0.5716
 5774TIP3   OH238812   4.164   1.207  14.458 -0.3621 -0.4122 -0.1260
 5774TIP3    H138813   4.071   1.191  14.448 -0.1359 -0.8453 -1.7021
 5774TIP3    H238814   4.206   1.141  14.402  0.7108  3.5703 -4.3461
 5775TIP3   OH238815   4.832   1.718   1.740 -0.8092  0.0390 -0.2458
 5775TIP3    H138816   4.867   1.630   1.722  0.4712  0.1900  1.4476
 5775TIP3    H238817   4.742   1.714   1.708 -0.8730 -1.9934  0.1001
 5776TIP3   OH238818   6.197   2.221  15.656 -0.2542  0.6563  0.3733
 5776TIP3    H138819   6.292   2.228  15.641 -0.0450 -0.6436  0.9696
 5776TIP3    H238820   6.181   2.273  15.734  0.5171 -1.6219  2.1251
 5777TIP3   OH238821   2.765   5.904   2.712  0.0425 -0.5150 -0.6167
 5777TIP3    H138822   2.764   5.970   2.781 -1.1332 -2.1666  0.9734
 5777TIP3    H238823   2.672   5.889   2.692  0.3214 -1.4617 -1.2037
 5778TIP3   OH238824   2.831   3.779   2.780  0.2610 -0.2467 -0.2343
 5778TIP3    H138825   2.870   3.840   2.843 -0.9542 -0.6521  0.9481
 5778TIP3    H238826   2.896   3.709   2.771  0.9839  0.4445 -0.3963
 5779TIP3   OH238827   0.027   6.754   2.503  0.0866 -0.3246  0.0061
 5779TIP3    H138828   0.078   6.832   2.525 -0.4973  0.4027 -1.1809
 5779TIP3    H238829  -0.060   6.772   2.539 -0.2118 -0.1710 -0.7937
 5780TIP3   OH238830   0.284   4.008   2.776  0.3468  0.1411  0.5068
 5780TIP3    H138831   0.258   3.989   2.867 -0.4523  2.1654  0.7200
 5780TIP3    H238832   0.243   4.092   2.756 -0.1717 -0.6786 -2.0356
 5781TIP3   OH238833   0.851   5.786  15.987 -0.2956  0.0483 -0.0710
 5781TIP3    H138834   0.899   5.744  16.059  0.3066  0.7366 -0.0621
 5781TIP3    H238835   0.889   5.874  15.982 -1.6214  0.6298 -0.0138
 5782TIP3   OH238836   5.637   5.731   2.224 -0.4039 -0.2222 -0.2752
 5782TIP3    H138837   5.689   5.805   2.255 -1.3091  0.5095 -0.4760
 5782TIP3    H238838   5.621   5.750   2.132 -0.9449 -0.4823 -0.2373
 5783TIP3   OH238839   4.892   5.890   2.989 -0.0053 -0.6171 -0.2947
 5783TIP3    H138840   4.855   5.970   3.025 -0.7934 -1.9594  1.9713
 5783TIP3    H238841   4.826   5.822   3.007  1.5904 -2.1885 -0.2042
 5784TIP3   OH238842   5.745   1.879   3.835  0.1724 -0.0492 -0.5068
 5784TIP3    H138843   5.684   1.824   3.786  0.8927 -1.4492  0.1201
 5784TIP3    H238844   5.704   1.965   3.837 -0.1216 -0.0911 -3.1084
 5785TIP3   OH238845   4.073   2.630   4.310  0.0559 -0.3712 -0.5555
 5785TIP3    H138846   4.160   2.590   4.311  0.9736  1.5398 -0.5570
 5785TIP3    H238847   4.049   2.639   4.402  0.3972  0.2032 -0.5207
 5786TIP3   OH238848   0.882   3.558  11.546 -0.4180  0.0664 -0.5924
 5786TIP3    H138849   0.976   3.575  11.532 -0.5947  1.3505 -0.2365
 5786TIP3    H238850   0.851   3.526  11.461  0.1848  0.3781 -0.9343
 5787TIP3   OH238851   6.350   2.448  17.032 -0.3414  0.5234 -0.4815
 5787TIP3    H138852   6.270   2.493  17.059  0.2442  0.3447  1.6199
 5787TIP3    H238853   6.418   2.516  17.034  0.0456  0.1230  0.2205
 5788TIP3   OH238854   0.376   5.432  12.419 -0.1929 -0.1166  0.3154
 5788TIP3    H138855   0.367   5.525  12.439  2.6314  0.1850  0.3305
 5788TIP3    H238856   0.323   5.419  12.340 -0.1093  1.6470 -0.0545
 5789TIP3   OH238857   3.582   0.389  11.762  0.0814 -0.0970 -0.0861
 5789TIP3    H138858   3.562   0.384  11.855  1.0904  0.6677  0.1807
 5789TIP3    H238859   3.514   0.445  11.725  1.0352  1.5531  0.6149
 5790TIP3   OH238860   3.871   1.419  16.395 -0.0890  0.0523 -0.1612
 5790TIP3    H138861   3.856   1.486  16.461  0.7457  0.2416 -0.1609
 5790TIP3    H238862   3.892   1.340  16.445  1.1547  0.3488 -0.2122
 5791TIP3   OH238863   5.793   5.132  17.125  0.0812  0.5445 -0.0806
 5791TIP3    H138864   5.704   5.165  17.135 -0.5565 -0.7220 -1.3295
 5791TIP3    H238865   5.848   5.199  17.165 -1.5396  0.4833  2.3587
 5792TIP3   OH238866   5.041   0.571  14.317  0.2573 -0.6315 -0.3041
 5792TIP3    H138867   5.101   0.637  14.353  0.7673 -1.3750  0.2407
 5792TIP3    H238868   4.957   0.590  14.359  0.6450 -0.9540  0.6519
 5793TIP3   OH238869   2.284   4.352  15.168 -0.2065  0.2726 -0.1305
 5793TIP3    H138870   2.213   4.403  15.208  1.3034  0.4983  2.4088
 5793TIP3    H238871   2.361   4.409  15.174  0.5029 -0.5156 -1.5345
 5794TIP3   OH238872   3.899   0.181  14.840 -0.7234 -0.5263  0.4802
 5794TIP3    H138873   3.888   0.221  14.754 -1.7281 -2.1218 -0.1644
 5794TIP3    H238874   3.879   0.252  14.902  2.6608  1.3730 -0.5132
 5795TIP3   OH238875   2.570   4.588  16.421 -0.4127  1.1412 -0.4862
 5795TIP3    H138876   2.485   4.562  16.384  0.1124 -0.0966 -0.8646
 5795TIP3    H238877   2.600   4.658  16.363 -0.7056  0.8702 -0.9747
 5796TIP3   OH238878   2.384   4.676   1.401  0.1249  0.3690  0.2523
 5796TIP3    H138879   2.442   4.737   1.355  1.3251 -0.2805  0.8627
 5796TIP3    H238880   2.434   4.650   1.479 -0.6207 -0.9055  0.3213
 5797TIP3   OH238881   4.912   3.948  12.059 -0.7703  0.3378  0.3101
 5797TIP3    H138882   4.936   3.934  12.151 -0.1823 -1.9554 -0.1596
 5797TIP3    H238883   4.984   3.998  12.023  0.1775 -0.8768  0.5064
 5798TIP3   OH238884   2.596   1.347  10.555 -0.3121 -0.5160 -0.8577
 5798TIP3    H138885   2.594   1.290  10.632  0.1397  1.8371  0.9173
 5798TIP3    H238886   2.688   1.370  10.544 -0.8710  2.4415  0.3923
 5799TIP3   OH238887   0.987   6.763  13.865 -0.4008  0.2976  0.4591
 5799TIP3    H138888   0.951   6.715  13.940  3.0720  1.4336  3.0162
 5799TIP3    H238889   0.946   6.849  13.870 -0.6569  0.1643  0.6909
 5800TIP3   OH238890   4.270   3.078   1.265 -0.2352  0.4532 -0.1584
 5800TIP3    H138891   4.188   3.103   1.307 -0.8213 -0.1421 -0.9269
 5800TIP3    H238892   4.327   3.154   1.275 -0.4695  0.4287  1.4352
 5801TIP3   OH238893   1.933   2.932   0.511  0.5447  0.4655 -0.0697
 5801TIP3    H138894   1.851   2.883   0.522  1.3348 -0.9982 -0.6709
 5801TIP3    H238895   1.908   3.023   0.529 -0.7002 -0.2581  2.0942
 5802TIP3   OH238896   0.539   6.383  11.908  0.7517 -0.3550  0.8044
 5802TIP3    H138897   0.532   6.438  11.987  1.3197 -0.8655  1.2107
 5802TIP3    H238898   0.624   6.406  11.871 -0.4307  1.5031 -0.8925
 5803TIP3   OH238899   1.282   2.092  13.455  0.5696  0.3457  0.3409
 5803TIP3    H138900   1.307   2.113  13.545 -0.5667 -0.3720  0.8311
 5803TIP3    H238901   1.188   2.075  13.459  1.1005 -3.2088 -0.3031
 5804TIP3   OH238902   5.971   0.678   4.354 -0.2728  0.7058  0.3543
 5804TIP3    H138903   5.956   0.668   4.448  2.7049  0.0985  0.8296
 5804TIP3    H238904   6.044   0.740   4.348  0.8063 -0.6688 -1.4570
 5805TIP3   OH238905   6.226   1.222   5.932 -0.4461  0.1612  0.4876
 5805TIP3    H138906   6.200   1.314   5.929  1.8038  0.7894 -0.8095
 5805TIP3    H238907   6.270   1.212   6.016  1.1836  0.8287 -0.2643
 5806TIP3   OH238908   0.889   3.659   4.959  0.3153 -0.1399 -0.0742
 5806TIP3    H138909   0.961   3.692   5.013  0.5740 -1.4230  0.3891
 5806TIP3    H238910   0.811   3.702   4.993  0.8149  0.9952 -0.3442
 5807TIP3   OH238911   0.815   6.777   0.275  0.1929 -0.6415 -0.2182
 5807TIP3    H138912   0.907   6.751   0.268  0.9679  1.8302  0.1834
 5807TIP3    H238913   0.801   6.791   0.369 -0.7799 -1.5648 -0.2121
 5808TIP3   OH238914   5.329   2.841  16.409 -0.4230 -0.2385  0.4429
 5808TIP3    H138915   5.381   2.850  16.330  0.1157  1.7211  0.9938
 5808TIP3    H238916   5.271   2.917  16.409  0.8840  0.8263  2.8540
 5809TIP3   OH238917   6.280   3.279  14.855  0.6175  0.0054 -0.1262
 5809TIP3    H138918   6.200   3.315  14.817  0.3636 -0.4058  0.0122
 5809TIP3    H238919   6.338   3.354  14.863 -0.1079  0.4926  0.6773
 5810TIP3   OH238920   0.496   0.204   2.468  0.3286  0.3368 -0.2298
 5810TIP3    H138921   0.561   0.274   2.467 -0.2516  0.8774 -1.8508
 5810TIP3    H238922   0.412   0.249   2.465 -0.1040 -0.3885  0.6425
 5811TIP3   OH238923   4.512   4.601   4.830  0.3315  0.0441 -0.2865
 5811TIP3    H138924   4.467   4.561   4.755  1.7758  0.4482 -1.3842
 5811TIP3    H238925   4.600   4.621   4.797  1.0432  0.0462  1.5782
 5812TIP3   OH238926   6.624   3.684  17.204 -0.2320  0.1967  0.2768
 5812TIP3    H138927   6.697   3.691  17.265  1.2940 -3.7788 -0.9331
 5812TIP3    H238928   6.548   3.663  17.259  0.6913 -1.1700  1.0560
 5813TIP3   OH238929   0.732   5.338  15.876 -0.2145 -0.0063 -0.3996
 5813TIP3    H138930   0.770   5.345  15.789 -1.0088 -1.1123 -0.8418
 5813TIP3    H238931   0.637   5.344  15.862 -0.3288  0.1625  0.4215
 5814TIP3   OH238932   5.619   3.097   2.693  0.0449  0.1773 -0.4818
 5814TIP3    H138933   5.614   3.142   2.609 -0.5392 -1.0653 -1.1117
 5814TIP3    H238934   5.588   3.009   2.676  0.2735 -0.2014  0.9615
 5815TIP3   OH238935   0.080   1.833  11.944 -0.1013 -0.5135 -0.5282
 5815TIP3    H138936   0.056   1.922  11.970 -1.6009 -1.1164  0.2537
 5815TIP3    H238937   0.100   1.789  12.027  1.2545 -0.7428 -0.9652
 5816TIP3   OH238938   4.547   3.965   4.885  0.6118  0.1733 -0.5214
 5816TIP3    H138939   4.581   4.045   4.926 -0.8811 -0.3767  1.9458
 5816TIP3    H238940   4.452   3.979   4.883  0.3828 -1.3652 -0.4023
 5817TIP3   OH238941   0.257   2.083  13.414 -0.4465 -0.2942  0.2547
 5817TIP3    H138942   0.201   2.159  13.400  1.0921  0.7923 -0.1416
 5817TIP3    H238943   0.239   2.025  13.340 -0.5671  0.3421 -0.2141
 5818TIP3   OH238944   6.035   4.949  16.477  0.6039  0.2560 -0.0433
 5818TIP3    H138945   5.996   5.002  16.408  1.3947  0.4021 -0.3819
 5818TIP3    H238946   6.089   5.011  16.527  0.9966 -0.0907 -0.0317
 5819TIP3   OH238947   0.677   6.264  14.387 -0.3809  0.1753 -0.3566
 5819TIP3    H138948   0.624   6.254  14.467  1.0187 -0.3205  0.5216
 5819TIP3    H238949   0.767   6.248  14.416  0.5209  3.0567 -1.4041
 5820TIP3   OH238950   6.422   5.696  13.529 -0.0259 -0.1347  0.1450
 5820TIP3    H138951   6.434   5.608  13.564  2.0107  0.1387  0.1936
 5820TIP3    H238952   6.410   5.683  13.435 -2.5106 -0.6458  0.5069
 5821TIP3   OH238953   0.183   3.856  13.565  0.0374  0.4413 -0.3821
 5821TIP3    H138954   0.133   3.851  13.646 -1.0081  0.8364 -0.9931
 5821TIP3    H238955   0.230   3.939  13.570  1.1030 -0.2043  0.4581
 5822TIP3   OH238956   4.009   6.067   5.841 -0.4178  0.2992  0.2134
 5822TIP3    H138957   4.009   6.053   5.936 -0.8948 -1.3538 -0.0063
 5822TIP3    H238958   4.100   6.059   5.816 -0.1269  1.9177  0.6702
 5823TIP3   OH238959   0.461   4.822   3.435 -0.3304 -0.0757 -0.0793
 5823TIP3    H138960   0.531   4.844   3.373  0.3939  0.6833  1.0041
 5823TIP3    H238961   0.382   4.861   3.398  0.3790  1.7176  0.2473
 5824TIP3   OH238962   5.236   4.449  15.606  0.3434 -0.6316 -0.2457
 5824TIP3    H138963   5.224   4.399  15.688  1.6798 -2.2853 -1.0178
 5824TIP3    H238964   5.148   4.476  15.582 -0.4201 -2.5421  0.2762
 5825TIP3   OH238965   4.151   5.862   2.122  0.0565 -0.0315  0.2413
 5825TIP3    H138966   4.110   5.949   2.119  0.1816  0.0216  0.0240
 5825TIP3    H238967   4.119   5.823   2.203  0.3676  0.3950  0.5705
 5826TIP3   OH238968   4.286   3.674   0.443  0.0801  0.5955  0.7092
 5826TIP3    H138969   4.192   3.669   0.426  0.1815 -1.3702  0.6250
 5826TIP3    H238970   4.302   3.767   0.461 -2.0846  0.7710  1.9734
 5827TIP3   OH238971   3.697   5.449   4.760  0.1725  0.3285 -0.3827
 5827TIP3    H138972   3.695   5.544   4.744  0.5968  0.0445 -2.2479
 5827TIP3    H238973   3.650   5.411   4.686  1.7537 -1.0319 -0.7203
 5828TIP3   OH238974   1.968   0.775  15.430  0.4690  0.3741 -0.2010
 5828TIP3    H138975   1.983   0.743  15.341  2.5819 -1.0728  0.6432
 5828TIP3    H238976   2.056   0.785  15.467 -0.3502  1.7915  1.4623
 5829TIP3   OH238977   3.790   3.915   1.766 -0.5102  0.0217  0.7710
 5829TIP3    H138978   3.707   3.961   1.767 -1.5455 -1.7741 -0.5278
 5829TIP3    H238979   3.834   3.945   1.687 -1.2034 -1.2285 -0.0977
 5830TIP3   OH238980   3.066   4.834   4.253  1.0009 -0.7538 -0.1346
 5830TIP3    H138981   2.983   4.830   4.206  1.3523 -1.4093 -0.6934
 5830TIP3    H238982   3.109   4.913   4.220  0.9881 -0.8923 -0.4728
 5831TIP3   OH238983   4.040   2.138  16.499 -0.0882  0.3119  0.0404
 5831TIP3    H138984   4.110   2.202  16.510 -0.4852  0.6451  0.6939
 5831TIP3    H238985   4.005   2.126  16.588  0.6131 -1.5263  0.0987
 5832TIP3   OH238986   6.811   6.395   3.000 -0.1263  0.7056  0.1328
 5832TIP3    H138987   6.888   6.343   3.023 -0.7195 -0.9178 -1.3890
 5832TIP3    H238988   6.847   6.478   2.969  0.9899  0.2429  0.1375
 5833TIP3   OH238989   5.410   4.524   0.397  0.4848  0.1505 -0.1500
 5833TIP3    H138990   5.486   4.482   0.436  1.2130  0.7800 -0.8643
 5833TIP3    H238991   5.435   4.616   0.387  0.1608  0.0921 -1.6722
 5834TIP3   OH238992   2.636   1.136   0.809  0.1211 -0.8897  0.1062
 5834TIP3    H138993   2.659   1.079   0.736  2.6740 -0.8870  0.8712
 5834TIP3    H238994   2.621   1.222   0.769 -0.6426 -1.3785 -0.6597
 5835TIP3   OH238995   1.507   5.192   6.338  0.0459  0.4801 -0.2498
 5835TIP3    H138996   1.578   5.131   6.316 -0.1503  0.6232 -1.3140
 5835TIP3    H238997   1.439   5.137   6.376 -0.2006 -0.0043 -1.3669
 5836TIP3   OH238998   0.864   6.416   4.605 -0.5465 -0.0068  0.5690
 5836TIP3    H138999   0.888   6.498   4.561 -0.8248 -0.2957 -0.1305
 5836TIP3    H239000   0.811   6.444   4.679  1.8524  0.6329  2.1072
 5837TIP3   OH239001   0.497   3.383   3.779 -0.3026 -0.3934 -0.7313
 5837TIP3    H139002   0.519   3.303   3.828 -1.1295  0.2577  0.7280
 5837TIP3    H239003   0.402   3.386   3.780 -0.3419 -0.3535 -2.4123
 5838TIP3   OH239004   2.252   5.202   3.374 -0.4722  0.1577  0.3804
 5838TIP3    H139005   2.206   5.145   3.435 -2.3233  0.3960 -0.7542
 5838TIP3    H239006   2.259   5.151   3.294  0.1389  0.6012  0.1402
 5839TIP3   OH239007   1.967   5.073   4.529  0.2420  0.0027  0.9538
 5839TIP3    H139008   2.052   5.060   4.572  0.5479  0.5145  0.5158
 5839TIP3    H239009   1.912   5.111   4.597  0.5616  0.3006  1.0484
 5840TIP3   OH239010   5.702   4.789  13.995  0.0410 -0.3423  0.0145
 5840TIP3    H139011   5.661   4.743  14.068 -1.2469  1.5892  0.5739
 5840TIP3    H239012   5.772   4.840  14.035 -1.2544  1.4383  0.0936
 5841TIP3   OH239013   4.599   1.076   5.536  0.2828 -0.5689 -0.3089
 5841TIP3    H139014   4.556   1.088   5.620  1.4685 -2.4755  0.6078
 5841TIP3    H239015   4.542   1.017   5.487  1.1169 -1.9736  0.3752
 5842TIP3   OH239016   1.686   3.257   0.023  0.0921  0.1911  0.0187
 5842TIP3    H139017   1.612   3.285  -0.031 -0.0781  2.6642  1.4563
 5842TIP3    H239018   1.647   3.205   0.093  0.2080 -2.1611 -1.6098
 5843TIP3   OH239019   3.665   0.398   2.681 -0.5262 -0.0697  0.6416
 5843TIP3    H139020   3.635   0.410   2.771 -0.1024  0.8056  0.6733
 5843TIP3    H239021   3.606   0.452   2.629  0.2777  0.7740  0.5865
 5844TIP3   OH239022   1.540   4.441   1.763 -0.3743 -0.2696 -0.1427
 5844TIP3    H139023   1.451   4.406   1.773 -1.2282  1.7231 -0.6697
 5844TIP3    H239024   1.568   4.410   1.677 -0.6129 -0.7242 -0.0624
 5845TIP3   OH239025   6.177   3.820   0.865  0.0984  0.5188 -0.6413
 5845TIP3    H139026   6.236   3.828   0.940 -0.4934  3.1646 -0.4224
 5845TIP3    H239027   6.219   3.868   0.795 -0.2132 -0.4297 -1.4979
 5846TIP3   OH239028   0.101   2.458   5.383 -0.1862 -0.0746 -0.2728
 5846TIP3    H139029   0.158   2.462   5.306 -0.1209  0.2511 -0.2085
 5846TIP3    H239030   0.014   2.440   5.347  0.2046 -2.1832 -0.2605
 5847TIP3   OH239031   5.393   5.606   5.219 -0.0635 -0.0508 -0.1370
 5847TIP3    H139032   5.397   5.543   5.291 -1.3640  0.7620  0.6624
 5847TIP3    H239033   5.355   5.556   5.146 -4.2424  0.5972  1.4527
 5848TIP3   OH239034   1.287   0.003  16.686  0.1126  0.0897  0.2320
 5848TIP3    H139035   1.229   0.059  16.633 -1.3448 -2.8043 -1.3617
 5848TIP3    H239036   1.361  -0.016  16.628 -0.2512 -1.0288  0.1275
 5849TIP3   OH239037   6.355   0.252  12.591  0.0884  0.2668 -0.9608
 5849TIP3    H139038   6.349   0.296  12.506  1.6993 -0.3369 -1.4144
 5849TIP3    H239039   6.422   0.185  12.578  0.4309  0.2373  0.8258
 5850TIP3   OH239040   4.276   3.516  14.333 -0.5119  0.1725  0.0160
 5850TIP3    H139041   4.235   3.530  14.248 -0.1304  1.2195  0.0047
 5850TIP3    H239042   4.368   3.500  14.314 -0.5980 -0.5280  0.1663
 5851TIP3   OH239043   0.670   6.484  14.208 -0.4483  0.4353  0.9984
 5851TIP3    H139044   0.579   6.493  14.182 -0.7141 -0.2154  1.6937
 5851TIP3    H239045   0.669   6.424  14.282  0.8422 -1.9374 -0.8296
 5852TIP3   OH239046   2.475   0.684  14.992  0.1951 -0.1456 -0.1290
 5852TIP3    H139047   2.495   0.665  15.084 -1.0946 -0.3700  0.1112
 5852TIP3    H239048   2.458   0.599  14.953 -0.9829  0.0904 -0.1528
 5853TIP3   OH239049   5.992   0.741   0.719  0.4753  0.2741  0.0498
 5853TIP3    H139050   5.929   0.754   0.790 -0.6006 -1.5054 -0.5518
 5853TIP3    H239051   5.946   0.770   0.640 -0.0402 -2.0442 -0.5463
 5854TIP3   OH239052   1.388   6.150  16.405 -1.0118 -0.2850 -0.0256
 5854TIP3    H139053   1.369   6.163  16.312  0.5720  1.8827 -0.0776
 5854TIP3    H239054   1.454   6.081  16.406 -1.0024 -0.2850 -0.5040
 5855TIP3   OH239055   6.404   2.495  14.018  0.2054  0.2523  0.1576
 5855TIP3    H139056   6.391   2.451  13.934 -0.9799 -0.4238  0.6885
 5855TIP3    H239057   6.445   2.578  13.995  0.8627 -0.3765 -0.9982
 5856TIP3   OH239058   6.731   4.503  14.723 -1.0362 -0.4681 -0.4737
 5856TIP3    H139059   6.704   4.530  14.811  0.3080  4.6766 -1.4434
 5856TIP3    H239060   6.826   4.516  14.722 -1.0729 -0.1424 -2.7532
 5857TIP3   OH239061   5.775   5.079   4.342  0.1199  0.0590  0.1981
 5857TIP3    H139062   5.690   5.065   4.300  0.7299 -3.3889 -0.1047
 5857TIP3    H239063   5.765   5.040   4.429  1.6494 -1.3227 -0.2128
 5858TIP3   OH239064   2.155   5.656  14.141  0.1011 -0.1745 -0.6961
 5858TIP3    H139065   2.107   5.618  14.214  4.3241  0.4758  2.6438
 5858TIP3    H239066   2.128   5.748  14.140 -0.6631 -0.3971 -0.5320
 5859TIP3   OH239067   3.368   4.883   1.036  0.0591  0.3888 -0.0174
 5859TIP3    H139068   3.312   4.849   0.967  0.7948  0.5495 -0.6976
 5859TIP3    H239069   3.447   4.829   1.032 -0.1026  0.0653  1.0273
 5860TIP3   OH239070   1.146   5.249  12.438 -0.4918 -0.6852  0.1835
 5860TIP3    H139071   1.182   5.195  12.509 -1.6811 -0.7488  0.7369
 5860TIP3    H239072   1.163   5.339  12.466 -2.7982 -0.6297  1.5730
 5861TIP3   OH239073   3.933   6.800  14.595  0.1140  0.2242 -0.0863
 5861TIP3    H139074   3.850   6.752  14.603  0.6338 -1.1392 -2.6320
 5861TIP3    H239075   3.991   6.757  14.658 -1.0753  1.1683  1.6944
 5862TIP3   OH239076   4.598   5.536   4.240 -0.0419 -0.0380  0.6674
 5862TIP3    H139077   4.613   5.550   4.333 -2.4046  4.1827  0.5365
 5862TIP3    H239078   4.537   5.463   4.236 -0.3392  0.0949  2.4598
 5863TIP3   OH239079   6.271   4.869  10.795 -0.1919  0.7193 -0.0696
 5863TIP3    H139080   6.357   4.911  10.794  0.3133 -0.2154 -3.8703
 5863TIP3    H239081   6.275   4.806  10.724 -3.8752  0.2864  0.0344
 5864TIP3   OH239082   3.771   4.780  12.967  0.4871 -0.5067 -0.0098
 5864TIP3    H139083   3.854   4.825  12.950  1.0250 -1.5671 -0.2393
 5864TIP3    H239084   3.757   4.790  13.061  1.6771 -1.6362  0.3109
 5865TIP3   OH239085   0.412   6.613   3.659 -0.2732  0.1562 -0.1616
 5865TIP3    H139086   0.414   6.531   3.707 -0.9725 -0.5389 -1.2776
 5865TIP3    H239087   0.475   6.670   3.703  0.9311 -1.3168  0.0316
 5866TIP3   OH239088   3.832   4.906   0.158 -0.1341  0.0434 -0.0287
 5866TIP3    H139089   3.843   4.871   0.246  1.5235 -1.3343 -0.7634
 5866TIP3    H239090   3.759   4.856   0.121 -0.7592  0.5491  0.5007
 5867TIP3   OH239091   2.098   0.689  16.639 -0.3572  0.2322  0.2104
 5867TIP3    H139092   2.170   0.655  16.585 -0.2244  1.8968 -0.7112
 5867TIP3    H239093   2.072   0.770  16.595 -2.7027 -0.2703  0.6283
 5868TIP3   OH239094   6.242   6.178   3.036  0.0004  0.0683 -0.1641
 5868TIP3    H139095   6.225   6.179   2.942 -2.2191 -0.1331  0.2176
 5868TIP3    H239096   6.336   6.193   3.043  0.2186 -0.0688 -2.4181
 5869TIP3   OH239097   6.698   3.604  12.408  0.7598 -0.1027 -0.2656
 5869TIP3    H139098   6.784   3.591  12.368  0.3306 -0.7663 -0.9832
 5869TIP3    H239099   6.696   3.541  12.481  2.7073  3.1235  2.7586
 5870TIP3   OH239100   0.380   3.827   1.511  0.1194  0.2528  0.3055
 5870TIP3    H139101   0.448   3.764   1.535  1.2457  1.4429  0.3280
 5870TIP3    H239102   0.372   3.820   1.416  0.6161  0.4324  0.2487
 5871TIP3   OH239103   5.226   1.778  12.120  0.1193  0.3586  0.2639
 5871TIP3    H139104   5.147   1.766  12.067  0.6602 -2.2983 -0.0002
 5871TIP3    H239105   5.202   1.746  12.207  1.1540 -1.3667 -0.0558
 5872TIP3   OH239106   0.280   6.627  14.787 -0.3922 -0.3201 -0.3068
 5872TIP3    H139107   0.341   6.584  14.728 -1.6962 -1.0265 -1.1808
 5872TIP3    H239108   0.249   6.704  14.739  1.2129  1.1121  0.8833
 5873TIP3   OH239109   2.536   3.512   0.428  0.5091 -0.3805 -0.9265
 5873TIP3    H139110   2.441   3.512   0.440  0.6136 -1.0047 -0.1149
 5873TIP3    H239111   2.571   3.497   0.515  1.3702  0.3529 -1.1441
 5874TIP3   OH239112   3.545   5.525   0.243  0.3116 -0.2098  0.2415
 5874TIP3    H139113   3.572   5.603   0.290  0.6286 -0.3075  0.2227
 5874TIP3    H239114   3.601   5.455   0.277 -0.7139 -0.6588  1.0562
 5875TIP3   OH239115   6.000   6.322   5.259 -0.0057  0.3744  0.0181
 5875TIP3    H139116   5.906   6.337   5.263 -0.1028 -0.3162  0.4075
 5875TIP3    H239117   6.027   6.357   5.174 -1.1169 -2.1580 -1.4369
 5876TIP3   OH239118   6.167   5.518  14.277  0.5599 -0.3166 -0.0802
 5876TIP3    H139119   6.157   5.556  14.364 -0.5613  0.1371 -0.3950
 5876TIP3    H239120   6.109   5.569  14.221 -1.2879 -2.7182 -0.4422
 5877TIP3   OH239121   2.836   5.101   1.541  0.1679 -0.7218  0.4686
 5877TIP3    H139122   2.910   5.162   1.542 -1.0785  0.8253 -0.5719
 5877TIP3    H239123   2.787   5.120   1.621 -1.5290  1.3022 -1.0154
 5878TIP3   OH239124   2.181   2.415  11.633  0.3541  0.4622  0.0419
 5878TIP3    H139125   2.100   2.465  11.642 -0.5084 -0.8974 -0.0205
 5878TIP3    H239126   2.229   2.459  11.563  0.1521  1.9033  0.7926
 5879TIP3   OH239127   5.056   0.218  13.558 -0.3971  0.3569 -0.0859
 5879TIP3    H139128   4.972   0.263  13.563 -1.2020 -1.1783  0.4891
 5879TIP3    H239129   5.067   0.198  13.465 -0.1826  1.4163 -0.3024
 5880TIP3   OH239130   2.704   0.956  12.434  0.0800 -0.4284 -0.4467
 5880TIP3    H139131   2.683   1.047  12.454  0.3785 -0.6505  0.9460
 5880TIP3    H239132   2.764   0.960  12.360 -1.6740  0.3975 -1.8759
 5881TIP3   OH239133   5.260   3.820   4.769 -0.3150 -0.1667  0.1422
 5881TIP3    H139134   5.339   3.872   4.789 -1.1087  1.7127 -1.4888
 5881TIP3    H239135   5.199   3.844   4.839 -0.9755  1.7850 -1.0738
 5882TIP3   OH239136   5.408   4.373  17.150  0.2682  0.0458 -0.3382
 5882TIP3    H139137   5.418   4.294  17.204  0.8607 -0.0505 -0.5817
 5882TIP3    H239138   5.486   4.373  17.094  0.4132  0.9549 -0.1423
 5883TIP3   OH239139   0.530   5.759  16.653  0.5054  0.4466 -0.5047
 5883TIP3    H139140   0.520   5.715  16.568 -0.0705 -0.3804 -0.0181
 5883TIP3    H239141   0.535   5.852  16.631 -0.9077  0.3499 -1.3631
 5884TIP3   OH239142   5.704   5.966  14.054 -0.3719 -0.0711  0.5431
 5884TIP3    H139143   5.768   5.919  14.000  1.1378  0.4210  1.8678
 5884TIP3    H239144   5.650   6.014  13.991  0.8309 -0.1391 -0.5633
 5885TIP3   OH239145   4.418   3.514   4.596 -0.0962  0.0728  0.1112
 5885TIP3    H139146   4.510   3.489   4.581  0.4648  3.1633 -2.0636
 5885TIP3    H239147   4.423   3.586   4.659 -1.2390 -1.3046  1.8142
 5886TIP3   OH239148   4.042   5.936  11.578  0.1501  0.3569  0.2029
 5886TIP3    H139149   4.014   6.024  11.605 -2.6582 -0.8302  1.2789
 5886TIP3    H239150   4.101   5.908  11.648 -1.9481 -0.0951  1.8306
 5887TIP3   OH239151   2.729   5.020   0.618 -0.4324  0.0309  0.5407
 5887TIP3    H139152   2.701   5.073   0.693  0.0672  1.1404 -0.0519
 5887TIP3    H239153   2.806   5.065   0.584  0.1392 -1.2064  0.1686
 5888TIP3   OH239154   4.853   2.562   0.087  0.1650 -0.0001  0.8192
 5888TIP3    H139155   4.849   2.628   0.157  0.3555  1.0802 -0.1711
 5888TIP3    H239156   4.939   2.574   0.048  0.9749 -2.1663  1.8905
 5889TIP3   OH239157   5.721   1.415  13.420  0.0532 -0.9145  0.0859
 5889TIP3    H139158   5.715   1.323  13.445 -0.5675 -1.0254 -0.4664
 5889TIP3    H239159   5.686   1.419  13.330 -5.1404  0.6736  1.9514
 5890TIP3   OH239160   6.066   0.800  12.569  0.2127 -0.0870  0.0545
 5890TIP3    H139161   5.982   0.779  12.610  0.2379  1.1321  0.7571
 5890TIP3    H239162   6.050   0.790  12.475 -0.7345  0.1768  0.1836
 5891TIP3   OH239163   0.331   4.831   0.943  0.4779 -0.2308 -0.2245
 5891TIP3    H139164   0.395   4.845   0.873  0.2757 -0.6005 -0.4926
 5891TIP3    H239165   0.247   4.826   0.897  0.1758  0.9226  0.1958
 5892TIP3   OH239166   0.502   4.786  12.930 -0.4794 -0.2149  0.0474
 5892TIP3    H139167   0.500   4.732  13.009  3.5511 -0.1563  0.2655
 5892TIP3    H239168   0.468   4.729  12.861 -1.0466 -1.3240  1.2276
 5893TIP3   OH239169   0.334   5.677  16.008  0.4653  0.1683 -0.4988
 5893TIP3    H139170   0.369   5.605  16.061 -0.1005  1.4078  1.6095
 5893TIP3    H239171   0.379   5.755  16.041 -0.4805  1.0703 -1.3179
 5894TIP3   OH239172   6.357   2.647  16.470 -0.2339  0.0435 -0.1735
 5894TIP3    H139173   6.339   2.658  16.563 -0.3015 -0.9326 -0.0640
 5894TIP3    H239174   6.413   2.569  16.465  1.6608  1.4274 -0.7544
 5895TIP3   OH239175   0.719   5.095   4.317 -0.0718 -0.1476 -0.5343
 5895TIP3    H139176   0.672   5.167   4.275 -0.5290 -1.0390 -1.5661
 5895TIP3    H239177   0.650   5.044   4.360  0.0886 -0.6974 -0.9208
 5896TIP3   OH239178   0.512   1.444   1.627 -0.1101  0.6687 -0.5374
 5896TIP3    H139179   0.593   1.392   1.630  0.3029  1.2332 -1.9400
 5896TIP3    H239180   0.489   1.447   1.535 -0.5551  2.3552 -0.3736
 5897TIP3   OH239181   0.950   6.261  12.221 -0.3057 -0.1965 -0.2772
 5897TIP3    H139182   0.941   6.276  12.127 -0.9876 -2.8836 -0.6818
 5897TIP3    H239183   0.993   6.175  12.228 -0.0685  0.0674  1.8605
 5898TIP3   OH239184   1.795   6.387  15.483 -0.0891 -0.2191 -0.6808
 5898TIP3    H139185   1.707   6.375  15.448 -0.5915 -1.5751  0.9607
 5898TIP3    H239186   1.853   6.378  15.407 -1.2994 -0.4348 -1.5870
 5899TIP3   OH239187   2.498   4.646   2.687  0.6658  0.3541 -0.0668
 5899TIP3    H139188   2.438   4.609   2.622  1.8248  0.9701 -1.5220
 5899TIP3    H239189   2.580   4.599   2.672  1.2188  1.2043  0.2714
 5900TIP3   OH239190   3.848   5.046   2.520 -0.1734 -0.0112 -0.5903
 5900TIP3    H139191   3.907   5.122   2.524  1.7067 -1.4325 -0.5324
 5900TIP3    H239192   3.763   5.080   2.548  1.1667  1.5510  1.7445
 5901TIP3   OH239193   2.576   4.318  16.343  0.1348 -0.2360  0.2537
 5901TIP3    H139194   2.595   4.331  16.250  0.3712 -0.9995  0.1908
 5901TIP3    H239195   2.661   4.313  16.385  0.0848  3.6745  1.0644
 5902TIP3   OH239196   1.135   6.357   5.416  0.9156  0.7428 -0.2211
 5902TIP3    H139197   1.204   6.301   5.450  0.4365 -0.4284 -1.1794
 5902TIP3    H239198   1.088   6.386   5.494  0.5552 -0.9774  0.2228
 5903TIP3   OH239199   5.631   6.494   0.121  0.2615  0.0980 -0.0458
 5903TIP3    H139200   5.621   6.411   0.074  1.4636 -0.2398  0.2833
 5903TIP3    H239201   5.705   6.537   0.079  0.7669  0.2019  0.9532
 5904TIP3   OH239202   5.576   5.184  11.400 -0.0957  0.7716  0.4313
 5904TIP3    H139203   5.482   5.197  11.413 -0.9845 -4.2338  0.3260
 5904TIP3    H239204   5.581   5.128  11.322  3.1197  2.6572 -0.7711
 5905TIP3   OH239205   4.779   4.928  11.879 -0.1759  0.4956  0.5469
 5905TIP3    H139206   4.776   4.994  11.947  0.4792  0.9121  0.1715
 5905TIP3    H239207   4.731   4.966  11.805 -0.3614  0.2896  0.5591
 5906TIP3   OH239208   1.529   2.582  12.937  0.5039  0.5723  0.0144
 5906TIP3    H139209   1.604   2.641  12.927  1.3880 -0.5924 -0.2866
 5906TIP3    H239210   1.487   2.611  13.018  2.0517  0.3880  0.9056
 5907TIP3   OH239211   4.043   3.600  14.562  0.0721  0.1517 -0.3284
 5907TIP3    H139212   3.952   3.573  14.562  0.4557 -1.1624 -0.3290
 5907TIP3    H239213   4.068   3.604  14.470 -0.1541  1.1179 -0.3521
 5908TIP3   OH239214   6.610   6.549  12.298  0.2395  0.1714  0.7773
 5908TIP3    H139215   6.573   6.604  12.230 -2.2389 -1.0758  1.0730
 5908TIP3    H239216   6.650   6.476  12.252  0.2598  0.3106  0.5750
 5909TIP3   OH239217   0.651   5.285  14.558 -0.0884  0.5221 -0.1325
 5909TIP3    H139218   0.710   5.275  14.633  1.0319 -0.7265 -1.1564
 5909TIP3    H239219   0.622   5.196  14.538  0.0587  0.7757 -1.5286
 5910TIP3   OH239220   1.321   6.749  14.428  0.1514 -0.2301 -0.1276
 5910TIP3    H139221   1.353   6.839  14.426  0.3991 -0.3241 -0.6458
 5910TIP3    H239222   1.262   6.745  14.503  1.7405 -0.1923  1.1532
 5911TIP3   OH239223   0.488   6.013  17.241 -0.3960  0.1939  0.0746
 5911TIP3    H139224   0.506   5.925  17.206  0.3995  0.4428 -0.1525
 5911TIP3    H239225   0.409   6.041  17.194  0.0863  0.1171 -0.8007
 5912TIP3   OH239226   3.478   0.048  10.761 -0.0336 -0.0401 -0.5659
 5912TIP3    H139227   3.479  -0.038  10.719 -0.5051  0.0490 -0.7704
 5912TIP3    H239228   3.396   0.049  10.812  0.9653 -0.4985  1.1075
 5913TIP3   OH239229   2.002   5.739  10.317  0.2401 -0.1571  0.7984
 5913TIP3    H139230   1.925   5.756  10.370  0.4884 -0.3785  1.2318
 5913TIP3    H239231   1.999   5.645  10.297 -0.0982  0.0115  0.0305
 5914TIP3   OH239232   4.729   0.258   4.526 -0.0591 -0.0641 -0.3405
 5914TIP3    H139233   4.661   0.192   4.513 -1.1022  0.8942  0.2140
 5914TIP3    H239234   4.760   0.279   4.438 -0.0675 -0.9280 -0.5492
 5915TIP3   OH239235   6.429   3.416   5.923  0.3898 -0.8850  0.3062
 5915TIP3    H139236   6.347   3.369   5.909  0.0393  0.0015 -0.7363
 5915TIP3    H239237   6.475   3.409   5.839 -0.1966  1.6082 -0.2491
 5916TIP3   OH239238   1.566   4.245   0.842 -0.2246  0.0056  0.7553
 5916TIP3    H139239   1.650   4.216   0.808 -1.1933  1.2767 -2.9370
 5916TIP3    H239240   1.539   4.176   0.902  2.2179 -1.6839 -0.0315
 5917TIP3   OH239241   5.705   1.451  11.843 -0.3080 -0.2538  0.2044
 5917TIP3    H139242   5.772   1.398  11.799 -0.7575 -1.0300  0.4560
 5917TIP3    H239243   5.682   1.518  11.778  1.2282  0.4604  0.3712
 5918TIP3   OH239244   0.288   6.164  13.263 -0.4372  0.5955 -0.1960
 5918TIP3    H139245   0.333   6.234  13.215  0.8920 -0.4985 -0.5840
 5918TIP3    H239246   0.290   6.193  13.354  0.2843  0.9831 -0.3242
 5919TIP3   OH239247   5.055   5.611  11.380  0.4051 -0.0190  0.3697
 5919TIP3    H139248   5.106   5.692  11.390 -2.0941  1.9266 -1.7491
 5919TIP3    H239249   5.083   5.575  11.296 -1.3095  0.8244 -0.5952
 5920TIP3   OH239250   4.029   2.445  11.652 -0.3909  0.5744  0.4415
 5920TIP3    H139251   3.944   2.485  11.631 -0.6889  0.1510  0.8339
 5920TIP3    H239252   4.060   2.493  11.729 -0.6326  0.2235  0.7615
 5921TIP3   OH239253   6.482   0.285   0.160 -0.0151  0.1273  0.4987
 5921TIP3    H139254   6.517   0.356   0.106 -0.0862  0.6293  1.1153
 5921TIP3    H239255   6.554   0.262   0.219  0.9619 -2.1451 -1.4723
 5922TIP3   OH239256   4.086   4.006   4.295  0.0876 -0.7087  0.5820
 5922TIP3    H139257   4.114   4.098   4.288  0.5885 -0.8893  0.1254
 5922TIP3    H239258   4.117   3.978   4.381  1.4068 -0.9327  0.0443
 5923TIP3   OH239259   3.246   4.044  13.816 -0.1245  0.1034  0.1722
 5923TIP3    H139260   3.158   4.011  13.834  0.9022 -2.8987  0.0281
 5923TIP3    H239261   3.295   4.028  13.897  0.8999 -0.5995 -0.5621
 5924TIP3   OH239262   2.874   5.091  15.937  0.3981 -0.0464 -0.1479
 5924TIP3    H139263   2.825   5.033  15.879  0.4331  0.5353 -0.7699
 5924TIP3    H239264   2.824   5.091  16.019  1.3471 -2.3164  0.4479
 5925TIP3   OH239265   1.392   2.688  13.854  0.7629 -0.1876 -0.2771
 5925TIP3    H139266   1.465   2.697  13.793 -0.7944 -0.8821 -2.3156
 5925TIP3    H239267   1.327   2.636  13.806 -2.3002  2.8817  0.2926
 5926TIP3   OH239268   0.924   2.682   0.472  0.0796  0.2856 -0.8736
 5926TIP3    H139269   0.902   2.701   0.563  0.7777  0.0747 -0.6570
 5926TIP3    H239270   0.975   2.601   0.476  0.5102  0.5237 -1.4031
 5927TIP3   OH239271   1.322   3.718  13.794  0.4556  0.4222 -0.5843
 5927TIP3    H139272   1.316   3.631  13.832 -1.5737  0.9929  0.5061
 5927TIP3    H239273   1.298   3.707  13.702 -1.7687  0.0974  0.0039
 5928TIP3   OH239274   2.899   6.666   5.020 -0.4076 -0.1889  0.7504
 5928TIP3    H139275   2.985   6.673   5.060  0.2076  1.6222 -0.8302
 5928TIP3    H239276   2.883   6.753   4.982 -1.5200 -1.4509 -1.7662
 5929TIP3   OH239277   6.444   3.945  14.709 -0.1678  0.7146  0.4623
 5929TIP3    H139278   6.462   4.024  14.658 -0.9315  0.2847 -0.5031
 5929TIP3    H239279   6.428   3.977  14.798 -1.7321  1.8045 -0.1749
 5930TIP3   OH239280   3.165   0.712  13.107 -0.9935 -0.2436 -0.2490
 5930TIP3    H139281   3.145   0.803  13.085 -1.1954 -0.1630  0.2473
 5930TIP3    H239282   3.163   0.665  13.024 -1.6360  0.0698 -0.4107
 5931TIP3   OH239283   4.271   5.698  13.098  0.8393 -0.0959  0.4430
 5931TIP3    H139284   4.250   5.718  13.189 -0.8992 -4.0305  1.0078
 5931TIP3    H239285   4.223   5.764  13.048 -1.0918 -0.0316  2.2858
 5932TIP3   OH239286   3.373   1.167  12.383  0.6522  0.4893  0.0814
 5932TIP3    H139287   3.314   1.242  12.390  1.7860  1.4252 -0.2442
 5932TIP3    H239288   3.359   1.134  12.294  0.4055  0.5224  0.1057
 5933TIP3   OH239289   3.091   0.667  11.600  0.2815  0.0457 -0.2572
 5933TIP3    H139290   3.072   0.748  11.553  1.0183  1.3927  1.7411
 5933TIP3    H239291   3.153   0.621  11.542 -0.9338  0.4020 -1.8775
 5934TIP3   OH239292   5.789   0.958  14.300  0.3270  0.6739  0.3832
 5934TIP3    H139293   5.756   0.928  14.385 -0.8018  1.0844  0.1032
 5934TIP3    H239294   5.871   0.910  14.287 -0.1744 -0.3936  1.0872
 5935TIP3   OH239295   0.945   2.615   4.289  0.4317 -0.0257  1.0025
 5935TIP3    H139296   0.939   2.651   4.378 -0.3056 -3.0884  2.2690
 5935TIP3    H239297   0.861   2.639   4.248  0.2901  0.3871  1.5292
 5936TIP3   OH239298   2.163   5.268  11.057 -0.1866 -0.1209 -0.3365
 5936TIP3    H139299   2.092   5.325  11.027 -1.4372 -0.7263  1.4094
 5936TIP3    H239300   2.140   5.181  11.024 -2.4642 -1.1393  3.6053
 5937TIP3   OH239301   4.838   1.442  15.383 -0.2766  0.0623  0.7963
 5937TIP3    H139302   4.913   1.461  15.326 -0.5078  0.0397  0.4900
 5937TIP3    H239303   4.833   1.518  15.441  0.9547 -0.6384  1.8425
 5938TIP3   OH239304   4.401   6.488  17.153  0.3933  0.1110 -0.2623
 5938TIP3    H139305   4.396   6.564  17.096  0.4749  1.1448  1.0814
 5938TIP3    H239306   4.329   6.498  17.214  0.0704 -1.1881 -0.4092
 5939TIP3   OH239307   2.086   3.703   4.960 -0.2942  0.7977  0.3678
 5939TIP3    H139308   1.995   3.673   4.966 -0.6993  1.7860 -0.7227
 5939TIP3    H239309   2.100   3.753   5.041 -1.1000  1.6377  0.0005
 5940TIP3   OH239310   3.023   5.350   2.497 -0.1704  0.1124  0.1189
 5940TIP3    H139311   3.015   5.444   2.513  0.1929 -0.0159  1.1014
 5940TIP3    H239312   2.933   5.322   2.478 -0.5679  0.3633  1.5254
 5941TIP3   OH239313   6.471   3.555  16.228 -0.1508 -0.1687 -0.2393
 5941TIP3    H139314   6.407   3.515  16.169 -0.6894 -1.4119  1.1401
 5941TIP3    H239315   6.418   3.597  16.296  0.4613 -0.0515  0.1699
 5942TIP3   OH239316   0.617   3.950  10.384  0.0436 -0.1763  0.5702
 5942TIP3    H139317   0.595   3.918  10.472 -0.1973 -1.0381  0.1992
 5942TIP3    H239318   0.558   4.024  10.370 -2.4012 -2.2348 -0.2624
 5943TIP3   OH239319   3.754   1.538  12.656  0.6885 -0.2357 -0.2270
 5943TIP3    H139320   3.755   1.596  12.732  0.3479 -0.4976 -0.0237
 5943TIP3    H239321   3.799   1.587  12.588  0.3116  0.3068 -0.0862
 5944TIP3   OH239322   3.193   1.317  14.484  0.6894  0.1210  0.1604
 5944TIP3    H139323   3.103   1.289  14.502  0.0872  1.6036 -0.4985
 5944TIP3    H239324   3.229   1.339  14.570  0.3469 -0.2473  0.4011
 5945TIP3   OH239325   5.658   3.691   1.742 -0.5417 -0.1126  0.0822
 5945TIP3    H139326   5.669   3.661   1.652  0.3941 -1.0384  0.4969
 5945TIP3    H239327   5.692   3.619   1.796  1.4040  1.5507  1.1098
 5946TIP3   OH239328   2.755   5.831   4.174  0.1729 -0.3111  0.0210
 5946TIP3    H139329   2.672   5.796   4.208  1.0771 -2.2086  0.3440
 5946TIP3    H239330   2.819   5.811   4.242  1.0773  0.2816 -0.6551
 5947TIP3   OH239331   6.643   2.734   3.751  0.1798 -0.4349  0.4349
 5947TIP3    H139332   6.686   2.744   3.836 -0.2169  1.0465  0.4676
 5947TIP3    H239333   6.630   2.823   3.719 -2.5501 -0.8301  0.2875
 5948TIP3   OH239334   4.264   1.576   3.710  0.5655  0.6023 -0.7658
 5948TIP3    H139335   4.197   1.526   3.665  1.8252 -2.4461  0.6018
 5948TIP3    H239336   4.239   1.572   3.802  1.2563  1.6135 -0.5210
 5949TIP3   OH239337   3.921   6.263  14.250 -0.2933  0.3231 -0.2704
 5949TIP3    H139338   3.924   6.328  14.320  0.6396 -1.4932  1.4381
 5949TIP3    H239339   3.916   6.314  14.169  1.0611  2.5291  0.9931
 5950TIP3   OH239340   6.473   5.336  13.155  0.0765 -0.2490 -0.4291
 5950TIP3    H139341   6.427   5.305  13.077  1.7220  0.9447 -1.9115
 5950TIP3    H239342   6.515   5.417  13.127  0.9103  0.0486  1.6372
 5951TIP3   OH239343   6.702   0.691   6.014 -0.3538  0.1711 -0.1206
 5951TIP3    H139344   6.690   0.597   5.997  0.5697 -0.4778  2.5147
 5951TIP3    H239345   6.796   0.704   6.005 -0.3458  0.6045  0.5662
 5952TIP3   OH239346   1.613   3.492  12.089 -0.8208  0.2099  0.0220
 5952TIP3    H139347   1.553   3.546  12.038 -0.9196  0.0595 -0.0227
 5952TIP3    H239348   1.697   3.499  12.043 -1.1541 -0.7517 -0.7521
 5953TIP3   OH239349   6.245   4.590   6.003 -0.0413  0.2309 -0.5159
 5953TIP3    H139350   6.156   4.587   6.039 -0.2468 -0.3872 -1.0630
 5953TIP3    H239351   6.285   4.666   6.045 -0.8919  0.6287 -0.4015
 5954TIP3   OH239352   6.170   6.463  15.303  0.1830 -0.2005  0.0839
 5954TIP3    H139353   6.265   6.471  15.296  0.2199 -0.7592 -0.0810
 5954TIP3    H239354   6.137   6.492  15.218  0.3637 -2.5374 -0.8072
 5955TIP3   OH239355   2.492   2.448   5.066  0.3338 -0.2463  0.0471
 5955TIP3    H139356   2.550   2.482   5.134  0.3359  0.7032 -0.4293
 5955TIP3    H239357   2.439   2.522   5.039 -0.2928 -0.8293 -0.3594
 5956TIP3   OH239358   0.315   2.175  11.742  0.3354  0.5803 -0.2511
 5956TIP3    H139359   0.353   2.122  11.812  2.4401  1.7110 -0.4824
 5956TIP3    H239360   0.391   2.205  11.691 -0.8423  3.0722 -0.6432
 5957TIP3   OH239361   6.051   0.421   2.052  0.2390 -0.5855 -0.2458
 5957TIP3    H139362   5.973   0.476   2.063  0.9181  0.1524  1.1408
 5957TIP3    H239363   6.022   0.333   2.076 -0.4092 -0.4883 -0.6778
 5958TIP3   OH239364   3.605   1.633   1.067 -0.2983 -0.3447 -0.0577
 5958TIP3    H139365   3.597   1.553   1.118  2.6094 -1.9959 -1.9943
 5958TIP3    H239366   3.697   1.657   1.075 -0.3444  0.7686 -2.3702
 5959TIP3   OH239367   1.955   1.926   5.372 -0.1899  0.2276 -0.2830
 5959TIP3    H139368   1.922   1.939   5.461  0.9103  1.3938 -0.0400
 5959TIP3    H239369   1.999   2.008   5.350  2.2742 -1.1911 -0.7269
 5960TIP3   OH239370   2.754   4.514  12.809  0.3400 -0.3283  0.3096
 5960TIP3    H139371   2.683   4.457  12.781  0.2724 -0.5537  0.9161
 5960TIP3    H239372   2.833   4.460  12.803  0.7311  0.4496 -2.0384
 5961TIP3   OH239373   0.436   5.135   2.576 -0.8658 -0.0858  0.0896
 5961TIP3    H139374   0.375   5.075   2.534 -2.0467  0.9396  0.2939
 5961TIP3    H239375   0.391   5.163   2.656 -0.2248  0.8533  0.1356
 5962TIP3   OH239376   2.946   1.065  12.677 -0.2421 -0.0355  0.3118
 5962TIP3    H139377   2.853   1.068  12.701  0.0287 -0.9914  1.4854
 5962TIP3    H239378   2.987   1.132  12.732 -0.5499  1.9589 -1.7725
 5963TIP3   OH239379   3.143   5.231  15.497  0.2211 -0.4722  0.2895
 5963TIP3    H139380   3.150   5.142  15.463  0.3171  0.1655 -1.3787
 5963TIP3    H239381   3.057   5.234  15.539 -0.0500 -1.1449 -0.2098
 5964TIP3   OH239382   6.786   3.793  15.945 -0.6217 -0.8072 -0.1182
 5964TIP3    H139383   6.834   3.712  15.926  0.6523 -0.5693  1.8764
 5964TIP3    H239384   6.855   3.859  15.954 -1.5800  0.2653 -0.5849
 5965TIP3   OH239385   6.320   6.195   4.764 -0.5017  0.4854 -0.0366
 5965TIP3    H139386   6.324   6.191   4.859 -0.9780 -0.7744 -0.0628
 5965TIP3    H239387   6.379   6.267   4.741  1.0039 -0.3375  1.1142
 5966TIP3   OH239388   3.474   6.295   0.511  0.4514  0.0251  0.2463
 5966TIP3    H139389   3.557   6.281   0.556  0.0090 -1.5419  0.6347
 5966TIP3    H239390   3.433   6.208   0.512 -1.1699  0.7885  0.0415
 5967TIP3   OH239391   4.710   0.397   5.506  0.3240  0.2962 -0.7794
 5967TIP3    H139392   4.745   0.476   5.548  0.7309 -0.0721 -0.4272
 5967TIP3    H239393   4.711   0.418   5.413 -1.1443  1.3439 -0.5808
 5968TIP3   OH239394   2.045   1.022  17.148 -0.2127  0.4596 -0.1380
 5968TIP3    H139395   1.964   0.975  17.127  1.3632 -1.8943 -1.2692
 5968TIP3    H239396   2.089   1.033  17.063  0.8040  1.3574  0.4969
 5969TIP3   OH239397   6.282   5.239  15.207 -0.2595  0.2537 -0.2193
 5969TIP3    H139398   6.344   5.168  15.223  0.0426  0.2627 -1.3236
 5969TIP3    H239399   6.200   5.209  15.245 -0.6825 -1.5889 -2.5216
 5970TIP3   OH239400   2.420   0.583  13.020  0.6015 -0.2977 -0.1467
 5970TIP3    H139401   2.475   0.531  13.079  1.6117 -1.8991 -2.4060
 5970TIP3    H239402   2.425   0.537  12.936 -4.0467 -0.3799 -0.4981
 5971TIP3   OH239403   0.599   4.360  17.258  0.4156 -0.2690  0.3092
 5971TIP3    H139404   0.530   4.300  17.230  0.2156 -0.5992  1.4816
 5971TIP3    H239405   0.676   4.334  17.207  0.4185 -1.7458  1.0602
 5972TIP3   OH239406   3.667   2.185   6.067  0.6721  0.3693  0.2145
 5972TIP3    H139407   3.596   2.240   6.100  0.8651  0.0988  1.0952
 5972TIP3    H239408   3.708   2.150   6.146  0.0467 -1.6705 -0.3475
 5973TIP3   OH239409   1.579   6.796   0.972  0.0979 -0.1007  0.4964
 5973TIP3    H139410   1.596   6.725   0.911  1.9763  0.4561  0.3156
 5973TIP3    H239411   1.510   6.848   0.931 -0.0018 -0.8130 -0.2368
 5974TIP3   OH239412   1.464   5.767  11.605 -0.6742 -0.3085 -1.1268
 5974TIP3    H139413   1.558   5.766  11.622 -0.8450 -1.5292 -0.1730
 5974TIP3    H239414   1.425   5.742  11.689 -1.9069  1.4055 -1.1660
 5975TIP3   OH239415   1.735   0.438  16.834 -0.1617  0.3053 -0.2865
 5975TIP3    H139416   1.670   0.509  16.835 -0.5730 -0.0774  0.3140
 5975TIP3    H239417   1.774   0.439  16.921  0.4097  0.3161 -0.5379
 5976TIP3   OH239418   2.088   3.190  11.011  0.2625  0.2266  0.7467
 5976TIP3    H139419   2.119   3.245  11.083  1.0855  1.4644 -0.5281
 5976TIP3    H239420   2.149   3.207  10.940 -1.7717  0.6957 -0.9511
 5977TIP3   OH239421   5.485   1.082  16.748 -0.8602 -0.3715  0.1174
 5977TIP3    H139422   5.457   1.080  16.840  0.5972  1.4414  0.6331
 5977TIP3    H239423   5.427   1.145  16.707  0.7628  1.4959  0.6211
 5978TIP3   OH239424   5.140   3.920  13.798 -0.6438  0.0372  0.1440
 5978TIP3    H139425   5.050   3.944  13.820 -1.3895 -0.2877 -2.4051
 5978TIP3    H239426   5.165   3.981  13.728  0.9829 -0.1559  0.5219
 5979TIP3   OH239427   0.973   6.716  15.046 -0.0110  1.0327 -0.0734
 5979TIP3    H139428   1.046   6.674  15.000  0.5965  0.0288  1.7582
 5979TIP3    H239429   1.001   6.806  15.059  0.9445  0.6272  0.6939
 5980TIP3   OH239430   6.559   5.868   0.440 -0.2014  0.3172 -0.0696
 5980TIP3    H139431   6.611   5.838   0.365  1.9276  0.2847  1.3669
 5980TIP3    H239432   6.468   5.850   0.416  0.4354  0.4123 -2.6835
 5981TIP3   OH239433   6.348   2.870  13.675  0.0474 -0.9215 -0.8230
 5981TIP3    H139434   6.281   2.936  13.693  1.1342  0.0205 -0.1499
 5981TIP3    H239435   6.395   2.903  13.598  1.1128 -0.4929  0.0007
 5982TIP3   OH239436   0.835   1.040  14.758 -0.4979  0.1423  0.7362
 5982TIP3    H139437   0.843   1.108  14.825 -0.4811  0.3721  0.5026
 5982TIP3    H239438   0.745   1.007  14.768 -0.4922  0.1691  0.8773
 5983TIP3   OH239439   4.900   5.269   6.605 -0.6171  0.1975  0.1514
 5983TIP3    H139440   4.812   5.231   6.604 -0.7837  0.5374  1.1218
 5983TIP3    H239441   4.919   5.288   6.514 -1.5009 -0.0114 -0.0804
 5984TIP3   OH239442   4.145   2.950   3.957 -0.1472  0.0019 -0.2784
 5984TIP3    H139443   4.062   2.986   3.926 -0.0435  1.2047  0.7763
 5984TIP3    H239444   4.180   3.017   4.016  1.9910 -0.1079 -1.3596
 5985TIP3   OH239445   6.303   2.978   3.171  0.4882  0.2489  0.4818
 5985TIP3    H139446   6.330   3.046   3.110  1.8247 -1.0343 -0.3797
 5985TIP3    H239447   6.235   2.929   3.124  1.0843 -0.3579  0.2338
 5986TIP3   OH239448   0.850   0.617   2.332  0.3218  0.6877 -0.0602
 5986TIP3    H139449   0.792   0.687   2.304  0.1566  1.1258  1.3291
 5986TIP3    H239450   0.859   0.561   2.255 -3.1947 -0.2539  0.1072
 5987TIP3   OH239451   2.941   0.167   1.827  0.2067 -0.4557 -0.3278
 5987TIP3    H139452   2.950   0.252   1.869 -1.4578 -1.4808  2.1789
 5987TIP3    H239453   3.026   0.125   1.839  0.5536  0.2543 -0.2677
 5988TIP3   OH239454   0.764   1.961  16.705  0.0735  0.2148  0.4976
 5988TIP3    H139455   0.700   2.031  16.715 -0.0998  0.0968  0.2368
 5988TIP3    H239456   0.791   1.967  16.613  2.2323  1.7991  1.1884
 5989TIP3   OH239457   4.902   3.725   0.277  0.5259 -0.2351 -0.2097
 5989TIP3    H139458   4.849   3.689   0.206 -0.4069  0.7195 -0.0044
 5989TIP3    H239459   4.886   3.667   0.351  0.8209 -0.7264 -0.5264
 5990TIP3   OH239460   0.785   0.936  15.094  0.4090  0.7775  0.0091
 5990TIP3    H139461   0.865   0.988  15.093  0.5183  0.6142  0.3981
 5990TIP3    H239462   0.726   0.983  15.153  0.6133  0.2970  0.5915
 5991TIP3   OH239463   1.989   5.433  10.928 -0.1015  0.1697 -0.0996
 5991TIP3    H139464   2.053   5.502  10.909  0.7058 -0.0725  1.6011
 5991TIP3    H239465   1.910   5.480  10.955  0.2226  0.4370  0.3783
 5992TIP3   OH239466   5.592   6.721   0.981 -0.4956 -0.1451 -0.9260
 5992TIP3    H139467   5.679   6.759   0.969 -1.4673  1.7483 -2.1494
 5992TIP3    H239468   5.608   6.641   1.032  1.7572  1.0340  0.2764
 5993TIP3   OH239469   0.720   4.739  16.378 -0.6893 -0.5083  0.4887
 5993TIP3    H139470   0.705   4.750  16.472  0.0582  0.5752  0.4984
 5993TIP3    H239471   0.762   4.821  16.351 -0.7742 -0.8645 -0.7634
 5994TIP3   OH239472   1.844   2.204  11.592 -0.3547 -0.4690 -0.0027
 5994TIP3    H139473   1.902   2.206  11.668 -1.1462 -0.3795  0.6044
 5994TIP3    H239474   1.802   2.118  11.595  0.7845 -1.0925 -1.2428
 5995TIP3   OH239475   6.378   3.337  14.355 -0.1541  0.3182 -0.0752
 5995TIP3    H139476   6.424   3.299  14.280  0.3819  1.8016 -0.5134
 5995TIP3    H239477   6.297   3.371  14.319 -0.6276 -0.3909  0.3152
 5996TIP3   OH239478   4.960   6.632  13.704  0.1303  0.4167  0.2700
 5996TIP3    H139479   4.964   6.660  13.612  0.8094  0.1577  0.2199
 5996TIP3    H239480   4.939   6.713  13.752 -0.4116  0.5167 -0.1277
 5997TIP3   OH239481   1.260   6.253   4.489  0.2077 -0.1722 -0.2041
 5997TIP3    H139482   1.180   6.247   4.437 -0.5899 -0.6865  1.0374
 5997TIP3    H239483   1.236   6.212   4.572  1.9238 -0.7985 -0.0105
 5998TIP3   OH239484   1.829   2.035  16.196  0.0186 -0.2181  0.0911
 5998TIP3    H139485   1.885   1.963  16.167 -1.1766 -0.7250 -1.0188
 5998TIP3    H239486   1.740   2.000  16.190 -0.4597  0.7532  1.2953
 5999TIP3   OH239487   1.511   5.504   1.159  0.0978  0.3936  0.2800
 5999TIP3    H139488   1.489   5.455   1.080 -0.0560 -0.3859  0.8064
 5999TIP3    H239489   1.427   5.523   1.200  0.1084  1.7248 -0.2887
 6000TIP3   OH239490   0.176   2.632  12.862  0.2220  0.1746  0.5156
 6000TIP3    H139491   0.104   2.679  12.820  0.3600 -0.1762 -0.1277
 6000TIP3    H239492   0.165   2.541  12.833  2.3601  0.5409 -1.6258
 6001TIP3   OH239493   5.398   5.508   4.050  0.3762 -0.5143 -0.4548
 6001TIP3    H139494   5.346   5.516   3.971  0.2601 -0.1511 -0.3414
 6001TIP3    H239495   5.361   5.432   4.096  0.3987 -0.6803 -0.7102
 6002TIP3   OH239496   3.500   1.813   3.762 -0.5033 -0.0300  0.4704
 6002TIP3    H139497   3.430   1.830   3.824 -0.7488 -0.3663  0.2835
 6002TIP3    H239498   3.548   1.738   3.799 -0.9583 -0.5590 -0.0041
 6003TIP3   OH239499   5.077   5.864  11.802 -0.2646 -0.3678  0.2065
 6003TIP3    H139500   5.150   5.924  11.817 -1.4078  1.7607 -2.2235
 6003TIP3    H239501   5.112   5.798  11.742 -0.1680  0.3710 -0.5653
 6004TIP3   OH239502   0.580   5.984  15.752 -0.0166  0.6069 -0.1751
 6004TIP3    H139503   0.545   6.044  15.688 -1.6314 -2.3609 -2.1896
 6004TIP3    H239504   0.507   5.966  15.812  0.8900  1.7794  1.3293
 6005TIP3   OH239505   3.957   5.966  15.420 -1.4037  0.0281 -0.0999
 6005TIP3    H139506   3.910   5.888  15.389 -1.7744 -0.0311  0.5952
 6005TIP3    H239507   4.027   5.979  15.356 -0.4333 -1.7400  0.5763
 6006TIP3   OH239508   2.578   0.942  13.876  0.0080  0.0356  0.1719
 6006TIP3    H139509   2.636   1.010  13.843  1.1986 -0.1416  1.8401
 6006TIP3    H239510   2.554   0.890  13.799  1.9073  0.2324 -0.5645
 6007TIP3   OH239511   3.072   2.674   3.305 -0.0116 -0.1383 -0.2209
 6007TIP3    H139512   3.067   2.579   3.300  1.5345 -0.3549  1.8807
 6007TIP3    H239513   2.986   2.701   3.339 -0.0799 -0.8624  0.1835
 6008TIP3   OH239514   5.229   2.231  14.802 -0.5275 -0.4934  0.5848
 6008TIP3    H139515   5.310   2.206  14.847 -0.1769  0.4741  0.4969
 6008TIP3    H239516   5.233   2.184  14.719  1.0435  1.2961 -0.3902
 6009TIP3   OH239517   2.179   5.334   0.106 -0.3377 -0.4874  0.5145
 6009TIP3    H139518   2.087   5.316   0.089 -0.3398  1.2752 -1.5561
 6009TIP3    H239519   2.192   5.308   0.197 -2.4365 -2.3859  0.3194
 6010TIP3   OH239520   3.496   3.432  15.564  0.3810  0.7730 -0.2067
 6010TIP3    H139521   3.475   3.511  15.515 -1.6666  0.2828 -0.1840
 6010TIP3    H239522   3.411   3.400  15.595  1.1261 -1.5628 -0.4326
 6011TIP3   OH239523   6.607   0.667  11.754 -0.5680 -0.0666 -0.0253
 6011TIP3    H139524   6.620   0.632  11.666 -0.8402 -0.4913  0.1017
 6011TIP3    H239525   6.517   0.698  11.755  0.0185  1.6971 -0.4904
 6012TIP3   OH239526   2.012   1.391  13.911 -0.7960  0.5726  0.1608
 6012TIP3    H139527   1.945   1.365  13.974 -2.4968  0.7808 -1.5341
 6012TIP3    H239528   2.089   1.409  13.965 -2.0967  0.3746  2.1488
 6013TIP3   OH239529   1.697   6.184   5.127 -0.4165  0.3196  0.0421
 6013TIP3    H139530   1.607   6.162   5.102 -0.7822  1.8114  0.0067
 6013TIP3    H239531   1.746   6.103   5.112 -2.2664 -1.3977  2.7898
 6014TIP3   OH239532   0.695   1.066  15.367  0.8967  0.0048 -0.1627
 6014TIP3    H139533   0.779   1.097  15.399  0.6388 -1.1070  1.6629
 6014TIP3    H239534   0.642   1.145  15.355  2.2102  0.7158 -1.4309
 6015TIP3   OH239535   2.472   1.079   6.793 -0.4769 -0.5532 -0.4940
 6015TIP3    H139536   2.485   0.984   6.802 -0.9189 -0.5093  0.6786
 6015TIP3    H239537   2.543   1.118   6.845 -1.2198 -0.2606  0.3134
 6016TIP3   OH239538   6.140   2.230  14.719 -0.2967 -0.1663 -0.1670
 6016TIP3    H139539   6.122   2.162  14.784 -0.9170  0.1677  0.0180
 6016TIP3    H239540   6.189   2.297  14.767 -0.2079 -0.2096 -0.1963
 6017TIP3   OH239541   5.129   2.917  15.178 -0.2130  0.4809  0.2797
 6017TIP3    H139542   5.039   2.931  15.150  0.2603 -2.6775 -3.1277
 6017TIP3    H239543   5.179   2.984  15.132 -0.5638  1.0463  0.7135
 6018TIP3   OH239544   1.634   1.294   0.063  0.0811 -0.4764 -0.1783
 6018TIP3    H139545   1.619   1.202   0.088  0.2529 -0.0370  1.6221
 6018TIP3    H239546   1.722   1.294   0.026 -0.2670 -1.1982 -1.0202
 6019TIP3   OH239547   6.237   0.898  11.221 -0.3437  0.1408  0.3543
 6019TIP3    H139548   6.217   0.991  11.238  0.9618  0.4063  0.4699
 6019TIP3    H239549   6.178   0.874  11.150 -1.0171  0.9363  0.6284
 6020TIP3   OH239550   3.290   6.416  13.181 -0.1093  0.2765  0.4854
 6020TIP3    H139551   3.245   6.339  13.147  0.6085  0.0811 -0.0570
 6020TIP3    H239552   3.309   6.469  13.103 -0.3716  0.8811  0.8246
 6021TIP3   OH239553   2.999   1.534  13.246 -0.2928 -0.3588 -0.1030
 6021TIP3    H139554   3.095   1.529  13.243 -0.3164 -2.7006  1.7368
 6021TIP3    H239555   2.971   1.510  13.158  0.7107 -4.5957  0.6252
 6022TIP3   OH239556   3.955   0.565  12.061  0.6088 -0.3455  0.1551
 6022TIP3    H139557   3.916   0.597  12.143 -0.8326 -0.0068 -0.6392
 6022TIP3    H239558   4.033   0.517  12.088 -1.6003 -3.0120  2.0068
 6023TIP3   OH239559   3.483   3.667   3.722  0.1390 -0.0020 -0.4212
 6023TIP3    H139560   3.503   3.599   3.786  2.1957  0.4730 -0.5406
 6023TIP3    H239561   3.565   3.682   3.675 -0.5845  1.7091 -1.2090
 6024TIP3   OH239562   5.181   3.873  15.815 -0.0551  0.3055  0.3036
 6024TIP3    H139563   5.214   3.944  15.759  1.9999 -0.8659 -0.0180
 6024TIP3    H239564   5.105   3.838  15.767  1.1065 -0.0662 -1.3250
 6025TIP3   OH239565   5.399   4.197   3.232  0.6462 -0.7932  0.1706
 6025TIP3    H139566   5.384   4.109   3.267 -1.0764 -0.4167  0.4173
 6025TIP3    H239567   5.467   4.234   3.288  1.0748 -1.8109  0.3306
 6026TIP3   OH239568   5.096   2.854  16.582  0.2158 -0.0827 -0.0794
 6026TIP3    H139569   5.132   2.919  16.521  0.3496  1.2104  1.3263
 6026TIP3    H239570   5.010   2.832  16.545  0.7649 -0.1651 -1.3217
 6027TIP3   OH239571   1.617   0.593   2.254 -0.2509  0.4192 -0.2566
 6027TIP3    H139572   1.560   0.651   2.304  0.4040  0.6328  0.2577
 6027TIP3    H239573   1.706   0.623   2.275  0.0893 -0.6573 -0.1124
 6028TIP3   OH239574   3.410   2.145   0.126 -0.1345 -0.2574  0.2298
 6028TIP3    H139575   3.393   2.060   0.085  0.5698  0.1635 -0.9488
 6028TIP3    H239576   3.472   2.125   0.196  0.3738 -0.6536 -0.3298
 6029TIP3   OH239577   2.715   1.229  12.408  0.2197  0.2384 -0.7151
 6029TIP3    H139578   2.714   1.296  12.476  0.3017 -0.6826  0.2115
 6029TIP3    H239579   2.787   1.254  12.350  0.4536  0.7734 -0.1999
 6030TIP3   OH239580   1.183   3.695   1.271  0.3278 -0.1956  0.2527
 6030TIP3    H139581   1.164   3.626   1.334 -1.0181 -1.5436 -1.5945
 6030TIP3    H239582   1.232   3.652   1.201  0.2845  0.9015 -0.4724
 6031TIP3   OH239583   0.616   5.288  16.214 -0.0851  0.3144 -0.1950
 6031TIP3    H139584   0.563   5.365  16.197  1.2337  1.3335  0.2019
 6031TIP3    H239585   0.582   5.221  16.155 -2.6820  0.5217  0.9834
 6032TIP3   OH239586   1.045   1.388  12.740 -0.5391  0.0834  0.0223
 6032TIP3    H139587   1.119   1.362  12.795 -1.1825 -2.1253 -0.1106
 6032TIP3    H239588   0.972   1.395  12.801 -0.5774  0.7132 -0.0918
 6033TIP3   OH239589   1.240   2.713   2.728 -0.0221  0.1916  0.2062
 6033TIP3    H139590   1.299   2.689   2.800  1.7287 -0.3612 -1.3574
 6033TIP3    H239591   1.174   2.644   2.726  0.0788  0.0700  1.1006
 6034TIP3   OH239592   4.139   1.702  11.418  0.0038  0.0963 -0.3764
 6034TIP3    H139593   4.227   1.727  11.447  0.4489 -1.7197 -0.1380
 6034TIP3    H239594   4.154   1.631  11.355 -1.1024  1.9977 -2.8618
 6035TIP3   OH239595   3.843   4.446   1.125  0.0210 -0.0433  0.0914
 6035TIP3    H139596   3.878   4.485   1.044  1.4288 -0.9460  0.2353
 6035TIP3    H239597   3.918   4.400   1.163 -1.3547 -2.1769  0.3567
 6036TIP3   OH239598   1.269   6.264  12.956  0.1218  0.0926 -0.1238
 6036TIP3    H139599   1.258   6.169  12.949 -0.2230  0.2881 -3.0220
 6036TIP3    H239600   1.349   6.283  12.906  1.0167  1.1818  1.6767
 6037TIP3   OH239601   4.186   6.509   2.635  0.3079  0.2503 -0.0705
 6037TIP3    H139602   4.181   6.417   2.608 -1.4070  0.3398 -0.0928
 6037TIP3    H239603   4.120   6.517   2.704  1.1806  1.2277  0.6612
 6038TIP3   OH239604   1.375   4.631  13.383  0.0317 -0.1274  0.0264
 6038TIP3    H139605   1.416   4.650  13.467 -0.5674  0.3196  0.2242
 6038TIP3    H239606   1.339   4.715  13.354 -1.1229 -0.5858  0.0792
 6039TIP3   OH239607   4.063   0.051  16.313  0.0875  0.6533  0.1603
 6039TIP3    H139608   3.996  -0.016  16.328  0.1643  0.6632  0.5489
 6039TIP3    H239609   4.038   0.124  16.370  0.5470  0.5722  0.4739
 6040TIP3   OH239610   5.680   5.980   2.057  0.6606 -0.9501  0.3929
 6040TIP3    H139611   5.609   6.004   2.115 -0.6494  2.3933 -2.4033
 6040TIP3    H239612   5.760   5.999   2.107 -0.4249  1.6521  1.1838
 6041TIP3   OH239613   2.746   5.342  14.829  0.1558  0.2515  0.0733
 6041TIP3    H139614   2.832   5.327  14.791 -0.6338 -1.9150 -0.9713
 6041TIP3    H239615   2.760   5.408  14.896  2.1361  1.9455 -1.9404
 6042TIP3   OH239616   4.223   2.870   2.422 -0.2994 -0.1287  0.3946
 6042TIP3    H139617   4.203   2.960   2.399 -1.4584 -0.5502 -0.3035
 6042TIP3    H239618   4.253   2.874   2.513  0.1032  1.0081  0.2167
 6043TIP3   OH239619   6.489   1.983   3.502 -0.3787  0.4319  0.5181
 6043TIP3    H139620   6.476   2.066   3.457  0.6760  0.6380  0.5861
 6043TIP3    H239621   6.546   1.932   3.444 -2.5991 -1.0307 -0.4714
 6044TIP3   OH239622   6.454   4.003   4.589 -0.3124  0.6466 -0.2512
 6044TIP3    H139623   6.540   3.964   4.570 -1.1447 -1.1781 -0.3874
 6044TIP3    H239624   6.475   4.086   4.632  1.5301  0.5832 -0.9459
 6045TIP3   OH239625   2.697   2.466   3.228 -0.3653 -0.0631  0.5855
 6045TIP3    H139626   2.698   2.418   3.146  0.8682 -0.8958  1.0796
 6045TIP3    H239627   2.605   2.471   3.252 -0.9307  1.8371 -1.7928
 6046TIP3   OH239628   5.382   3.891   6.356  0.7159  0.0435 -0.2596
 6046TIP3    H139629   5.477   3.904   6.366  0.6187  1.4581 -1.0082
 6046TIP3    H239630   5.370   3.870   6.263  0.3557 -0.7668 -0.0326
 6047TIP3   OH239631   6.428   3.506  14.891 -0.0427  0.0867  0.3333
 6047TIP3    H139632   6.404   3.560  14.967 -0.4701 -0.0566  0.3024
 6047TIP3    H239633   6.508   3.547  14.858 -0.0087  0.3218  0.6913
 6048TIP3   OH239634   6.379   2.635  12.953  0.5065 -0.1456 -0.2487
 6048TIP3    H139635   6.383   2.550  12.908  0.8082 -0.4863  0.4158
 6048TIP3    H239636   6.442   2.690  12.907  1.7690 -0.8884  0.5735
 6049TIP3   OH239637   3.763   2.521  16.879 -0.2228 -0.5980  0.2342
 6049TIP3    H139638   3.680   2.487  16.913 -0.4159  0.1663  0.5271
 6049TIP3    H239639   3.812   2.548  16.956  0.0097 -0.3927  0.0148
 6050TIP3   OH239640   5.969   2.326  13.817 -0.8835  0.8713 -0.5715
 6050TIP3    H139641   5.917   2.344  13.739  0.8616  2.5717 -1.3754
 6050TIP3    H239642   5.990   2.412  13.853  1.9144  0.2730 -0.6632
 6051TIP3   OH239643   4.479   2.528   0.161 -0.0544  0.0227 -0.0931
 6051TIP3    H139644   4.516   2.510   0.074  2.4574  1.0716  0.7059
 6051TIP3    H239645   4.453   2.620   0.156 -0.7990 -0.1850 -0.0337
 6052TIP3   OH239646   2.958   4.464   1.260  0.3693  0.2570  0.1441
 6052TIP3    H139647   3.014   4.421   1.324 -0.0495  0.6493  0.7847
 6052TIP3    H239648   2.928   4.544   1.304  1.1873  1.2350 -1.0524
 6053TIP3   OH239649   5.005   4.020  14.897  0.2228  0.1846 -0.5911
 6053TIP3    H139650   4.913   3.996  14.890  0.2265 -0.1346  0.3104
 6053TIP3    H239651   5.006   4.098  14.952  0.4959  0.1304 -0.5139
 6054TIP3   OH239652   0.566   5.228   3.017  0.2829  0.2788 -0.1627
 6054TIP3    H139653   0.540   5.287   2.947 -1.1351 -0.8342 -0.6031
 6054TIP3    H239654   0.621   5.163   2.974 -0.8191 -0.5678 -0.3226
 6055TIP3   OH239655   6.681   3.151   4.333 -0.7129 -0.0360 -0.7263
 6055TIP3    H139656   6.624   3.171   4.259  0.0656 -0.2189 -1.3776
 6055TIP3    H239657   6.760   3.113   4.294 -0.3215 -0.1963  0.1946
 6056TIP3   OH239658   5.656   3.137   2.417  0.7980  0.1695  0.0716
 6056TIP3    H139659   5.749   3.137   2.438  1.1616  2.6926 -1.3327
 6056TIP3    H239660   5.651   3.102   2.328  0.1961 -1.7189  0.8296
 6057TIP3   OH239661   3.191   3.894  15.236 -0.4178 -0.0980 -0.2628
 6057TIP3    H139662   3.259   3.961  15.235 -0.3578 -0.1197  0.9770
 6057TIP3    H239663   3.225   3.826  15.295 -1.6054 -0.0019  0.5603
 6058TIP3   OH239664   0.846   4.874   5.188 -0.4722  0.2612  0.1437
 6058TIP3    H139665   0.755   4.845   5.196  0.0973 -1.4303  0.7865
 6058TIP3    H239666   0.849   4.957   5.234 -1.9056  0.8011 -0.6997
 6059TIP3   OH239667   3.873   5.708  10.994 -0.0197 -0.0126  0.0474
 6059TIP3    H139668   3.938   5.778  11.004  0.6342 -0.4923 -0.7226
 6059TIP3    H239669   3.919   5.629  11.023 -0.2984 -0.3326 -0.3746
 6060TIP3   OH239670   2.715   0.912  12.911 -0.0758 -0.0036 -0.5604
 6060TIP3    H139671   2.779   0.842  12.923 -0.0121  0.0642 -0.4976
 6060TIP3    H239672   2.675   0.923  12.998  0.4939  0.5929 -0.3742
 6061TIP3   OH239673   5.643   0.350  14.630 -0.0872 -0.0483 -0.3399
 6061TIP3    H139674   5.550   0.372  14.633 -0.5467 -2.0726  2.5022
 6061TIP3    H239675   5.682   0.407  14.697  0.3839 -0.5901 -0.1584
 6062TIP3   OH239676   0.097   6.758   1.818  0.2787 -0.5860 -0.2851
 6062TIP3    H139677   0.077   6.852   1.817 -0.9619 -0.7662  2.3464
 6062TIP3    H239678   0.131   6.740   1.731  1.9046  2.6134 -0.4026
 6063TIP3   OH239679   3.224   2.191  15.553  0.1591 -0.0135  0.1975
 6063TIP3    H139680   3.287   2.251  15.593 -0.8686 -0.0727  1.9940
 6063TIP3    H239681   3.205   2.127  15.621 -0.7462 -0.8319 -0.8060
 6064TIP3   OH239682   3.100   4.175   4.927  0.5746  0.3472 -0.2631
 6064TIP3    H139683   3.090   4.192   4.834  0.6252  1.0493 -0.1445
 6064TIP3    H239684   3.011   4.178   4.962  0.4280 -1.0842 -0.4743
 6065TIP3   OH239685   4.720   1.755   3.887 -0.5545 -0.0267 -0.0643
 6065TIP3    H139686   4.694   1.707   3.965 -0.7074 -1.5108 -1.0088
 6065TIP3    H239687   4.639   1.762   3.835 -0.1179 -0.4595 -0.8155
 6066TIP3   OH239688   6.293   2.953   0.413 -0.3466  0.2630 -0.2678
 6066TIP3    H139689   6.334   3.030   0.453  0.9479 -0.7621  0.4439
 6066TIP3    H239690   6.353   2.928   0.343 -0.2484 -0.6485  0.1228
 6067TIP3   OH239691   1.695   5.205  13.132 -0.3926  0.6979 -0.1881
 6067TIP3    H139692   1.673   5.159  13.050  0.7487  0.3529 -0.3082
 6067TIP3    H239693   1.746   5.141  13.182 -0.0272  1.3434  0.2642
 6068TIP3   OH239694   1.796   4.814  13.170 -0.0519 -0.0040 -0.7941
 6068TIP3    H139695   1.704   4.789  13.173 -0.0845 -0.0660 -2.2203
 6068TIP3    H239696   1.843   4.735  13.194 -0.4294  0.6985  2.5754
 6069TIP3   OH239697   0.947   2.501  14.164  0.3162 -0.4520  0.5593
 6069TIP3    H139698   0.915   2.576  14.215  2.3517  0.0322  1.1539
 6069TIP3    H239699   0.917   2.519  14.075 -0.3395  0.4088  0.9344
 6070TIP3   OH239700   4.489   1.739   3.736 -0.0404 -0.0096 -0.2995
 6070TIP3    H139701   4.408   1.690   3.721 -1.8928  1.0768  4.9768
 6070TIP3    H239702   4.467   1.829   3.712 -0.7423  0.4329  1.8843
 6071TIP3   OH239703   0.008   2.995   6.050  0.2141  0.2813 -0.8211
 6071TIP3    H139704   0.101   3.017   6.046  0.8658 -1.2914  3.0543
 6071TIP3    H239705  -0.030   3.067   6.101 -0.0755 -0.7617  0.4411
 6072TIP3   OH239706   5.532   1.434  15.649 -0.1315 -0.2501 -0.3158
 6072TIP3    H139707   5.502   1.348  15.621 -0.9147  0.2691 -1.0579
 6072TIP3    H239708   5.626   1.423  15.665 -0.2062 -1.1973 -0.5583
 6073TIP3   OH239709   5.496   1.334   2.403  0.1762 -0.4940  0.1739
 6073TIP3    H139710   5.468   1.314   2.314 -0.9522 -1.3260  0.7009
 6073TIP3    H239711   5.452   1.416   2.424  0.7583 -0.0899 -0.1705
 6074TIP3   OH239712   4.316   5.181  13.522  0.0908 -0.4173 -0.3432
 6074TIP3    H139713   4.357   5.135  13.595 -1.1609 -1.1591 -0.0863
 6074TIP3    H239714   4.229   5.140  13.513 -0.8130  1.4684 -0.5106
 6075TIP3   OH239715   4.885   2.042   6.353  0.4960  0.3767 -0.6569
 6075TIP3    H139716   4.884   2.122   6.407 -1.6891 -1.5267  2.3170
 6075TIP3    H239717   4.818   2.058   6.286 -2.0903 -0.0116  1.7201
 6076TIP3   OH239718   1.293   3.203   2.268 -0.1866  0.0007 -0.3914
 6076TIP3    H139719   1.323   3.233   2.182 -3.3091 -0.8703 -1.8558
 6076TIP3    H239720   1.236   3.273   2.299 -2.6426 -1.6602 -1.0783
 6077TIP3   OH239721   4.123   4.332  16.684  0.1937 -0.2422 -0.3133
 6077TIP3    H139722   4.043   4.344  16.735  1.8289 -0.3237  2.4306
 6077TIP3    H239723   4.120   4.400  16.617 -1.0359  1.3271  1.2893
 6078TIP3   OH239724   6.417   0.654  15.041 -0.3764  0.1027 -0.1840
 6078TIP3    H139725   6.511   0.650  15.058 -0.3703 -1.5928 -0.5273
 6078TIP3    H239726   6.387   0.564  15.054 -1.8345  0.5049 -0.7428
 6079TIP3   OH239727   2.077   1.403   5.450  0.1433  0.2709 -0.2334
 6079TIP3    H139728   2.002   1.366   5.497 -0.6720  0.6595 -1.2046
 6079TIP3    H239729   2.135   1.435   5.518 -1.3037  1.3770  0.5048
 6080TIP3   OH239730   3.767   5.138  15.813  0.3114  0.3688  0.1643
 6080TIP3    H139731   3.771   5.233  15.800  0.9938  0.2618 -0.4156
 6080TIP3    H239732   3.769   5.127  15.908  2.3551  0.8509  0.1982
 6081TIP3   OH239733   4.158   5.053  11.241 -0.8063  0.1596 -0.9683
 6081TIP3    H139734   4.178   5.130  11.189  0.3372 -0.0228 -0.8161
 6081TIP3    H239735   4.067   5.064  11.267 -0.9015  1.0339 -1.6580
 6082TIP3   OH239736   5.734   1.305   3.491 -0.2861 -0.0029  0.3689
 6082TIP3    H139737   5.691   1.317   3.576 -1.4642  1.0366 -0.3677
 6082TIP3    H239738   5.805   1.370   3.490  0.0071 -0.3134  0.7282
 6083TIP3   OH239739   4.217   0.768  11.582  0.0430 -0.1227 -0.5144
 6083TIP3    H139740   4.178   0.775  11.669  0.2985 -1.9454 -0.2318
 6083TIP3    H239741   4.212   0.857  11.547 -1.0061  0.4308  0.9478
 6084TIP3   OH239742   5.955   6.387   0.667  0.2431 -0.1400 -0.0480
 6084TIP3    H139743   6.050   6.393   0.658  0.4148  1.2158  2.2089
 6084TIP3    H239744   5.942   6.340   0.750 -1.0653 -1.7709 -1.1609
 6085TIP3   OH239745   1.841   2.349   1.688 -0.0091  0.1858 -0.8127
 6085TIP3    H139746   1.821   2.291   1.615 -1.1559  0.1439 -0.4742
 6085TIP3    H239747   1.908   2.302   1.738 -1.3906 -1.1541 -0.1902
 6086TIP3   OH239748   3.956   5.496  17.289  0.2365 -0.0552 -0.1169
 6086TIP3    H139749   3.860   5.490  17.287  0.2431 -0.4161  0.3762
 6086TIP3    H239750   3.978   5.562  17.224 -0.4099  0.7614  0.4858
 6087TIP3   OH239751   4.505   5.085   1.472 -0.0905 -0.1513  0.1225
 6087TIP3    H139752   4.593   5.069   1.506 -0.3809 -2.1550 -0.0123
 6087TIP3    H239753   4.450   5.092   1.549 -0.0379 -0.2819  0.1716
 6088TIP3   OH239754   0.354   5.055  11.605 -0.3021 -0.0338 -0.5517
 6088TIP3    H139755   0.427   5.107  11.639 -1.9811  2.3413 -0.4670
 6088TIP3    H239756   0.330   4.997  11.677  2.1829 -1.6263 -0.9610
 6089TIP3   OH239757   6.063   4.804   3.641  0.0761 -0.6531 -0.2639
 6089TIP3    H139758   6.010   4.852   3.705 -1.3751 -0.8285 -1.2934
 6089TIP3    H239759   6.042   4.845   3.557  1.1417 -1.1116 -0.7572
 6090TIP3   OH239760   0.810   1.994   0.001  0.3845  0.0892  0.1097
 6090TIP3    H139761   0.809   2.005   0.097  2.3629 -0.8628  0.2540
 6090TIP3    H239762   0.884   2.047  -0.028  0.5663 -0.6393 -0.7695
 6091TIP3   OH239763   4.727   6.350   6.561 -0.1324 -0.2871  0.0775
 6091TIP3    H139764   4.703   6.258   6.572  1.7004 -0.6450  1.3258
 6091TIP3    H239765   4.648   6.399   6.581 -0.6592 -1.5347  1.0825
 6092TIP3   OH239766   1.526   1.783  12.726 -0.0162 -0.4377  0.0979
 6092TIP3    H139767   1.502   1.707  12.674  0.9420 -0.3173 -0.5201
 6092TIP3    H239768   1.459   1.787  12.795  0.4420 -2.3306  0.6602
 6093TIP3   OH239769   6.139   5.771  14.893  0.8233  0.0719 -0.3534
 6093TIP3    H139770   6.215   5.735  14.847  0.1326 -0.5413 -1.0308
 6093TIP3    H239771   6.168   5.781  14.984  1.4498 -0.9277 -0.4428
 6094TIP3   OH239772   0.236   2.575  15.998 -0.3481 -0.3156 -0.0327
 6094TIP3    H139773   0.259   2.667  15.985  1.6996 -0.9482 -1.0536
 6094TIP3    H239774   0.153   2.577  16.045 -0.7981  2.0572 -0.9022
 6095TIP3   OH239775   1.727   3.554  14.436  0.0272 -0.4788 -0.1559
 6095TIP3    H139776   1.662   3.511  14.381 -0.5363 -0.2469  0.3245
 6095TIP3    H239777   1.719   3.510  14.521 -0.3293  0.3456  0.2472
 6096TIP3   OH239778   1.936   2.464   5.107  0.5378  0.0340 -0.2991
 6096TIP3    H139779   2.018   2.429   5.144  0.2147 -1.5626 -1.0613
 6096TIP3    H239780   1.941   2.442   5.014 -0.6735  0.1172 -0.3813
 6097TIP3   OH239781   2.419   0.952   3.929 -0.0387 -0.1267 -0.0488
 6097TIP3    H139782   2.458   0.868   3.953  0.6099 -0.1058 -0.9840
 6097TIP3    H239783   2.489   0.998   3.882 -0.6548  0.6040 -0.2594
 6098TIP3   OH239784   5.259   3.839   3.942  0.4884 -0.1989 -0.0329
 6098TIP3    H139785   5.342   3.828   3.989  0.7424 -0.7784 -0.6114
 6098TIP3    H239786   5.276   3.805   3.855  0.3594  1.9376 -0.9094
 6099TIP3   OH239787   2.221   5.320  16.902  0.1107  0.6710 -0.2585
 6099TIP3    H139788   2.294   5.381  16.918  1.0484 -0.8577  1.4302
 6099TIP3    H239789   2.188   5.345  16.816  1.1496  2.8978 -0.0454
 6100TIP3   OH239790   3.235   1.379   3.961 -0.2508  0.9670  0.1341
 6100TIP3    H139791   3.157   1.382   4.016 -2.4880 -1.4958 -2.7075
 6100TIP3    H239792   3.215   1.437   3.888  0.4036  0.0381 -0.7990
 6101TIP3   OH239793   6.319   0.576   3.216  0.3809  1.0085  0.0943
 6101TIP3    H139794   6.412   0.587   3.236  0.3909  1.4102 -0.1860
 6101TIP3    H239795   6.279   0.659   3.241  0.1505  0.9623 -0.1192
 6102TIP3   OH239796   1.077   3.730  12.184  1.3702 -0.0823  0.3030
 6102TIP3    H139797   1.158   3.687  12.213  1.9720  0.4867 -0.5181
 6102TIP3    H239798   1.107   3.803  12.130  0.3472  0.9087  1.0370
 6103TIP3   OH239799   0.041   0.912  15.105 -0.4741 -0.4728  0.8453
 6103TIP3    H139800   0.058   0.999  15.070 -1.2033 -0.4107  0.6363
 6103TIP3    H239801   0.110   0.897  15.169  0.5716 -0.3764 -0.2576
 6104TIP3   OH239802   3.269   6.442  14.971 -0.4612 -0.3407  0.3695
 6104TIP3    H139803   3.288   6.471  15.060 -2.1809  1.5490  0.1809
 6104TIP3    H239804   3.321   6.500  14.915  0.5582 -1.4740  0.1279
 6105TIP3   OH239805   5.397   2.155  15.803 -0.1345 -0.1353  0.1276
 6105TIP3    H139806   5.396   2.217  15.876 -0.1504 -0.2770  0.2481
 6105TIP3    H239807   5.437   2.203  15.731  1.8114 -0.6511  0.8188
 6106TIP3   OH239808   4.001   1.254  13.185  0.6928 -0.4181 -0.3044
 6106TIP3    H139809   4.090   1.231  13.209  0.8932  0.5133 -0.1099
 6106TIP3    H239810   3.997   1.349  13.198 -0.8964 -0.6978  1.5743
 6107TIP3   OH239811   5.715   3.585   3.439  0.0753 -0.3967 -0.7307
 6107TIP3    H139812   5.783   3.649   3.416 -0.7472  1.3820  1.5544
 6107TIP3    H239813   5.764   3.513   3.480  0.9164 -0.8272 -2.4418
 6108TIP3   OH239814   1.701   4.650  11.987  0.2689  0.5551  0.1319
 6108TIP3    H139815   1.683   4.637  11.894  0.1576  1.7994 -0.0235
 6108TIP3    H239816   1.716   4.744  11.996 -0.1460  0.5082  1.4449
 6109TIP3   OH239817   3.518   4.863  13.598 -0.0828 -0.0087  0.9467
 6109TIP3    H139818   3.453   4.900  13.539  1.3921  0.8646 -0.1779
 6109TIP3    H239819   3.506   4.910  13.680 -0.4345  0.6006  0.5514
 6110TIP3   OH239820   6.113   4.485   4.324 -0.0993  0.3693  0.0386
 6110TIP3    H139821   6.121   4.438   4.241  0.0773 -1.1600  0.9028
 6110TIP3    H239822   6.165   4.565   4.311 -2.0398  1.3407 -2.1249
 6111TIP3   OH239823   0.716   2.198  14.740 -0.0579  0.5320 -0.2158
 6111TIP3    H139824   0.706   2.286  14.704  0.4325 -0.0504 -1.8207
 6111TIP3    H239825   0.758   2.212  14.825 -0.2415  1.8658 -0.3342
 6112TIP3   OH239826   1.502   3.162   2.696  0.3075  0.0592  0.4755
 6112TIP3    H139827   1.439   3.116   2.640 -0.1958  0.0990  1.0073
 6112TIP3    H239828   1.542   3.093   2.749  0.4103  0.0870  0.4347
 6113TIP3   OH239829   3.825   3.367  15.984  0.3643  0.3543 -0.0386
 6113TIP3    H139830   3.760   3.386  16.051 -0.9067  0.6972 -1.3516
 6113TIP3    H239831   3.909   3.377  16.029 -0.4754 -0.2951  1.7147
 6114TIP3   OH239832   4.295   6.290   5.970 -0.4881 -0.1290 -0.2888
 6114TIP3    H139833   4.240   6.266   6.045 -1.1062  0.5426 -0.5207
 6114TIP3    H239834   4.233   6.312   5.900  0.0809 -0.7780 -1.0115
 6115TIP3   OH239835   3.720   6.199   4.287 -0.3652 -1.1265 -0.0269
 6115TIP3    H139836   3.691   6.179   4.376  0.0385 -0.9994  0.1322
 6115TIP3    H239837   3.815   6.186   4.289  0.2506  2.7027  0.6499
 6116TIP3   OH239838   1.516   2.034   0.961  0.2276  0.5199 -0.3247
 6116TIP3    H139839   1.499   1.998   1.047 -1.4810  0.9978 -0.4410
 6116TIP3    H239840   1.583   2.101   0.975  0.0528  0.5012  0.6186
 6117TIP3   OH239841   1.606   3.458   3.113 -0.4736  0.1878  0.2279
 6117TIP3    H139842   1.626   3.441   3.021 -0.4915 -0.6221  0.3698
 6117TIP3    H239843   1.686   3.435   3.160  0.0153  1.9363  0.2914
 6118TIP3   OH239844   1.750   1.288  13.172  0.1367 -0.1199  0.4633
 6118TIP3    H139845   1.681   1.229  13.202 -0.2482 -0.4735 -1.0924
 6118TIP3    H239846   1.822   1.230  13.147  0.9321  0.2366  1.8692
 6119TIP3   OH239847   1.141   1.961  11.235  0.0785 -0.2098 -0.1422
 6119TIP3    H139848   1.190   1.931  11.159  0.0193  0.1580 -0.3282
 6119TIP3    H239849   1.173   1.907  11.307  1.7609  0.9462  0.0117
 6120TIP3   OH239850   3.517   5.595   2.607 -0.6190  0.1292  0.0159
 6120TIP3    H139851   3.557   5.635   2.530 -1.3719  0.8774  0.0002
 6120TIP3    H239852   3.532   5.659   2.677 -0.0758 -0.4774  0.4490
 6121TIP3   OH239853   3.134   3.688   5.804 -0.0757 -0.3883  0.0363
 6121TIP3    H139854   3.208   3.742   5.833 -0.6328  1.3394 -1.6626
 6121TIP3    H239855   3.175   3.614   5.759  0.6393  0.9395 -1.5454
 6122TIP3   OH239856   1.273   4.327   3.250  0.1334  0.1695 -0.4351
 6122TIP3    H139857   1.183   4.299   3.269  0.2216  0.7622  0.8961
 6122TIP3    H239858   1.274   4.421   3.269  1.1778  0.0565  0.1116
 6123TIP3   OH239859   0.638   6.267  10.546 -0.5290 -0.1230 -0.6206
 6123TIP3    H139860   0.712   6.206  10.540 -1.2094 -1.0135 -0.0175
 6123TIP3    H239861   0.561   6.214  10.524 -1.0894  0.6131 -0.4571
 6124TIP3   OH239862   3.945   4.856   0.400 -0.0438  0.0794  0.2264
 6124TIP3    H139863   4.024   4.897   0.363 -0.1289  0.5016  0.5072
 6124TIP3    H239864   3.945   4.884   0.492 -0.6600  0.2862  0.1609
 6125TIP3   OH239865   5.438   0.120   3.563  0.4782  0.1265 -0.0093
 6125TIP3    H139866   5.412   0.119   3.471 -0.5722  2.3737  0.2289
 6125TIP3    H239867   5.355   0.129   3.611  0.9601 -1.5625  1.1916
 6126TIP3   OH239868   0.551   5.052  16.059  0.2985 -0.3789 -0.4151
 6126TIP3    H139869   0.491   5.003  16.115 -0.6776 -1.1418 -2.0985
 6126TIP3    H239870   0.632   5.001  16.059  0.4157 -0.2076  0.5310
 6127TIP3   OH239871   1.573   0.648   6.193  0.6077  0.0296 -0.1779
 6127TIP3    H139872   1.554   0.701   6.115  1.0779 -0.0500 -0.3497
 6127TIP3    H239873   1.497   0.591   6.202  0.9742 -0.6062 -1.1289
 6128TIP3   OH239874   0.865   2.286  13.140  0.1875 -0.4450 -0.1739
 6128TIP3    H139875   0.807   2.318  13.209  2.7942  0.5181  1.6246
 6128TIP3    H239876   0.833   2.197  13.121 -2.6624  0.5263 -0.1894
 6129TIP3   OH239877   3.463   1.431  12.747  0.2817 -0.9716 -0.0482
 6129TIP3    H139878   3.550   1.464  12.772 -0.2649  2.0934 -1.9289
 6129TIP3    H239879   3.480   1.349  12.701  2.1351 -0.7296  0.1712
 6130TIP3   OH239880   1.529   6.148   3.520 -0.3339  0.5184 -0.3248
 6130TIP3    H139881   1.483   6.068   3.497  0.1454  0.6502 -1.7900
 6130TIP3    H239882   1.538   6.145   3.615  1.2224 -1.9945 -0.5094
 6131TIP3   OH239883   5.839   1.545  13.644  0.4326  0.0799 -0.0120
 6131TIP3    H139884   5.765   1.577  13.694  0.6897 -0.4479  0.7234
 6131TIP3    H239885   5.803   1.519  13.559 -0.2157 -0.1371  0.3319
 6132TIP3   OH239886   6.013   1.477  11.296  0.1262  0.5446  0.4213
 6132TIP3    H139887   6.037   1.452  11.207  2.0021  1.2949  0.7032
 6132TIP3    H239888   5.918   1.473  11.297  0.0776  0.7032 -1.6681
 6133TIP3   OH239889   6.079   3.416   4.162 -0.1581  0.3356  0.2461
 6133TIP3    H139890   6.155   3.465   4.130 -0.9730  2.1624  1.0610
 6133TIP3    H239891   6.080   3.428   4.257 -0.5790 -0.9249  0.4198
 6134TIP3   OH239892   0.721   1.512   2.640 -0.6828 -0.0516  0.8769
 6134TIP3    H139893   0.781   1.575   2.680 -0.5043 -0.8777  1.9330
 6134TIP3    H239894   0.634   1.549   2.655 -0.5449  0.2429  0.9533
 6135TIP3   OH239895   1.624   4.921  12.101 -0.1863 -0.0447  0.1766
 6135TIP3    H139896   1.634   4.969  12.183 -0.9472 -2.4086  1.7158
 6135TIP3    H239897   1.629   4.988  12.033  1.2771  1.8768  2.0888
 6136TIP3   OH239898   3.352   4.996  13.396 -0.2977  0.1603 -0.5854
 6136TIP3    H139899   3.387   5.081  13.419 -0.4821  0.1479 -0.2475
 6136TIP3    H239900   3.260   5.013  13.373 -0.2511  0.0983 -0.8252
 6137TIP3   OH239901   2.414   1.731  14.049 -0.4295 -0.5861 -0.3841
 6137TIP3    H139902   2.480   1.735  14.117  0.0267  0.3146 -0.8639
 6137TIP3    H239903   2.359   1.809  14.064  0.5596  0.4402 -1.9151
 6138TIP3   OH239904   1.182   5.608   2.014  0.0706  0.3121 -0.1848
 6138TIP3    H139905   1.134   5.611   1.932  0.3197 -1.6381 -0.4093
 6138TIP3    H239906   1.274   5.620   1.989  0.3632 -2.2962 -0.4105
 6139TIP3   OH239907   2.003   2.388   5.599 -0.3134  0.3194 -0.0540
 6139TIP3    H139908   2.006   2.468   5.547 -0.3821  0.0829 -0.4202
 6139TIP3    H239909   2.095   2.363   5.610 -0.2597  0.7475  0.5284
 6140TIP3   OH239910   6.183   1.889  15.272  0.4769  0.0167  0.1244
 6140TIP3    H139911   6.124   1.919  15.341  0.4076 -0.4265  0.2613
 6140TIP3    H239912   6.171   1.951  15.201 -0.3590 -0.2293  0.0474
 6141TIP3   OH239913   5.649   4.367  16.340  0.3974 -0.3566 -0.2683
 6141TIP3    H139914   5.590   4.337  16.409 -1.9979  3.1880 -0.6265
 6141TIP3    H239915   5.649   4.296  16.276 -1.7367 -1.3963  0.8262
 6142TIP3   OH239916   1.800   5.934   2.006  0.1924 -0.2129 -0.2544
 6142TIP3    H139917   1.734   5.877   1.966  1.5376 -1.6016 -0.5195
 6142TIP3    H239918   1.830   5.990   1.935  0.9395 -1.1339 -0.6705
 6143TIP3   OH239919   3.392   4.676  11.006 -0.3586 -0.3124  0.2777
 6143TIP3    H139920   3.296   4.681  11.006 -0.3571 -0.1838  1.3111
 6143TIP3    H239921   3.419   4.723  11.085  0.5691 -0.2192 -0.0808
 6144TIP3   OH239922   0.930   2.757  17.123  0.1555 -0.2528 -0.5897
 6144TIP3    H139923   0.919   2.682  17.064 -1.1700  1.4628 -2.5590
 6144TIP3    H239924   0.932   2.833  17.066  2.1180  1.2193  1.3392
 6145TIP3   OH239925   5.246   6.192  17.176 -0.4129  0.3608  0.5512
 6145TIP3    H139926   5.330   6.205  17.219  0.2980 -0.0898 -0.6560
 6145TIP3    H239927   5.221   6.279  17.144 -0.0141  0.3619  0.2336
 6146TIP3   OH239928   6.400   1.943  12.096 -0.3921 -0.4445  1.0396
 6146TIP3    H139929   6.427   2.017  12.151  1.2715  0.8425 -1.4298
 6146TIP3    H239930   6.308   1.930  12.119 -0.5167  1.8878  2.0962
 6147TIP3   OH239931   6.505   4.235   4.716 -0.3055 -0.3426  0.1025
 6147TIP3    H139932   6.601   4.241   4.712 -0.2495 -0.5249  1.2120
 6147TIP3    H239933   6.475   4.297   4.649  0.4941  2.9750  2.6934
 6148TIP3   OH239934   3.330   2.553   2.079 -0.1156 -0.3189 -0.2310
 6148TIP3    H139935   3.365   2.633   2.040  0.4176 -0.2102  0.4662
 6148TIP3    H239936   3.250   2.581   2.125  0.5006 -0.0364  0.6870
 6149TIP3   OH239937   3.795   4.512  15.000 -0.2864 -0.9754 -0.3217
 6149TIP3    H139938   3.886   4.486  14.986 -0.4319 -1.0973 -1.0815
 6149TIP3    H239939   3.799   4.605  15.021 -0.1344 -0.5038 -2.3478
 6150TIP3   OH239940   0.764   5.227   5.003 -0.3437 -0.1347  0.2900
 6150TIP3    H139941   0.835   5.243   4.941 -1.3147  1.9718 -0.3287
 6150TIP3    H239942   0.708   5.163   4.960  0.0003 -0.1162 -0.1890
 6151TIP3   OH239943   2.128   1.661   3.630  0.0258  0.1702 -0.4438
 6151TIP3    H139944   2.036   1.636   3.624 -0.4038  1.8602 -1.2677
 6151TIP3    H239945   2.141   1.722   3.557  2.0712 -0.8396 -0.9603
 6152TIP3   OH239946   2.855   3.037  11.557 -0.0147  0.4985 -0.0599
 6152TIP3    H139947   2.918   3.003  11.620 -0.0245 -0.6994 -0.6929
 6152TIP3    H239948   2.878   2.995  11.474  0.6556  2.8174 -1.1016
 6153TIP3   OH239949   0.678   2.415  16.495  0.1715 -0.0991  0.4137
 6153TIP3    H139950   0.737   2.365  16.439  0.4832  1.9430 -1.1410
 6153TIP3    H239951   0.733   2.484  16.533 -1.0301  1.4024 -0.5059
 6154TIP3   OH239952   0.519   2.332   2.467  0.5888  0.0558 -0.1875
 6154TIP3    H139953   0.462   2.316   2.392  1.1427  1.9146 -1.0362
 6154TIP3    H239954   0.608   2.324   2.432  0.8562  1.4980  0.1217
 6155TIP3   OH239955   3.536   1.896  14.901  0.1747 -0.0417  0.4522
 6155TIP3    H139956   3.617   1.925  14.857  0.2618  1.6761  1.6876
 6155TIP3    H239957   3.566   1.836  14.969  0.4011  0.4515  0.7914
 6156TIP3   OH239958   5.670   4.452  14.510 -0.8751 -0.5304  0.0656
 6156TIP3    H139959   5.696   4.465  14.601 -1.2687  1.2708 -0.0520
 6156TIP3    H239960   5.613   4.527  14.491  0.0388 -0.3390 -1.9781
 6157TIP3   OH239961   0.641   3.329  14.145 -0.1171  0.1958 -0.4800
 6157TIP3    H139962   0.566   3.316  14.088 -0.7522 -2.2057  0.8529
 6157TIP3    H239963   0.608   3.383  14.217 -0.2281  0.2479 -0.5693
 6158TIP3   OH239964   1.230   5.340   2.726 -0.1653 -0.3018  0.3522
 6158TIP3    H139965   1.277   5.394   2.662 -0.9737 -1.6635 -1.4316
 6158TIP3    H239966   1.195   5.403   2.789 -1.7847  1.3922 -2.1318
 6159TIP3   OH239967   6.009   6.097  11.967 -0.0366  0.1470 -0.2622
 6159TIP3    H139968   6.092   6.092  12.015 -0.0906 -1.4360 -0.2880
 6159TIP3    H239969   6.035   6.117  11.877  0.4452 -1.5677 -0.5340
 6160TIP3   OH239970   6.651   5.085   6.613 -0.2199 -0.0176 -0.6265
 6160TIP3    H139971   6.680   5.048   6.529  0.3692  1.0615 -0.9217
 6160TIP3    H239972   6.556   5.076   6.612 -0.1657 -0.5561 -1.1555
 6161TIP3   OH239973   2.096   1.674  11.382  0.2463  0.1214 -0.3367
 6161TIP3    H139974   2.021   1.733  11.390  0.0167 -0.1359 -0.6024
 6161TIP3    H239975   2.154   1.718  11.319  0.2558  0.2525 -0.2357
 6162TIP3   OH239976   3.536   3.791  15.529 -0.3821 -0.6650  0.3412
 6162TIP3    H139977   3.628   3.766  15.521  0.0496  1.1142 -0.4129
 6162TIP3    H239978   3.526   3.819  15.620 -0.5899 -2.4101  0.8732
 6163TIP3   OH239979   2.418   5.608  11.214 -0.4913  0.5344 -0.5515
 6163TIP3    H139980   2.325   5.613  11.194 -0.6639  0.2955  0.1877
 6163TIP3    H239981   2.441   5.516  11.202 -1.4286 -0.4156  3.8917
 6164TIP3   OH239982   4.848   3.605  17.269 -0.0246 -0.4266  0.3846
 6164TIP3    H139983   4.768   3.630  17.316  1.0815  2.4408  0.8222
 6164TIP3    H239984   4.832   3.632  17.179 -1.0981 -3.5502 -0.4271
 6165TIP3   OH239985   2.722   1.451  14.091 -0.0144  0.2954  0.1868
 6165TIP3    H139986   2.746   1.515  14.025  0.3492  0.3641  0.3853
 6165TIP3    H239987   2.674   1.502  14.157  1.8583  0.7245  1.2588
 6166TIP3   OH239988   5.094   4.899   4.489  0.6339 -0.0700  0.7200
 6166TIP3    H139989   5.061   4.888   4.400 -2.2205  1.4468  1.5243
 6166TIP3    H239990   5.015   4.896   4.544  2.2118  0.3299  3.0780
 6167TIP3   OH239991   1.260   3.418  14.839  0.3104 -0.5951  0.0762
 6167TIP3    H139992   1.251   3.411  14.934  0.0840 -1.1771  0.0190
 6167TIP3    H239993   1.181   3.463  14.810  1.2099  1.1925  0.3398
 6168TIP3   OH239994   0.699   0.256  15.298  0.1313  0.1571 -0.2363
 6168TIP3    H139995   0.778   0.233  15.346  0.2173 -1.4736 -1.1274
 6168TIP3    H239996   0.724   0.251  15.206 -0.3797  1.9723 -0.4948
 6169TIP3   OH239997   5.128   6.605  15.782 -0.2873 -0.0096  0.1838
 6169TIP3    H139998   5.039   6.575  15.761 -0.1170  0.1280 -0.7283
 6169TIP3    H239999   5.160   6.644  15.701  0.8970 -0.7512  0.2963
 6170TIP3   OH240000   5.551   1.363  11.514 -0.0956  0.0277  0.2604
 6170TIP3    H140001   5.579   1.277  11.543  1.2427  0.6940  0.9748
 6170TIP3    H240002   5.505   1.401  11.589 -3.0362 -1.0605 -0.9012
 6171TIP3   OH240003   4.302   1.212   1.256 -0.0685 -0.6239 -0.2115
 6171TIP3    H140004   4.259   1.166   1.329 -0.0909 -2.1929 -1.1927
 6171TIP3    H240005   4.238   1.277   1.227 -0.5642 -0.8657  0.3313
 6172TIP3   OH240006   6.370   6.296  13.689 -0.1477 -0.7441  0.3552
 6172TIP3    H140007   6.371   6.357  13.763 -0.5806  0.0937 -0.3190
 6172TIP3    H240008   6.439   6.233  13.709 -1.1865 -1.3420  2.1455
 6173TIP3   OH240009   1.723   0.106  16.613  0.5358 -0.3964  0.1268
 6173TIP3    H140010   1.715   0.011  16.607  0.5658 -0.4569  0.9984
 6173TIP3    H240011   1.634   0.139  16.601  0.8765 -0.3688 -2.8567
 6174TIP3   OH240012   6.274   2.014  13.021 -0.2226 -0.2889 -0.2485
 6174TIP3    H140013   6.189   1.984  12.989  0.4086 -1.0250 -1.2735
 6174TIP3    H240014   6.326   1.935  13.032  0.2626  0.1374  0.5822
 6175TIP3   OH240015   4.924   3.993  17.197 -0.4554  0.0115  0.4529
 6175TIP3    H140016   4.974   3.936  17.139  0.1535  0.2831  0.7066
 6175TIP3    H240017   4.976   4.073  17.203 -0.9531  0.3235  0.6714
 6176TIP3   OH240018   4.451   0.200  14.277 -0.2301  0.0887  0.1529
 6176TIP3    H140019   4.507   0.197  14.354 -2.0441 -1.5825  1.4378
 6176TIP3    H240020   4.362   0.210  14.311 -1.0843 -0.9441 -1.6931
 6177TIP3   OH240021   0.037   1.069   1.043 -0.1317  0.4129  0.2299
 6177TIP3    H140022   0.097   1.133   1.003  1.2128 -0.3204  1.0540
 6177TIP3    H240023  -0.015   1.036   0.969 -0.6082  2.1991 -0.2557
 6178TIP3   OH240024   2.870   3.669   3.881  0.3022 -0.5074 -0.1793
 6178TIP3    H140025   2.947   3.669   3.939  0.5410  0.6711 -0.4845
 6178TIP3    H240026   2.905   3.643   3.796  0.5426  0.9309 -0.5330
 6179TIP3   OH240027   1.011   2.969  12.255 -0.3600 -0.0852 -0.8104
 6179TIP3    H140028   1.006   2.911  12.330 -1.6208 -0.8661 -1.4867
 6179TIP3    H240029   1.105   2.980  12.239 -0.1071 -0.8502  0.1452
 6180TIP3   OH240030   3.298   5.549  17.108 -0.2835 -0.3220 -0.2942
 6180TIP3    H140031   3.344   5.553  17.192 -1.8023  2.5918  0.4745
 6180TIP3    H240032   3.205   5.542  17.132 -0.6160 -0.9368 -1.7425
 6181TIP3   OH240033   1.097   2.483   0.496 -0.3588  0.3791 -0.6285
 6181TIP3    H140034   1.113   2.405   0.444 -0.8259  1.2573 -2.1336
 6181TIP3    H240035   1.183   2.509   0.529 -0.0279 -0.0577 -1.1592
 6182TIP3   OH240036   0.652   2.496   1.368 -0.0931 -0.6379 -0.3497
 6182TIP3    H140037   0.674   2.479   1.460 -1.1203  0.2903  0.0912
 6182TIP3    H240038   0.567   2.454   1.356 -0.5094  0.2363 -0.5363
 6183TIP3   OH240039   1.906   4.832   3.825  0.1348  0.4631  0.0837
 6183TIP3    H140040   1.999   4.808   3.830  0.5589  1.8959 -0.6726
 6183TIP3    H240041   1.887   4.869   3.912  0.2729  0.1717  0.2394
 6184TIP3   OH240042   6.465   4.042   5.860  0.0584 -0.1835 -0.0837
 6184TIP3    H140043   6.559   4.047   5.840  0.4997 -1.1157  1.6459
 6184TIP3    H240044   6.461   4.002   5.947 -1.9400  0.2000  0.0248
 6185TIP3   OH240045   1.784   2.000  15.683 -0.0862 -0.4392 -0.3291
 6185TIP3    H140046   1.727   1.976  15.757  0.5896 -0.6179  0.1376
 6185TIP3    H240047   1.730   2.059  15.630 -0.8462 -0.9153 -0.1005
 6186TIP3   OH240048   0.824   0.879   0.852 -0.1403 -0.3667 -1.0885
 6186TIP3    H140049   0.865   0.796   0.877 -0.0371 -0.0322 -0.1006
 6186TIP3    H240050   0.741   0.879   0.899 -0.5118 -0.2904 -1.7546
 6187TIP3   OH240051   3.832   5.001  16.573  0.0081  0.1819  0.2130
 6187TIP3    H140052   3.740   5.003  16.548  0.3669  1.8098 -1.0905
 6187TIP3    H240053   3.878   4.970  16.494  0.7966  1.7306  0.0489
 6188TIP3   OH240054   3.680   5.300  16.483  0.1391  0.7103  0.4196
 6188TIP3    H140055   3.726   5.383  16.466 -0.0844  0.6827 -0.3418
 6188TIP3    H240056   3.710   5.274  16.570  2.2075  0.2796 -0.4050
 6189TIP3   OH240057   3.157   2.537   1.532  0.2378  0.0538 -0.3996
 6189TIP3    H140058   3.079   2.506   1.487 -1.4464  1.7164  1.2816
 6189TIP3    H240059   3.218   2.559   1.462 -0.4964 -1.9546 -1.7228
 6190TIP3   OH240060   1.199   6.028  14.409 -0.0893  0.0171 -0.3380
 6190TIP3    H140061   1.241   6.103  14.452  2.4999 -1.2466 -0.5269
 6190TIP3    H240062   1.170   6.062  14.325 -0.5287  1.2359  0.2889
 6191TIP3   OH240063   0.635   5.218  12.345  0.3219 -0.5296 -0.0352
 6191TIP3    H140064   0.581   5.152  12.389  0.0514 -0.0368  0.3791
 6191TIP3    H240065   0.722   5.179  12.340  0.4073 -0.5060  1.1448
 6192TIP3   OH240066   5.916   0.455   4.801 -0.1185  0.1082  0.1639
 6192TIP3    H140067   5.925   0.537   4.850  0.6723  0.5396 -0.6805
 6192TIP3    H240068   5.854   0.476   4.731  0.5909  0.1862 -0.4504
 6193TIP3   OH240069   6.425   4.793   4.749  0.3560  0.0120  0.0484
 6193TIP3    H140070   6.439   4.880   4.712 -0.4796  0.6546  1.2243
 6193TIP3    H240071   6.487   4.788   4.822  1.7073 -1.0943 -1.1450
 6194TIP3   OH240072   2.218   4.616  12.693 -0.8096  0.0571  0.5899
 6194TIP3    H140073   2.260   4.679  12.634 -1.4258  0.3210  0.4230
 6194TIP3    H240074   2.289   4.562  12.726 -0.2039  1.1853  1.1454
 6195TIP3   OH240075   5.692   4.701  12.472 -0.1978  0.6209 -0.3686
 6195TIP3    H140076   5.630   4.720  12.543 -0.6950 -0.3843 -0.5255
 6195TIP3    H240077   5.667   4.761  12.402 -0.9577  0.2603 -0.4082
 6196TIP3   OH240078   0.594   5.683  16.911 -0.2794 -0.6377  0.1561
 6196TIP3    H140079   0.616   5.601  16.867 -1.1227 -1.7379  1.7172
 6196TIP3    H240080   0.580   5.746  16.840  1.2636 -1.6108 -1.0291
 6197TIP3   OH240081   2.504   5.830   6.083 -0.6020 -0.1701 -0.7285
 6197TIP3    H140082   2.567   5.875   6.027  0.6146  0.6350  1.2634
 6197TIP3    H240083   2.540   5.741   6.092 -1.1252 -0.4890 -1.7126
 6198TIP3   OH240084   6.770   0.544  11.908 -0.4843 -0.6900 -0.1232
 6198TIP3    H140085   6.844   0.597  11.877  0.6386 -1.8634  0.4986
 6198TIP3    H240086   6.693   0.597  11.887  0.6592  1.9349  1.9662
 6199TIP3   OH240087   4.105   3.953   1.930 -0.3793  0.0510 -0.0774
 6199TIP3    H140088   4.015   3.926   1.945 -0.7199  0.5894 -1.0445
 6199TIP3    H240089   4.117   3.941   1.836 -0.4198  2.8022 -0.4803
 6200TIP3   OH240090   6.509   5.145   1.126  0.1778 -0.3532  0.1318
 6200TIP3    H140091   6.602   5.124   1.126 -0.0751 -1.5190  2.1962
 6200TIP3    H240092   6.484   5.148   1.218 -2.0179 -0.8674 -0.4161
 6201TIP3   OH240093   2.586   2.912  11.562 -0.5078  0.3443 -0.0580
 6201TIP3    H140094   2.669   2.908  11.609 -0.3553  1.7091 -0.1946
 6201TIP3    H240095   2.610   2.903  11.470 -0.7437 -1.6265  0.0444
 6202TIP3   OH240096   2.279   0.015   0.248 -0.1891  0.6641 -0.1740
 6202TIP3    H140097   2.280  -0.077   0.222 -0.4450  0.6950 -0.2937
 6202TIP3    H240098   2.198   0.049   0.210 -0.6006  0.6916  0.7112
 6203TIP3   OH240099   5.473   4.438   1.862  0.0350  0.3219 -0.3009
 6203TIP3    H140100   5.407   4.491   1.817  0.5830 -0.1130 -1.6311
 6203TIP3    H240101   5.448   4.348   1.843  0.9370  0.1547 -0.6746
 6204TIP3   OH240102   2.245   1.457   5.670  0.2711 -0.1723  0.1402
 6204TIP3    H140103   2.253   1.550   5.692 -1.3063 -0.4425  1.9194
 6204TIP3    H240104   2.328   1.437   5.627  0.8110  1.9540  0.0951
 6205TIP3   OH240105   3.592   2.649  15.454  0.3511  0.8812  0.3107
 6205TIP3    H140106   3.508   2.619  15.420 -0.0415 -0.0022  2.0345
 6205TIP3    H240107   3.635   2.690  15.378 -1.1671  0.3810 -0.8432
 6206TIP3   OH240108   5.473   2.273   2.072  0.2277  0.1188  0.3979
 6206TIP3    H140109   5.455   2.198   2.015  2.9954  0.4774 -1.0495
 6206TIP3    H240110   5.399   2.333   2.057 -0.0981 -0.6788 -1.3013
 6207TIP3   OH240111   1.300   6.396  11.239 -0.2476  0.0954 -0.3619
 6207TIP3    H140112   1.245   6.384  11.316 -0.4473  0.1012 -0.5047
 6207TIP3    H240113   1.239   6.402  11.166 -0.0722  0.3951 -0.4852
 6208TIP3   OH240114   2.825   2.199   5.212  0.3478  0.4095 -0.0663
 6208TIP3    H140115   2.834   2.286   5.173  0.0372 -0.2751 -1.7479
 6208TIP3    H240116   2.910   2.157   5.196  0.1309  0.0346 -0.2401
 6209TIP3   OH240117   6.420   0.595   4.871  0.2434 -0.3229  0.5091
 6209TIP3    H140118   6.362   0.568   4.943  1.5195 -0.9387  1.3251
 6209TIP3    H240119   6.500   0.623   4.914  0.3521  1.1009 -0.5791
 6210TIP3   OH240120   1.130   6.175   5.908  0.8780 -0.3788  0.0225
 6210TIP3    H140121   1.044   6.165   5.868  1.1124  0.9164 -0.8361
 6210TIP3    H240122   1.126   6.259   5.953  1.1805 -1.0459  1.3166
 6211TIP3   OH240123   0.540   0.543  15.610 -0.4998 -0.2170  0.4395
 6211TIP3    H140124   0.524   0.627  15.568 -0.4409 -0.1208  0.6060
 6211TIP3    H240125   0.596   0.564  15.685  0.0657 -0.4891  0.1033
 6212TIP3   OH240126   6.701   5.493  12.115  0.2535 -0.2829 -0.0593
 6212TIP3    H140127   6.788   5.500  12.077 -0.4768 -0.3669 -1.7856
 6212TIP3    H240128   6.712   5.436  12.191  1.9487  0.8580  0.5779
 6213TIP3   OH240129   6.758   1.240   4.396  0.0736  0.5224 -0.9861
 6213TIP3    H140130   6.676   1.205   4.430 -0.6790  1.5482 -1.7027
 6213TIP3    H240131   6.776   1.187   4.318  0.3728 -0.0532 -0.5261
 6214TIP3   OH240132   5.634   1.698   0.534  0.1623 -0.0021  0.1708
 6214TIP3    H140133   5.636   1.609   0.570  0.2877 -2.1316 -4.7567
 6214TIP3    H240134   5.708   1.743   0.575  0.8084 -2.4768  1.8164
 6215TIP3   OH240135   0.532   2.918  17.210 -0.4704 -0.0593  0.0462
 6215TIP3    H140136   0.605   2.979  17.220 -1.0284  0.4834  0.8462
 6215TIP3    H240137   0.554   2.846  17.269 -1.5658  1.0553  1.8555
 6216TIP3   OH240138   5.946   5.313  17.285  0.4790  0.8230 -0.7982
 6216TIP3    H140139   6.037   5.341  17.295  0.0391  1.6102  1.3143
 6216TIP3    H240140   5.926   5.270  17.368 -1.0894  0.6773 -1.2464
 6217TIP3   OH240141   4.458   4.854  12.668 -0.1054 -0.4163  0.1853
 6217TIP3    H140142   4.470   4.814  12.754 -2.1246  1.7587  1.5477
 6217TIP3    H240143   4.373   4.821  12.639  0.5801 -1.1540 -1.0245
 6218TIP3   OH240144   4.964   3.352  17.176  0.2864  0.1994 -0.2114
 6218TIP3    H140145   5.009   3.315  17.100 -0.1171  0.9272 -0.8168
 6218TIP3    H240146   4.911   3.423  17.140 -1.1528 -0.4733  0.5239
 6219TIP3   OH240147   0.137   5.624   3.393 -0.1404  0.1490 -0.6111
 6219TIP3    H140148   0.053   5.644   3.434  0.0302 -0.6172  0.1324
 6219TIP3    H240149   0.116   5.564   3.322 -0.3132  0.5838 -0.9250
 6220TIP3   OH240150   6.390   2.928   3.695 -0.8509 -0.6118 -0.1539
 6220TIP3    H140151   6.366   2.858   3.755 -0.4080 -0.7519 -0.1425
 6220TIP3    H240152   6.455   2.980   3.743  1.3914 -2.1519 -1.4337
 6221TIP3   OH240153   3.104   3.066   5.415 -0.2715 -0.2674  0.0763
 6221TIP3    H140154   3.177   3.073   5.476 -0.4423 -0.4841  0.3079
 6221TIP3    H240155   3.114   2.980   5.374 -0.6748 -0.5141  0.4775
 6222TIP3   OH240156   2.730   3.297   0.785 -0.2723 -0.1421 -0.0187
 6222TIP3    H140157   2.681   3.218   0.806  3.0158 -2.5696 -1.0240
 6222TIP3    H240158   2.800   3.300   0.850  2.2284 -0.5455 -2.6138
 6223TIP3   OH240159   0.808   2.661  15.319 -0.2552 -0.0971  0.2361
 6223TIP3    H140160   0.801   2.628  15.230 -0.2942  1.4343 -0.3517
 6223TIP3    H240161   0.884   2.616  15.356  1.1286  0.8852 -1.3145
 6224TIP3   OH240162   1.844   5.715   3.317  0.8481 -0.0104  0.6430
 6224TIP3    H140163   1.805   5.708   3.229  0.7300  0.3098  0.6701
 6224TIP3    H240164   1.890   5.632   3.329 -0.5168 -0.7492  0.9358
 6225TIP3   OH240165   2.021   4.794   3.305  0.2855  0.1568  0.3456
 6225TIP3    H140166   2.086   4.724   3.317  0.8234  0.5372 -0.3299
 6225TIP3    H240167   1.986   4.809   3.393  0.2623 -0.8655  0.5212
 6226TIP3   OH240168   4.172   6.405   3.768  0.4788 -0.1315 -0.4427
 6226TIP3    H140169   4.251   6.438   3.809  0.8278 -1.4561 -0.0106
 6226TIP3    H240170   4.165   6.453   3.686  0.9580  0.9893  0.1615
 6227TIP3   OH240171   4.076   4.237  12.727  0.4789 -0.0397  0.1206
 6227TIP3    H140172   4.057   4.295  12.801  0.3243 -2.6301  2.1630
 6227TIP3    H240173   3.998   4.181  12.721  0.8718 -0.4294 -1.4573
 6228TIP3   OH240174   3.126   0.968  12.076  0.0504  0.1897  0.0433
 6228TIP3    H140175   3.042   1.009  12.097  0.3815  1.5557 -1.1779
 6228TIP3    H240176   3.106   0.910  12.002  0.2121  0.6851 -0.3938
 6229TIP3   OH240177   1.827   2.297  11.921 -0.1651 -0.1689  0.1693
 6229TIP3    H140178   1.763   2.325  11.986  0.8551 -0.1927  1.1987
 6229TIP3    H240179   1.855   2.377  11.878 -1.1923 -0.2051 -0.5677
 6230TIP3   OH240180   4.828   1.446  13.874 -0.1495  0.1271  0.1403
 6230TIP3    H140181   4.897   1.505  13.844  0.6523 -0.9125 -0.0820
 6230TIP3    H240182   4.867   1.398  13.947  0.1184 -1.9882 -1.3312
 6231TIP3   OH240183   2.994   3.982  17.178  0.0356 -0.2909  0.3942
 6231TIP3    H140184   3.037   3.910  17.132  2.1723  1.9066 -1.2310
 6231TIP3    H240185   3.005   3.963  17.271 -1.1715 -3.0008  0.0286
 6232TIP3   OH240186   5.783   0.733  16.348  0.2416 -0.0683 -0.3529
 6232TIP3    H140187   5.843   0.670  16.389  0.7991  1.5253  1.3383
 6232TIP3    H240188   5.750   0.786  16.421 -1.1000  0.8698 -1.6108
 6233TIP3   OH240189   6.029   4.662   4.804  0.4622 -0.1889  0.2260
 6233TIP3    H140190   5.998   4.577   4.772 -0.6937  0.1934  0.3187
 6233TIP3    H240191   6.019   4.721   4.729  1.8594 -0.2547 -0.0383
 6234TIP3   OH240192   6.461   5.649  12.433  0.3364  0.2166  0.6169
 6234TIP3    H140193   6.425   5.668  12.347  0.6571  2.7501  0.9964
 6234TIP3    H240194   6.410   5.705  12.493  0.5964 -0.9751  1.9832
 6235TIP3   OH240195   3.660   5.543  14.822  0.0973  0.0962 -0.3392
 6235TIP3    H140196   3.749   5.576  14.821  1.1626 -2.6143  0.1339
 6235TIP3    H240197   3.644   5.515  14.732 -0.9972  2.3011 -0.8678
 6236TIP3   OH240198   5.904   2.952  14.124 -0.2110  0.3082 -0.7659
 6236TIP3    H140199   5.828   2.902  14.093 -0.8299  0.1346  0.9655
 6236TIP3    H240200   5.871   3.041  14.136 -0.2907  0.1046  0.5388
 6237TIP3   OH240201   3.557   1.189   6.061 -0.0477  0.5268 -0.6995
 6237TIP3    H140202   3.604   1.106   6.068  0.2852  0.8112  0.7569
 6237TIP3    H240203   3.574   1.233   6.145  0.6186  2.5001 -1.8358
 6238TIP3   OH240204   4.343   6.091  15.964  0.0083 -0.3183  0.3878
 6238TIP3    H140205   4.318   6.084  15.872 -1.0377  0.9846  0.5583
 6238TIP3    H240206   4.357   6.184  15.978  3.7826 -0.8813  0.6484
 6239TIP3   OH240207   5.506   6.506  12.312  0.1698  0.1226 -0.3009
 6239TIP3    H140208   5.524   6.430  12.367 -1.2967 -1.1737 -1.5525
 6239TIP3    H240209   5.568   6.573  12.342  1.0039 -1.3255  1.2931
 6240TIP3   OH240210   5.157   0.698   2.304 -0.2081  0.7019 -0.3001
 6240TIP3    H140211   5.187   0.681   2.393 -1.2947  1.0997  0.1507
 6240TIP3    H240212   5.063   0.681   2.307  0.0325 -0.9506 -1.7960
 6241TIP3   OH240213   2.154   4.339   4.970  0.6699  0.1696 -0.5957
 6241TIP3    H140214   2.165   4.247   4.949 -1.5804 -0.6292  1.4716
 6241TIP3    H240215   2.103   4.375   4.898  2.5183  0.1172 -1.9769
 6242TIP3   OH240216   3.079   3.990   1.161 -0.1440  0.0028  0.0977
 6242TIP3    H140217   3.015   4.044   1.208 -0.5564  0.4131 -0.9304
 6242TIP3    H240218   3.111   4.047   1.090  1.3651 -0.1947  0.5994
 6243TIP3   OH240219   2.383   0.009   3.985  0.4706  0.3575 -0.6489
 6243TIP3    H140220   2.355   0.101   3.992  0.5359  0.4234 -1.2204
 6243TIP3    H240221   2.424  -0.010   4.069  0.4631  0.8540 -0.5308
 6244TIP3   OH240222   3.998   2.015  13.367 -0.6780  0.2244  0.1706
 6244TIP3    H140223   3.984   1.948  13.434  1.4121 -0.3466  0.1013
 6244TIP3    H240224   4.084   2.052  13.389 -1.4157  2.2705 -0.3263
 6245TIP3   OH240225   4.366   2.916   5.752 -0.0636  0.6637  0.9814
 6245TIP3    H140226   4.349   2.997   5.704 -3.7624 -1.2928 -1.2722
 6245TIP3    H240227   4.372   2.943   5.843  0.3109  3.6592  0.1135
 6246TIP3   OH240228   6.186   4.090  10.676  0.1024  0.3688  0.1493
 6246TIP3    H140229   6.117   4.154  10.690  0.0716  0.3634  0.0187
 6246TIP3    H240230   6.140   4.006  10.667  0.2389  0.0780  1.9859
 6247TIP3   OH240231   1.474   0.576   5.045  0.0905 -0.4404 -0.1456
 6247TIP3    H140232   1.560   0.606   5.075  0.6618 -1.6299 -0.5796
 6247TIP3    H240233   1.455   0.499   5.098  0.0378 -1.1506 -1.1696
 6248TIP3   OH240234   2.092   1.806  16.485 -0.7340  0.0109  0.3250
 6248TIP3    H140235   2.157   1.870  16.514 -1.0497 -0.2040  1.5217
 6248TIP3    H240236   2.008   1.843  16.513 -0.9569 -0.6899  0.5953
 6249TIP3   OH240237   2.516   4.945  16.726 -0.6185 -0.2283 -0.5668
 6249TIP3    H140238   2.486   4.862  16.762 -0.7507 -0.7324 -1.8069
 6249TIP3    H240239   2.610   4.933  16.712 -1.0199 -0.9822 -2.8429
 6250TIP3   OH240240   0.349   1.746   0.913 -0.2228 -0.3058 -1.2499
 6250TIP3    H140241   0.442   1.763   0.929 -0.3361 -0.1991 -0.7048
 6250TIP3    H240242   0.304   1.820   0.953 -0.5060  0.0328 -2.1764
 6251TIP3   OH240243   0.596   3.391   5.932  0.4569 -0.2884  0.5460
 6251TIP3    H140244   0.678   3.347   5.910  0.3827  0.3309 -1.0250
 6251TIP3    H240245   0.556   3.335   5.999  2.1521 -0.5881  1.3296
 6252TIP3   OH240246   2.566   3.289  11.741  0.4621 -0.6685 -0.2597
 6252TIP3    H140247   2.484   3.328  11.770  1.2987  1.0742 -0.1512
 6252TIP3    H240248   2.576   3.210  11.795 -1.9197 -1.7889 -1.4140
 6253TIP3   OH240249   5.714   3.291   5.051 -0.1549  0.2990  0.0452
 6253TIP3    H140250   5.690   3.254   5.136 -0.2324  2.4259  0.9794
 6253TIP3    H240251   5.784   3.352   5.071  0.7498 -0.1592 -1.6282
 6254TIP3   OH240252   1.124   0.152  16.228 -0.0921 -0.3663 -0.7885
 6254TIP3    H140253   1.192   0.160  16.161 -0.8374  1.8320 -1.3289
 6254TIP3    H240254   1.043   0.173  16.182 -0.5196  2.0619  0.9661
 6255TIP3   OH240255   4.182   4.877   2.213  0.1801 -0.0022  0.4038
 6255TIP3    H140256   4.136   4.952   2.253  2.3883  0.0024  3.1445
 6255TIP3    H240257   4.261   4.868   2.266  2.9169 -0.5798 -3.5920
 6256TIP3   OH240258   6.812   3.725   0.806 -0.0858  0.4102  0.1786
 6256TIP3    H140259   6.870   3.682   0.744  0.6985  1.2223  0.3433
 6256TIP3    H240260   6.726   3.721   0.765  0.2823  0.1977 -0.5771
 6257TIP3   OH240261   3.415   3.363   6.201 -0.3713 -0.5442  0.1373
 6257TIP3    H140262   3.372   3.420   6.264  0.5988 -2.0931  2.2918
 6257TIP3    H240263   3.352   3.293   6.185 -1.2329  0.6687 -1.8530
 6258TIP3   OH240264   0.144   4.198  14.845 -0.0304  0.2031 -0.6295
 6258TIP3    H140265   0.189   4.247  14.776 -2.0227 -0.8396 -2.7487
 6258TIP3    H240266   0.061   4.243  14.857 -0.6111 -0.9055 -0.4418
 6259TIP3   OH240267   6.415   6.353   4.039  0.0733 -0.1975  0.2928
 6259TIP3    H140268   6.319   6.350   4.035  0.1546 -0.7421 -2.1375
 6259TIP3    H240269   6.437   6.300   4.116 -1.5392 -0.8997  0.2939
 6260TIP3   OH240270   5.579   3.883   2.313 -0.0583  0.7318 -0.2980
 6260TIP3    H140271   5.499   3.845   2.348 -0.1495  1.0560 -0.1513
 6260TIP3    H240272   5.605   3.948   2.378 -0.2792  1.4015 -0.8816
 6261TIP3   OH240273   5.799   1.765  13.017  0.0346 -0.2904  0.5654
 6261TIP3    H140274   5.871   1.714  13.056 -0.6843 -1.4707  0.3759
 6261TIP3    H240275   5.722   1.741  13.068 -1.0702 -2.4248 -1.9995
 6262TIP3   OH240276   2.908   0.489  11.350 -0.2672 -0.1142  0.5286
 6262TIP3    H140277   2.981   0.485  11.289  0.2049 -1.9196  1.1794
 6262TIP3    H240278   2.851   0.559  11.317  0.8997  0.1458 -0.9210
 6263TIP3   OH240279   2.264   5.037   3.147  0.1221 -0.7766  0.0177
 6263TIP3    H140280   2.217   5.053   3.065 -1.3608  2.5868  1.4282
 6263TIP3    H240281   2.356   5.051   3.126 -0.2816  0.3612 -1.0170
 6264TIP3   OH240282   0.442   3.661   3.688 -0.0746 -0.3448  0.2479
 6264TIP3    H140283   0.367   3.639   3.633  0.3906 -0.0721 -0.5068
 6264TIP3    H240284   0.503   3.588   3.674  0.4554  0.2123 -0.3647
 6265TIP3   OH240285   6.811   6.519  10.668 -0.5025  0.6548  0.5970
 6265TIP3    H140286   6.894   6.546  10.629 -0.6993 -0.9318 -0.9852
 6265TIP3    H240287   6.816   6.549  10.759  1.6978  0.7900  0.4467
 6266TIP3   OH240288   6.802   5.496  16.077  0.3521 -0.0501 -0.2409
 6266TIP3    H140289   6.727   5.555  16.076 -0.9148 -1.5996  0.1596
 6266TIP3    H240290   6.839   5.502  15.989  0.2945  1.4011 -0.1658
 6267TIP3   OH240291   4.112   6.344  16.106 -0.0593 -0.2024 -0.1939
 6267TIP3    H140292   4.064   6.427  16.106  1.0141  0.4314  0.1753
 6267TIP3    H240293   4.159   6.343  16.024 -1.7119 -1.4449 -1.1654
 6268TIP3   OH240294   2.317   0.332   1.951 -0.1371 -0.1772  0.4295
 6268TIP3    H140295   2.249   0.303   2.012 -0.3223 -0.2728  0.1759
 6268TIP3    H240296   2.381   0.261   1.951  0.4901  0.3720  1.4738
 6269TIP3   OH240297   0.127   0.750   4.643  0.1991  0.4459  0.0701
 6269TIP3    H140298   0.093   0.808   4.711 -1.1455  0.1081 -0.3107
 6269TIP3    H240299   0.079   0.775   4.564  1.1628  0.2751 -0.5818
 6270TIP3   OH240300   5.775   5.413  15.468  0.2745  0.7189  0.2027
 6270TIP3    H140301   5.805   5.407  15.377  2.0070  0.3874  0.7789
 6270TIP3    H240302   5.820   5.490  15.503 -2.4861  2.4889  0.0277
 6271TIP3   OH240303   5.970   1.376  16.865  0.4860 -0.1165 -0.0305
 6271TIP3    H140304   5.995   1.455  16.817 -1.1445  1.0907  1.0593
 6271TIP3    H240305   5.877   1.365  16.846  0.4363 -1.1080  0.7602
 6272TIP3   OH240306   5.199   4.883  13.347  0.0860 -0.0014  0.1758
 6272TIP3    H140307   5.186   4.978  13.353  0.1942  0.1745 -1.8363
 6272TIP3    H240308   5.131   4.853  13.288 -0.5079 -1.3410  1.5107
 6273TIP3   OH240309   0.713   6.356   2.990 -0.2939 -0.1931  0.5721
 6273TIP3    H140310   0.669   6.272   2.981 -0.2113 -0.1811  0.0354
 6273TIP3    H240311   0.735   6.362   3.082 -0.6401 -0.5912  0.6805
 6274TIP3   OH240312   5.459   2.268  17.117 -0.5558 -0.5690 -0.0716
 6274TIP3    H140313   5.492   2.349  17.155 -1.8927  0.1429 -0.3763
 6274TIP3    H240314   5.518   2.249  17.044  0.2488 -0.3201  0.5134
 6275TIP3   OH240315   3.319   5.352  13.766 -0.1763 -0.9944  0.0910
 6275TIP3    H140316   3.252   5.288  13.740  0.4697 -0.6177 -2.6675
 6275TIP3    H240317   3.270   5.427  13.796 -1.0855 -0.3573 -2.8162
 6276TIP3   OH240318   3.623   5.922  12.708 -1.0312  0.2041  0.4162
 6276TIP3    H140319   3.708   5.963  12.722 -0.2053 -0.2797 -2.7771
 6276TIP3    H240320   3.637   5.829  12.727 -0.7493  0.0772 -0.3854
 6277TIP3   OH240321   6.428   2.615  12.599 -0.0981 -0.0190  0.3191
 6277TIP3    H140322   6.426   2.556  12.524  1.3042 -1.1775  1.1708
 6277TIP3    H240323   6.444   2.701  12.561 -2.0360 -0.1692 -0.9321
 6278TIP3   OH240324   6.617   0.490  13.398 -0.0862 -0.0333  0.0825
 6278TIP3    H140325   6.706   0.478  13.365  0.6188  0.8230  1.6012
 6278TIP3    H240326   6.620   0.454  13.487 -1.4792 -0.7335 -0.1328
 6279TIP3   OH240327   5.174   0.266  16.078 -0.4655 -0.4513  0.1565
 6279TIP3    H140328   5.168   0.180  16.120 -2.5921 -0.3345  0.1285
 6279TIP3    H240329   5.265   0.293  16.092  0.0357 -2.3975  0.7580
 6280TIP3   OH240330   4.524   5.732   3.387 -0.3093 -0.5084  0.3464
 6280TIP3    H140331   4.505   5.693   3.472 -2.4700  1.1806  0.6612
 6280TIP3    H240332   4.468   5.809   3.382  1.3464  0.6343 -1.7209
 6281TIP3   OH240333   4.830   2.836  11.584  0.4605 -0.1349 -0.4863
 6281TIP3    H140334   4.751   2.888  11.597  0.3539 -0.2145 -0.8213
 6281TIP3    H240335   4.870   2.830  11.672  0.6275  0.7556 -0.4978
 6282TIP3   OH240336   2.602   6.390  14.095 -0.1255  0.1159  0.4173
 6282TIP3    H140337   2.592   6.406  14.002  0.9519 -1.0096  0.0947
 6282TIP3    H240338   2.532   6.328  14.117  0.8919 -1.2451 -0.0958
 6283TIP3   OH240339   4.496   2.692   5.623  0.4995 -0.1198  0.4339
 6283TIP3    H140340   4.541   2.624   5.674 -1.9385 -1.6631  0.5889
 6283TIP3    H240341   4.489   2.766   5.684 -0.2131 -1.0824  1.5320
 6284TIP3   OH240342   2.151   2.051  16.607  0.4426  0.0844 -0.2896
 6284TIP3    H140343   2.061   2.056  16.641  1.0977 -0.4138  1.5920
 6284TIP3    H240344   2.199   2.117  16.657  1.2208  0.0542 -0.9896
 6285TIP3   OH240345   6.342   1.575  13.269 -0.1894  0.1374 -0.3047
 6285TIP3    H140346   6.263   1.531  13.301 -1.1687  1.4964 -0.8199
 6285TIP3    H240347   6.397   1.583  13.347 -1.4409  1.0393  0.5109
 6286TIP3   OH240348   2.035   0.318  12.397 -0.3503  0.4658 -0.2829
 6286TIP3    H140349   2.097   0.390  12.411  0.0323  0.2694 -0.9633
 6286TIP3    H240350   1.961   0.359  12.351  0.6355  0.0758 -2.2386
 6287TIP3   OH240351   5.625   5.947   4.998  0.3607  0.2744 -0.0250
 6287TIP3    H140352   5.673   5.963   4.917  3.5918 -3.5182  0.9725
 6287TIP3    H240353   5.667   6.003   5.063 -0.3567  1.1877 -0.3376
 6288TIP3   OH240354   3.860   1.272   3.235  0.3524  0.1334 -0.4211
 6288TIP3    H140355   3.848   1.196   3.293  1.4393 -0.1656 -0.5794
 6288TIP3    H240356   3.779   1.276   3.184 -0.6491  0.4276  1.1358
 6289TIP3   OH240357   3.980   6.578  11.391 -0.3478 -0.6981  0.3361
 6289TIP3    H140358   3.998   6.664  11.428 -0.1193 -0.3299 -0.6212
 6289TIP3    H240359   4.061   6.555  11.344  0.0935 -2.0203  1.7026
 6290TIP3   OH240360   5.478   4.780  12.623  0.8562 -0.0059  0.1271
 6290TIP3    H140361   5.522   4.841  12.681 -2.3132  0.1180  2.5744
 6290TIP3    H240362   5.415   4.834  12.574 -1.2670 -1.0556  1.5959
 6291TIP3   OH240363   5.893   4.847   2.176 -0.3102  0.6920  0.2261
 6291TIP3    H140364   5.969   4.832   2.120 -0.2459 -1.8456  0.9301
 6291TIP3    H240365   5.876   4.941   2.168  0.7993  0.7090 -2.5882
 6292TIP3   OH240366   0.904   0.537  13.915 -0.5701 -0.3183 -0.1365
 6292TIP3    H140367   0.888   0.503  13.827 -0.0281  0.0244 -0.3671
 6292TIP3    H240368   0.896   0.460  13.972  1.3882 -0.9859 -0.7299
 6293TIP3   OH240369   3.894   4.903   5.028  0.3293  0.1939  0.2724
 6293TIP3    H140370   3.919   4.829   5.083 -0.1392 -0.2023 -0.0471
 6293TIP3    H240371   3.961   4.905   4.959  0.8911  0.6644  0.8135
 6294TIP3   OH240372   4.386   6.662   1.664 -0.1628 -0.2136  0.2824
 6294TIP3    H140373   4.335   6.671   1.744  0.9590 -0.9676  1.0885
 6294TIP3    H240374   4.337   6.601   1.610 -0.9086  0.2829  0.3945
 6295TIP3   OH240375   0.537   4.226   4.721  0.1844 -0.1145  0.7762
 6295TIP3    H140376   0.616   4.237   4.774  0.8204 -1.4592  0.1460
 6295TIP3    H240377   0.562   4.256   4.634 -0.3161  0.4250  0.8168
 6296TIP3   OH240378   0.444   2.880   3.942 -0.0482 -0.0899 -0.0879
 6296TIP3    H140379   0.367   2.824   3.953  1.7328 -2.4821  0.8710
 6296TIP3    H240380   0.481   2.888   4.030  0.3999  1.6550 -0.4146
 6297TIP3   OH240381   5.237   2.400  11.813 -0.0917  0.3109 -0.2018
 6297TIP3    H140382   5.240   2.312  11.852  0.6830  0.6713  0.5710
 6297TIP3    H240383   5.301   2.397  11.742 -0.5022  0.0766 -0.5685
 6298TIP3   OH240384   4.616   6.211  10.936 -1.0264 -0.6682  0.7362
 6298TIP3    H140385   4.674   6.283  10.963 -0.2165 -0.4585 -1.4179
 6298TIP3    H240386   4.528   6.247  10.945 -0.8583 -0.9268  3.8686
 6299TIP3   OH240387   5.573   2.303  15.633 -0.5581  0.2199  0.0205
 6299TIP3    H140388   5.509   2.325  15.566  0.1421  1.1280 -0.3692
 6299TIP3    H240389   5.657   2.302  15.586 -0.2738 -0.9525  0.5198
 6300TIP3   OH240390   0.922   6.326  10.838 -0.1711 -0.2532 -0.1100
 6300TIP3    H140391   0.918   6.408  10.790 -0.2181 -0.3470 -0.2689
 6300TIP3    H240392   0.831   6.297  10.845  0.1339 -2.2683 -3.5182
 6301TIP3   OH240393   4.660   5.901   5.577 -0.1410  0.6147  0.1172
 6301TIP3    H140394   4.640   5.933   5.489 -1.4239  1.3215  0.6690
 6301TIP3    H240395   4.732   5.839   5.563 -0.8826  0.0894 -1.5307
 6302TIP3   OH240396   2.830   2.746   5.684 -0.2860  0.0079  0.2071
 6302TIP3    H140397   2.793   2.780   5.766  0.3856 -2.1940  1.4693
 6302TIP3    H240398   2.922   2.772   5.687 -0.3722  0.3458 -0.0811
 6303TIP3   OH240399   3.535   6.727   2.981  0.9338  0.1498 -0.5082
 6303TIP3    H140400   3.512   6.638   2.953  0.2053  0.2584 -0.2598
 6303TIP3    H240401   3.622   6.717   3.020  0.3109 -0.6916  0.7106
 6304TIP3   OH240402   5.564   0.500   4.078 -0.2827 -0.7894  0.2938
 6304TIP3    H140403   5.485   0.523   4.029 -0.7138  1.2344  1.8799
 6304TIP3    H240404   5.576   0.407   4.062 -1.9825 -0.7426 -1.4045
 6305TIP3   OH240405   4.178   1.782   6.445 -0.4877  0.4040 -0.0046
 6305TIP3    H140406   4.142   1.727   6.515 -1.1817 -0.0655 -0.7211
 6305TIP3    H240407   4.102   1.828   6.409  0.0938  1.9208  0.6460
 6306TIP3   OH240408   6.347   1.162  17.132  0.3880  0.0443  0.4291
 6306TIP3    H140409   6.292   1.185  17.207  1.5761  1.4121  0.8963
 6306TIP3    H240410   6.301   1.200  17.057  0.4206  0.7319  0.7550
 6307TIP3   OH240411   4.983   5.505  12.611 -0.1682 -0.2135 -0.4068
 6307TIP3    H140412   5.077   5.496  12.620 -0.2215  0.0475  0.5219
 6307TIP3    H240413   4.947   5.461  12.689 -0.6611  2.4578  0.9413
 6308TIP3   OH240414   1.203   2.889   0.502 -0.0924  0.1923  0.1716
 6308TIP3    H140415   1.109   2.876   0.491  0.3411 -2.6569 -0.3948
 6308TIP3    H240416   1.240   2.878   0.415  0.9968 -0.8326  0.7482
 6309TIP3   OH240417   2.216   5.144   4.622  0.1544 -0.2265  0.1086
 6309TIP3    H140418   2.293   5.167   4.571 -0.0983 -1.8095 -1.0213
 6309TIP3    H240419   2.245   5.152   4.713  1.5243 -0.3715 -0.2955
 6310TIP3   OH240420   1.217   5.782  15.618  0.0410  0.1097 -0.5747
 6310TIP3    H140421   1.165   5.805  15.541 -0.0362 -1.4925 -1.0137
 6310TIP3    H240422   1.295   5.838  15.611 -0.3701  0.6027 -1.3446
 6311TIP3   OH240423   1.569   4.100  12.013 -0.4691  0.0484 -0.5828
 6311TIP3    H140424   1.496   4.045  12.041 -0.4010 -0.7299 -1.8673
 6311TIP3    H240425   1.645   4.061  12.056 -0.5554 -0.2878 -0.7323
 6312TIP3   OH240426   3.616   1.752   1.604  0.0552 -0.2517 -1.2217
 6312TIP3    H140427   3.612   1.704   1.687 -1.1627  2.3139  0.2894
 6312TIP3    H240428   3.531   1.737   1.564 -0.1265  0.1787 -1.0033
 6313TIP3   OH240429   0.265   5.664   6.017  0.0056 -0.3298  0.8177
 6313TIP3    H140430   0.359   5.679   6.001  0.1410 -0.4183  1.4879
 6313TIP3    H240431   0.232   5.750   6.043  0.5497 -0.9116  3.5805
 6314TIP3   OH240432   2.747   0.117   3.903 -0.1514 -0.2085 -0.0995
 6314TIP3    H140433   2.748   0.094   3.996 -1.2314 -1.3273 -0.3379
 6314TIP3    H240434   2.754   0.032   3.858  1.6596  0.4137 -1.0541
 6315TIP3   OH240435   0.683   2.818  13.886 -0.1365 -0.1349 -0.0053
 6315TIP3    H140436   0.600   2.784  13.853  0.4067 -1.1942 -0.3200
 6315TIP3    H240437   0.675   2.913  13.877 -1.1143 -0.2517 -0.5075
 6316TIP3   OH240438   3.073   3.909  11.895  0.1960 -0.5084 -0.2369
 6316TIP3    H140439   2.978   3.924  11.889  0.0557 -1.9639 -2.0437
 6316TIP3    H240440   3.081   3.817  11.920  1.1428  0.0359  1.5367
 6317TIP3   OH240441   1.259   3.581   2.626 -0.3033  0.1961 -0.0737
 6317TIP3    H140442   1.250   3.630   2.544  0.1166  0.7886  0.2327
 6317TIP3    H240443   1.263   3.648   2.694  0.1712 -0.2614  0.3564
 6318TIP3   OH240444   3.473   5.535  13.027 -0.5639  0.4073  0.3692
 6318TIP3    H140445   3.387   5.567  13.055 -1.9125 -1.8063 -0.9813
 6318TIP3    H240446   3.484   5.452  13.073 -0.8785 -1.1465 -2.2212
 6319TIP3   OH240447   1.908   2.385  14.005  0.1227 -0.3345 -0.7451
 6319TIP3    H140448   1.834   2.446  14.008  1.5267  1.2916  3.0129
 6319TIP3    H240449   1.962   2.417  13.933 -0.9798  0.6746 -1.1413
 6320TIP3   OH240450   5.692   5.938  11.605 -0.0075  0.7971 -0.0518
 6320TIP3    H140451   5.756   5.868  11.589 -0.3762  1.0942 -3.1582
 6320TIP3    H240452   5.616   5.892  11.639  0.1370 -0.2275 -1.0348
 6321TIP3   OH240453   3.632   5.957   0.208 -0.0246  0.4014 -0.2209
 6321TIP3    H140454   3.629   5.958   0.304  2.0863  1.6412 -0.1520
 6321TIP3    H240455   3.697   5.890   0.187  0.1625  0.7566 -0.7689
 6322TIP3   OH240456   3.657   0.536  13.073  0.2268  0.1517 -0.3694
 6322TIP3    H140457   3.631   0.506  13.160  2.2030  2.4744  1.1097
 6322TIP3    H240458   3.576   0.569  13.034 -1.1062 -2.9883 -0.3419
 6323TIP3   OH240459   1.414   0.300  12.971 -0.1589 -0.7128  0.0695
 6323TIP3    H140460   1.346   0.239  13.001  2.0448 -2.7803  1.0320
 6323TIP3    H240461   1.466   0.249  12.908  0.7394  0.7033 -0.3710
 6324TIP3   OH240462   6.345   1.457   0.687  0.8566  0.4592 -0.7138
 6324TIP3    H140463   6.404   1.530   0.702  0.6640  0.9906 -2.4741
 6324TIP3    H240464   6.348   1.406   0.769  1.9761  1.7141  0.0355
 6325TIP3   OH240465   5.865   0.640  15.437 -0.3518  0.4654 -0.1506
 6325TIP3    H140466   5.919   0.618  15.362 -2.6920  0.4122 -1.9011
 6325TIP3    H240467   5.926   0.671  15.503  1.8151 -0.0095 -1.8766
 6326TIP3   OH240468   1.304   3.456   1.623  0.0493 -0.2614  0.3061
 6326TIP3    H140469   1.216   3.483   1.597  0.4126 -1.6247 -2.5837
 6326TIP3    H240470   1.291   3.407   1.704 -1.4566  2.0990  1.5381
 6327TIP3   OH240471   1.354   4.123   5.946  0.2404 -0.0701 -0.5578
 6327TIP3    H140472   1.343   4.191   6.012  1.1078 -0.3047 -0.1679
 6327TIP3    H240473   1.447   4.125   5.925  0.2737 -1.1331 -0.5451
 6328TIP3   OH240474   1.261   2.270   1.920  0.3662 -0.2863  0.3178
 6328TIP3    H140475   1.221   2.329   1.857  0.1197 -0.7404  0.0436
 6328TIP3    H240476   1.255   2.184   1.879 -0.5533 -0.7083  1.3086
 6329TIP3   OH240477   5.853   4.997   4.972  0.6451 -0.1382 -0.1745
 6329TIP3    H140478   5.876   5.060   4.903 -1.8364 -0.1085 -1.0339
 6329TIP3    H240479   5.800   4.931   4.927  1.3016 -1.6319  1.1921
 6330TIP3   OH240480   6.752   6.768  13.157  0.3033 -0.0633  0.2858
 6330TIP3    H140481   6.848   6.770  13.155  0.3241  0.9254  1.5316
 6330TIP3    H240482   6.726   6.858  13.137 -0.2917  0.2935  2.5474
 6331TIP3   OH240483   4.175   3.545   0.661  0.1559  0.5351 -1.2035
 6331TIP3    H140484   4.249   3.602   0.639  0.7388 -0.2050 -1.1740
 6331TIP3    H240485   4.146   3.511   0.576  1.0007 -0.5880 -1.0514
 6332TIP3   OH240486   0.099   2.673  15.590 -0.1213  0.1556 -0.4017
 6332TIP3    H140487   0.031   2.730  15.626 -0.4142  0.9196 -2.1212
 6332TIP3    H240488   0.080   2.669  15.496  0.4745 -1.9969 -0.4624
 6333TIP3   OH240489   3.966   5.248   4.076  0.1598 -0.1258  0.0771
 6333TIP3    H140490   4.025   5.322   4.067  1.3518 -1.0400  0.2171
 6333TIP3    H240491   4.014   5.174   4.039 -1.3911 -0.6588 -0.9663
 6334TIP3   OH240492   1.008   5.139  15.193  0.1631  0.0602 -0.1312
 6334TIP3    H140493   0.922   5.158  15.230  0.8791 -1.3398  2.3885
 6334TIP3    H240494   1.011   5.044  15.188  0.1759  0.1802 -3.7704
 6335TIP3   OH240495   6.440   3.443   4.057  0.0094 -0.1436  0.2445
 6335TIP3    H140496   6.463   3.506   4.125  0.8960  0.3379 -0.4979
 6335TIP3    H240497   6.366   3.484   4.011 -1.1980 -0.8852  1.4881
 6336TIP3   OH240498   1.332   3.218   5.575 -0.3937 -0.8560  0.0413
 6336TIP3    H140499   1.291   3.213   5.661  0.0654  0.6672  0.3667
 6336TIP3    H240500   1.295   3.297   5.535  0.9411 -0.3947 -0.3242
 6337TIP3   OH240501   5.888   3.526  13.810  0.3496  0.1256  0.0387
 6337TIP3    H140502   5.905   3.488  13.896  0.9367  1.2361  0.4374
 6337TIP3    H240503   5.793   3.533  13.805  0.2979 -0.2528  0.4627
 6338TIP3   OH240504   4.398   6.039   1.201  0.7415 -0.0917  0.4491
 6338TIP3    H140505   4.404   6.027   1.296 -0.1909 -1.5324  0.3439
 6338TIP3    H240506   4.486   6.018   1.169  0.5076 -1.6809  0.8057
 6339TIP3   OH240507   1.246   4.344  16.587  0.2182  0.1873  0.3389
 6339TIP3    H140508   1.155   4.319  16.601  0.1364  0.0085 -0.4890
 6339TIP3    H240509   1.244   4.438  16.569  0.0171 -0.0896 -1.2098
 6340TIP3   OH240510   0.457   4.572   0.057  0.2590  0.3540  0.0841
 6340TIP3    H140511   0.505   4.496   0.023 -0.5428 -0.1307  0.0262
 6340TIP3    H240512   0.435   4.623  -0.021  0.5458  0.4964  0.0964
 6341TIP3   OH240513   3.189   2.225  16.388  0.1538 -0.1410 -0.3646
 6341TIP3    H140514   3.144   2.290  16.334 -0.3476 -0.6669 -0.5834
 6341TIP3    H240515   3.133   2.147  16.384  1.2606 -0.9305 -0.9612
 6342TIP3   OH240516   6.178   0.355   3.177 -0.0451 -0.6747  0.3670
 6342TIP3    H140517   6.166   0.308   3.259  1.3288 -0.7707  0.5183
 6342TIP3    H240518   6.227   0.434   3.201 -3.6894  1.7069  0.3801
 6343TIP3   OH240519   1.248   4.265  11.294  0.4909 -0.6565  0.4046
 6343TIP3    H140520   1.321   4.205  11.308  0.8427 -0.3785 -0.1970
 6343TIP3    H240521   1.220   4.248  11.204  0.2468 -0.3064  0.4120
 6344TIP3   OH240522   2.611   2.310  14.224 -0.0171  0.3664 -0.2795
 6344TIP3    H140523   2.539   2.283  14.282 -1.4962  2.4071 -1.1219
 6344TIP3    H240524   2.577   2.386  14.177  2.3934  0.8293 -1.3482
 6345TIP3   OH240525   4.037   4.058  10.679 -0.1132  0.6224  0.0026
 6345TIP3    H140526   4.000   3.974  10.651  0.0649  0.3046  0.6892
 6345TIP3    H240527   3.963   4.105  10.718 -0.2855  0.9227 -0.6875
 6346TIP3   OH240528   1.933   5.799   1.664 -0.1403 -0.3171 -0.0991
 6346TIP3    H140529   2.000   5.863   1.640  1.2715 -1.7144 -0.0021
 6346TIP3    H240530   1.864   5.850   1.707  0.9102  1.1257 -0.1066
 6347TIP3   OH240531   2.380   0.147  11.557  0.2422  0.4855  0.1425
 6347TIP3    H140532   2.337   0.124  11.640  0.6415 -1.8941 -0.2642
 6347TIP3    H240533   2.315   0.126  11.490  1.6825 -2.3482 -0.4258
 6348TIP3   OH240534   1.974   4.320  16.310  0.1122  0.9776 -0.3938
 6348TIP3    H140535   1.960   4.402  16.358 -0.6213  0.8661 -0.4088
 6348TIP3    H240536   1.982   4.347  16.219 -1.1608  0.9546 -0.5306
 6349TIP3   OH240537   0.437   4.556  15.471 -0.5741 -0.4418 -0.3406
 6349TIP3    H140538   0.508   4.574  15.532 -0.0753 -1.2692 -0.6667
 6349TIP3    H240539   0.419   4.462  15.482 -2.3832 -0.0303  0.5571
 6350TIP3   OH240540   0.568   1.879  14.038 -0.6705 -0.4471  0.3142
 6350TIP3    H140541   0.624   1.859  13.963 -0.3131 -0.1911  0.5066
 6350TIP3    H240542   0.499   1.814  14.035 -0.6817 -0.4100 -0.2641
 6351TIP3   OH240543   4.161   4.654  11.169  0.0988  0.2873  0.3375
 6351TIP3    H140544   4.079   4.702  11.159  1.0937  1.5747 -1.9940
 6351TIP3    H240545   4.140   4.584  11.231 -2.6938  0.7090 -0.0693
 6352TIP3   OH240546   0.049   0.324  11.176  0.6512  0.3001 -0.4035
 6352TIP3    H140547   0.136   0.303  11.208  1.7581  0.0963 -3.3989
 6352TIP3    H240548   0.062   0.395  11.113 -1.5024  1.1539  0.0455
 6353TIP3   OH240549   6.016   6.711  11.535 -0.0174  0.3085 -0.2271
 6353TIP3    H140550   5.993   6.618  11.530 -0.4511  0.3477  0.8407
 6353TIP3    H240551   5.989   6.747  11.450  0.0934 -0.5281 -0.6202
 6354TIP3   OH240552   1.666   0.989   0.367 -0.1538  0.3782 -0.0040
 6354TIP3    H140553   1.631   0.983   0.278  0.8708 -0.2018 -0.3745
 6354TIP3    H240554   1.618   0.921   0.415  0.1692 -0.1404 -0.4113
 6355TIP3   OH240555   6.205   5.398   2.553  0.0187  0.1617  0.1332
 6355TIP3    H140556   6.154   5.338   2.608 -0.8771  0.5684 -0.2487
 6355TIP3    H240557   6.289   5.408   2.600  0.1208 -1.2668  0.2653
 6356TIP3   OH240558   4.496   1.057   3.726  0.3540 -0.7200 -0.0017
 6356TIP3    H140559   4.430   1.124   3.709 -0.5652 -1.8507 -0.9263
 6356TIP3    H240560   4.514   1.064   3.820  0.7685  1.2614 -0.1931
 6357TIP3   OH240561   2.814   3.844  12.781  0.5792 -0.7279 -0.7671
 6357TIP3    H140562   2.858   3.911  12.729 -0.2715 -1.4722 -2.4858
 6357TIP3    H240563   2.721   3.857  12.761  0.1699 -0.5356  1.1738
 6358TIP3   OH240564   0.340   3.133   1.432  0.6637 -0.2695  0.3134
 6358TIP3    H140565   0.387   3.158   1.352 -0.2890  2.3956  0.5505
 6358TIP3    H240566   0.361   3.040   1.444  2.2141 -0.2632 -2.0671
 6359TIP3   OH240567   1.850   0.902   1.686  0.2569 -0.1263 -0.0323
 6359TIP3    H140568   1.920   0.947   1.733 -0.6847  0.6801  0.6223
 6359TIP3    H240569   1.805   0.850   1.753 -1.1475  1.0953  0.0091
 6360TIP3   OH240570   2.246   5.560  15.428 -0.0910 -0.4435 -0.2528
 6360TIP3    H140571   2.263   5.648  15.462 -0.9373  0.1889 -1.4451
 6360TIP3    H240572   2.151   5.559  15.411  0.2572 -0.8872 -2.2005
 6361TIP3   OH240573   2.287   6.582   4.645 -0.6451  0.4579  0.5043
 6361TIP3    H140574   2.334   6.562   4.564  0.6686  2.4253  0.7509
 6361TIP3    H240575   2.236   6.503   4.663  2.6375 -1.8009  0.2717
 6362TIP3   OH240576   4.151   6.684  13.251 -0.3506 -0.4828  0.2163
 6362TIP3    H140577   4.204   6.707  13.174 -0.1834 -1.2708  0.0847
 6362TIP3    H240578   4.125   6.593  13.235  0.5355 -0.9975  1.5541
 6363TIP3   OH240579   1.749   2.923   2.666 -0.3933  0.4129  0.3747
 6363TIP3    H140580   1.666   2.910   2.713 -0.7145 -1.3547 -0.6833
 6363TIP3    H240581   1.808   2.857   2.702  0.3622  1.1704  0.5723
 6364TIP3   OH240582   5.293   2.495  12.438 -0.1917 -0.1132  0.4923
 6364TIP3    H140583   5.274   2.480  12.346 -1.9226  2.9365  0.3069
 6364TIP3    H240584   5.306   2.407  12.475  1.8260 -1.3044 -2.8728
 6365TIP3   OH240585   2.261   5.831  15.059 -0.2772  0.2480  0.6038
 6365TIP3    H140586   2.340   5.778  15.069 -0.6073 -0.0828  1.6327
 6365TIP3    H240587   2.273   5.905  15.118 -0.1998  0.8517 -0.1692
 6366TIP3   OH240588   1.139   6.816   2.077  0.1026 -0.3068  0.3450
 6366TIP3    H140589   1.196   6.786   2.006 -0.3348 -0.1322 -0.0869
 6366TIP3    H240590   1.131   6.741   2.135  1.4708 -0.0671  0.8705
 6367TIP3   OH240591   6.819   4.618   5.162 -0.2360 -0.3449  0.3541
 6367TIP3    H140592   6.896   4.561   5.152  0.1280  0.2103 -0.0370
 6367TIP3    H240593   6.749   4.571   5.116  0.0842 -0.4373 -0.0465
 6368TIP3   OH240594   5.411   4.759   4.643 -0.0620  0.9512  0.3237
 6368TIP3    H140595   5.326   4.737   4.681  0.2508  1.2218  1.1859
 6368TIP3    H240596   5.467   4.685   4.666  0.1518  1.1575  0.4584
 6369TIP3   OH240597   0.130   3.851  12.019 -0.1857  0.5511 -0.2269
 6369TIP3    H140598   0.131   3.821  11.928 -0.0405 -1.0646  0.2870
 6369TIP3    H240599   0.222   3.848  12.046 -0.1320  1.8040 -0.2759
 6370TIP3   OH240600   3.926   6.301   4.673 -0.1032  0.5052 -0.2276
 6370TIP3    H140601   3.950   6.283   4.764 -0.4592  1.7097  0.1107
 6370TIP3    H240602   4.009   6.318   4.629 -0.0925  2.1862  0.3880
 6371TIP3   OH240603   1.721   6.258  11.715 -0.2917 -0.3713  0.3288
 6371TIP3    H140604   1.805   6.303  11.726  0.7725 -2.3094  0.3513
 6371TIP3    H240605   1.655   6.325  11.733  1.2618  0.8692  1.5521
 6372TIP3   OH240606   2.631   0.914   2.627  0.1253 -0.5237  0.2306
 6372TIP3    H140607   2.631   1.009   2.614  2.9732 -0.5606 -0.5517
 6372TIP3    H240608   2.572   0.880   2.560  0.4713  0.5941 -0.6538
 6373TIP3   OH240609   6.348   3.706  14.529 -0.9655  0.2459 -0.3900
 6373TIP3    H140610   6.379   3.795  14.515 -0.7766  0.3212  0.4756
 6373TIP3    H240611   6.419   3.663  14.578 -1.1922 -0.2846 -0.5204
 6374TIP3   OH240612   5.133   4.552  12.269 -0.1044 -0.0616 -0.5612
 6374TIP3    H140613   5.119   4.615  12.198 -1.6599 -0.0111 -0.2268
 6374TIP3    H240614   5.050   4.551  12.317  1.2213  0.6362  1.8598
 6375TIP3   OH240615   4.326   0.366   3.221  0.6223  0.1864  0.0065
 6375TIP3    H140616   4.343   0.333   3.309  1.7000 -1.0530 -0.6428
 6375TIP3    H240617   4.300   0.288   3.171 -0.2381  0.9257 -0.7112
 6376TIP3   OH240618   6.224   2.905   3.497 -0.2889 -0.4144  0.3118
 6376TIP3    H140619   6.230   2.957   3.417 -0.5215  1.7240  1.6652
 6376TIP3    H240620   6.308   2.920   3.542 -0.2816 -1.3524  0.6278
 6377TIP3   OH240621   1.843   6.327   5.905 -0.3054 -0.1513  0.1363
 6377TIP3    H140622   1.865   6.314   5.997  1.2494  0.5555 -0.1061
 6377TIP3    H240623   1.838   6.422   5.895  1.1074 -0.1495 -0.8191
 6378TIP3   OH240624   5.602   1.061   4.699  1.1418  0.1643  0.5078
 6378TIP3    H140625   5.570   1.105   4.778  1.6747 -0.1590  0.9119
 6378TIP3    H240626   5.588   0.968   4.717 -2.2748  0.2252 -1.3322
 6379TIP3   OH240627   6.018   5.037  10.343  0.0963 -0.0379  0.0055
 6379TIP3    H140628   6.049   5.125  10.323 -1.2134  0.4771  0.1803
 6379TIP3    H240629   6.096   4.982  10.337  1.0949  1.2677  0.8068
 6380TIP3   OH240630   1.226   3.846  11.304 -0.5332 -1.2496  0.1151
 6380TIP3    H140631   1.175   3.907  11.357  2.6033  1.3029  0.3930
 6380TIP3    H240632   1.224   3.883  11.216  1.5590 -0.5527  0.3232
 6381TIP3   OH240633   1.678   3.536  13.832  0.4775 -0.2546 -0.0680
 6381TIP3    H140634   1.754   3.592  13.844  1.6500 -1.2249 -2.6648
 6381TIP3    H240635   1.642   3.526  13.920  3.2595  0.3488  1.1866
 6382TIP3   OH240636   0.121   5.179  14.079 -0.3551 -0.4957  0.6591
 6382TIP3    H140637   0.173   5.260  14.083 -0.6461 -0.3370  1.3147
 6382TIP3    H240638   0.087   5.177  13.990 -1.8596  1.0757  1.1612
 6383TIP3   OH240639   2.866   6.807   0.467 -0.4145 -0.2590 -0.1336
 6383TIP3    H140640   2.828   6.743   0.408  1.1143  0.0503 -1.4816
 6383TIP3    H240641   2.830   6.785   0.553 -1.1802 -1.8884 -0.8555
 6384TIP3   OH240642   6.320   4.227  14.805  0.8118  0.1071 -0.6071
 6384TIP3    H140643   6.321   4.322  14.817  0.5217 -0.0088  0.3986
 6384TIP3    H240644   6.266   4.213  14.728 -0.0361  0.6966 -0.1299
 6385TIP3   OH240645   6.286   1.977   3.253 -0.0826  0.3409  0.3518
 6385TIP3    H140646   6.227   2.009   3.185 -0.7663  0.9137  1.2080
 6385TIP3    H240647   6.229   1.936   3.318  0.7397 -2.3888 -0.5588
 6386TIP3   OH240648   6.260   4.889   5.848 -0.4162  0.5292 -0.7305
 6386TIP3    H140649   6.339   4.939   5.826  0.2410  0.4335  1.3579
 6386TIP3    H240650   6.269   4.870   5.941 -2.6878  0.1128 -0.5821
 6387TIP3   OH240651   3.137   1.915  16.842 -0.1260 -0.0162  0.6769
 6387TIP3    H140652   3.064   1.934  16.782 -0.8903 -0.8703  1.3187
 6387TIP3    H240653   3.107   1.946  16.927  0.5593  0.2859  0.8136
 6388TIP3   OH240654   2.162   6.697   2.808  0.3111  0.4883  0.2247
 6388TIP3    H140655   2.083   6.748   2.791 -1.2831 -1.4831  1.4696
 6388TIP3    H240656   2.148   6.660   2.895  1.0577 -2.6219 -0.9042
 6389TIP3   OH240657   5.317   3.283  12.013 -0.9048  0.0425  0.4431
 6389TIP3    H140658   5.351   3.200  11.980 -0.3059  0.0709  0.9861
 6389TIP3    H240659   5.280   3.262  12.098 -1.8078  0.1118  0.0728
 6390TIP3   OH240660   1.726   5.219   0.757 -0.7237  0.3773 -0.1059
 6390TIP3    H140661   1.631   5.228   0.747 -0.8630 -0.2914  0.5035
 6390TIP3    H240662   1.746   5.270   0.835 -1.0740 -1.9950  1.6104
 6391TIP3   OH240663   4.879   5.260   4.015 -0.2470 -0.4842 -0.1758
 6391TIP3    H140664   4.951   5.279   3.955 -0.7588 -1.5632 -1.1416
 6391TIP3    H240665   4.801   5.293   3.969 -0.2923  1.3463  1.1778
 6392TIP3   OH240666   3.574   2.072  13.689  0.5091  0.2637 -0.2600
 6392TIP3    H140667   3.590   2.100  13.599 -0.8110  0.5147 -0.4241
 6392TIP3    H240668   3.485   2.101  13.708  0.0692 -1.4701  0.4698
 6393TIP3   OH240669   3.143   3.302   3.610  0.8718 -0.4725  0.3836
 6393TIP3    H140670   3.207   3.245   3.568  1.6098  0.7622 -0.1781
 6393TIP3    H240671   3.059   3.272   3.575  1.2462 -1.2241  0.1012
 6394TIP3   OH240672   3.929   3.570  13.962 -0.6286  0.2163  0.5723
 6394TIP3    H140673   3.949   3.493  14.015 -0.1498  0.1788  0.3449
 6394TIP3    H240674   3.954   3.544  13.873 -1.3096  0.3193  0.3477
 6395TIP3   OH240675   3.106   2.435  16.249 -0.4656 -0.1391 -0.7393
 6395TIP3    H140676   3.044   2.480  16.191 -1.5017  1.0689  1.2519
 6395TIP3    H240677   3.191   2.472  16.227 -0.9460  0.8045 -1.0219
 6396TIP3   OH240678   5.863   4.747   5.566 -0.0023  0.2313  0.1391
 6396TIP3    H140679   5.880   4.768   5.658  1.1465 -2.7129  0.6662
 6396TIP3    H240680   5.948   4.716   5.532 -1.1664 -1.8381 -0.9767
 6397TIP3   OH240681   6.819   0.911   4.914  0.2526 -0.2913 -0.0443
 6397TIP3    H140682   6.878   0.917   4.989 -0.9620  0.5131  0.8481
 6397TIP3    H240683   6.849   0.979   4.854  0.3718 -0.0305  0.3107
 6398TIP3   OH240684   1.508   6.088  16.938 -0.2420 -0.3117  0.3924
 6398TIP3    H140685   1.498   6.183  16.947  0.6464 -0.1980  0.2653
 6398TIP3    H240686   1.565   6.063  17.010 -0.3418 -0.7238  0.3265
 6399TIP3   OH240687   0.698   2.195  14.395  0.5000 -0.0285  0.3302
 6399TIP3    H140688   0.660   2.270  14.440  0.8213 -0.3845  1.1987
 6399TIP3    H240689   0.725   2.136  14.465 -0.1894 -1.1784 -0.3643
 6400TIP3   OH240690   1.399   4.089   4.465 -0.1364 -0.0772 -0.1693
 6400TIP3    H140691   1.391   4.185   4.462  1.4634  0.0432 -3.0572
 6400TIP3    H240692   1.309   4.057   4.459 -0.5407  1.2713 -1.8110
 6401TIP3   OH240693   2.801   4.922  12.907 -0.3008  0.0697  0.2604
 6401TIP3    H140694   2.742   4.868  12.855 -1.0579  0.3082  0.8698
 6401TIP3    H240695   2.874   4.941  12.847 -1.5158  0.9625 -0.9820
 6402TIP3   OH240696   4.742   1.921  13.089  0.4869  0.1579  0.1072
 6402TIP3    H140697   4.830   1.934  13.055  0.2734 -0.7639 -0.8315
 6402TIP3    H240698   4.737   1.827  13.109 -0.3936  0.1214 -0.2226
 6403TIP3   OH240699   2.567   4.358   4.079 -0.0568 -0.3872 -0.3773
 6403TIP3    H140700   2.502   4.289   4.097  0.2911 -0.5754  0.1971
 6403TIP3    H240701   2.646   4.328   4.125  0.3462 -0.0159 -0.8253
 6404TIP3   OH240702   4.503   3.209  10.955 -0.1065  0.5785  0.2279
 6404TIP3    H140703   4.545   3.236  10.873 -0.8477  0.5672 -0.1557
 6404TIP3    H240704   4.410   3.219  10.939 -0.2617  0.4391  1.0274
 6405TIP3   OH240705   2.056   1.516   6.191 -0.5107  0.2336  0.4826
 6405TIP3    H140706   1.981   1.563   6.226 -1.0593 -0.9781  0.9560
 6405TIP3    H240707   2.131   1.549   6.240 -0.4833  2.6228 -1.1044
 6406TIP3   OH240708   4.024   2.531  12.848  0.2211  0.4726  0.6650
 6406TIP3    H140709   3.952   2.468  12.852 -0.1245  0.9263  1.7141
 6406TIP3    H240710   4.101   2.482  12.876  0.3033  0.0314 -0.2998
 6407TIP3   OH240711   0.137   3.535  12.336  0.3824  0.3227  0.1884
 6407TIP3    H140712   0.209   3.574  12.286  0.1117 -0.9192 -1.2088
 6407TIP3    H240713   0.118   3.453  12.290 -1.3283  0.2051  1.0717
 6408TIP3   OH240714   4.533   5.718  12.431  0.4624 -0.0099 -0.1817
 6408TIP3    H140715   4.589   5.662  12.377 -0.8919 -0.1961 -1.4158
 6408TIP3    H240716   4.552   5.807  12.400  1.7696  0.1436  0.9986
 6409TIP3   OH240717   0.804   6.373   4.984  0.3997  0.5815 -0.2772
 6409TIP3    H140718   0.832   6.363   5.076  3.0025 -1.1952 -1.1995
 6409TIP3    H240719   0.792   6.283   4.953 -0.1435  1.1623 -1.7829
 6410TIP3   OH240720   4.851   4.182  15.957  0.5999 -0.5630  0.3969
 6410TIP3    H140721   4.829   4.090  15.945  0.2820 -0.4342 -0.0310
 6410TIP3    H240722   4.808   4.206  16.039 -0.5251 -0.4246 -0.2275
 6411TIP3   OH240723   2.920   3.240   1.020  0.4133  0.1562 -0.4242
 6411TIP3    H140724   2.893   3.161   1.067  0.5702 -0.4437 -1.3280
 6411TIP3    H240725   2.873   3.311   1.063  1.1916 -0.2665  1.1855
 6412TIP3   OH240726   4.922   3.370   0.962 -0.8379 -0.8623  0.0966
 6412TIP3    H140727   4.974   3.309   0.909  0.2511  0.7563 -0.7699
 6412TIP3    H240728   4.833   3.362   0.928 -0.1264  0.2738 -2.1494
 6413TIP3   OH240729   0.202   0.316   0.451 -0.0959  0.1945  0.0793
 6413TIP3    H140730   0.289   0.345   0.423  0.2820 -0.1146  0.9079
 6413TIP3    H240731   0.142   0.362   0.393  0.6360  0.0899 -0.7858
 6414TIP3   OH240732   4.350   3.593   2.768 -0.3143 -0.2927  0.3312
 6414TIP3    H140733   4.348   3.522   2.704 -0.1738 -0.3217  0.3601
 6414TIP3    H240734   4.317   3.554   2.849  2.7942 -1.1697  1.2153
 6415TIP3   OH240735   0.049   2.249   5.552  0.2637 -0.3123 -0.0664
 6415TIP3    H140736  -0.010   2.182   5.519 -0.0619  0.4487 -1.0494
 6415TIP3    H240737   0.073   2.301   5.475  2.9879 -1.1921  0.1255
 6416TIP3   OH240738   4.170   3.118   6.064  0.4021  0.2993 -0.7666
 6416TIP3    H140739   4.241   3.140   6.124  0.5937  0.5616 -1.0922
 6416TIP3    H240740   4.168   3.022   6.063 -0.3175  0.2878  0.5120
 6417TIP3   OH240741   5.666   4.799  11.772  0.1700  0.0326 -0.4170
 6417TIP3    H140742   5.600   4.763  11.713  0.1165  1.1963 -1.0813
 6417TIP3    H240743   5.697   4.878  11.728  1.1668  0.1272  0.4425
 6418TIP3   OH240744   2.337   2.487   4.024 -0.4808 -0.0633 -0.1578
 6418TIP3    H140745   2.414   2.494   3.969  0.5659 -1.0953  1.1521
 6418TIP3    H240746   2.296   2.404   3.999  0.2819 -0.7867  0.9577
 6419TIP3   OH240747   3.854   4.002   4.459  0.0065  0.1168  0.5711
 6419TIP3    H140748   3.914   4.040   4.395  1.3199 -1.7665  0.6440
 6419TIP3    H240749   3.773   4.052   4.448  0.7922  1.0429 -1.2824
 6420TIP3   OH240750   2.568   1.806   3.609  0.6961  0.8414  0.1368
 6420TIP3    H140751   2.560   1.738   3.542  1.3981  1.0501 -0.1541
 6420TIP3    H240752   2.533   1.885   3.568  2.4887  1.3162 -0.4947
 6421TIP3   OH240753   5.935   4.694  14.913  0.0875 -0.1983  0.3469
 6421TIP3    H140754   5.965   4.707  14.823  2.0672 -0.1112  1.0000
 6421TIP3    H240755   5.958   4.775  14.958 -0.2133 -0.5329  1.1138
 6422TIP3   OH240756   1.900   3.107   6.703  1.0819  0.4809  0.0333
 6422TIP3    H140757   1.863   3.168   6.640 -0.8712  1.1734  1.7828
 6422TIP3    H240758   1.943   3.163   6.768 -1.3620  0.0847  2.0504
 6423TIP3   OH240759   1.095   3.609   0.931 -0.4482 -0.4923 -0.3794
 6423TIP3    H140760   1.051   3.524   0.930 -1.9214  0.2495 -1.2841
 6423TIP3    H240761   1.188   3.589   0.934 -0.7488 -2.1418 -1.5701
 6424TIP3   OH240762   1.408   6.574  15.487 -0.6705  0.7991 -0.4155
 6424TIP3    H140763   1.492   6.616  15.472  1.5985 -2.1652  3.1029
 6424TIP3    H240764   1.353   6.642  15.527  1.3056  1.7313  0.7650
 6425TIP3   OH240765   1.149   5.852  11.686 -0.4393 -0.2147 -0.3431
 6425TIP3    H140766   1.069   5.845  11.635  0.1321  0.0115 -1.2860
 6425TIP3    H240767   1.161   5.765  11.724 -0.4174 -0.6350 -1.2945
 6426TIP3   OH240768   6.492   6.044   0.006  0.2085 -0.1663 -0.5227
 6426TIP3    H140769   6.463   5.953   0.014 -0.4049 -0.2100 -2.8191
 6426TIP3    H240770   6.413   6.091  -0.022  0.8827  0.7995 -0.7966
 6427TIP3   OH240771   1.200   1.075   6.163  0.6126  0.6269 -0.0027
 6427TIP3    H140772   1.163   1.071   6.252  0.1017 -1.1561 -0.2905
 6427TIP3    H240773   1.134   1.122   6.112  0.5092  0.8681  0.3458
 6428TIP3   OH240774   5.201   5.611   3.819  0.0605  0.4255  0.2891
 6428TIP3    H140775   5.151   5.666   3.758  1.4503  0.8973 -0.4613
 6428TIP3    H240776   5.292   5.639   3.807  0.5434 -0.5991  1.4283
 6429TIP3   OH240777   5.706   1.341   5.094 -0.3485  0.0166 -0.3735
 6429TIP3    H140778   5.785   1.339   5.149 -1.1673 -0.6983  0.8256
 6429TIP3    H240779   5.636   1.370   5.154 -1.2697 -0.8062 -1.0311
 6430TIP3   OH240780   5.911   5.885   0.460  0.2177 -0.2695 -0.2575
 6430TIP3    H140781   5.883   5.960   0.407  0.7023  1.5109  1.9320
 6430TIP3    H240782   5.841   5.874   0.525  1.3225 -0.1206  0.9757
 6431TIP3   OH240783   1.168   6.232  13.443  0.2031  0.7759 -0.2092
 6431TIP3    H140784   1.118   6.155  13.414 -0.5098  0.6408  1.3029
 6431TIP3    H240785   1.208   6.266  13.364  0.3659 -1.0497 -0.9437
 6432TIP3   OH240786   0.496   1.760  14.789  0.2725  0.2095  0.2943
 6432TIP3    H140787   0.555   1.695  14.751  0.8242  0.8237  0.0834
 6432TIP3    H240788   0.555   1.827  14.824 -0.2989  0.7103  0.2957
 6433TIP3   OH240789   6.193   5.666  16.457  0.1469 -0.0923 -0.2800
 6433TIP3    H140790   6.097   5.664  16.454  0.0953 -0.7332  1.2124
 6433TIP3    H240791   6.218   5.579  16.487  1.2315 -0.1161 -1.2360
 6434TIP3   OH240792   3.041   4.018   3.352 -0.0065 -0.3442 -0.0452
 6434TIP3    H140793   2.966   4.025   3.411 -0.2221  0.7973 -0.4481
 6434TIP3    H240794   3.114   4.057   3.402  0.2947 -1.2907  0.2766
 6435TIP3   OH240795   5.759   2.193  13.548  0.0167  0.0455  0.2582
 6435TIP3    H140796   5.789   2.102  13.551  0.7700  0.2774 -0.2833
 6435TIP3    H240797   5.695   2.195  13.477  0.0596 -0.0426  0.2168
 6436TIP3   OH240798   6.574   5.218   4.710  0.4531  0.5337 -0.2158
 6436TIP3    H140799   6.562   5.138   4.761  1.9483  0.4163 -0.0355
 6436TIP3    H240800   6.605   5.283   4.773  3.0347  0.1852 -1.0716
 6437TIP3   OH240801   3.926   4.232   2.051  0.0977  0.4365 -0.0219
 6437TIP3    H140802   4.016   4.241   2.019  0.1170 -0.1988 -0.1467
 6437TIP3    H240803   3.871   4.254   1.975  0.1427 -0.9427 -0.4563
 6438TIP3   OH240804   2.947   4.069  14.224  0.0062  0.1928  0.0695
 6438TIP3    H140805   3.023   4.121  14.252  0.3989 -0.5612  0.4482
 6438TIP3    H240806   2.872   4.126  14.237  0.1772 -0.1487  2.7370
 6439TIP3   OH240807   2.773   3.127  15.236  0.0855  0.2098  0.0581
 6439TIP3    H140808   2.796   3.036  15.253 -0.0417  0.3731  1.1400
 6439TIP3    H240809   2.741   3.128  15.145 -0.3571 -0.9063  0.1998
 6440TIP3   OH240810   5.284   4.084   3.755  0.1097 -0.2768  0.2800
 6440TIP3    H140811   5.191   4.069   3.737 -0.4026 -0.4020  2.8722
 6440TIP3    H240812   5.304   4.028   3.830  2.4437 -0.7125 -0.6321
 6441TIP3   OH240813   4.930   3.508   2.281 -0.1080  0.7983  0.1403
 6441TIP3    H140814   4.955   3.439   2.343 -0.4644  0.2277 -0.3449
 6441TIP3    H240815   4.962   3.589   2.321  1.7461  0.1814 -0.0547
 6442TIP3   OH240816   6.549   6.323   4.279 -0.4703 -0.6648  0.0299
 6442TIP3    H140817   6.524   6.415   4.267  1.0738 -0.3004 -0.4720
 6442TIP3    H240818   6.643   6.326   4.296 -0.1687 -2.2444 -1.2613
 6443TIP3   OH240819   0.176   4.876  12.091 -0.1127 -0.6245  0.2275
 6443TIP3    H140820   0.201   4.904  12.003  1.1593 -0.8116  0.5103
 6443TIP3    H240821   0.091   4.834  12.081 -0.5460  0.4553 -0.7137
 6444TIP3   OH240822   4.626   3.014  12.296 -0.2529 -0.2051 -0.6472
 6444TIP3    H140823   4.555   2.951  12.310 -2.2231  2.3194  1.2349
 6444TIP3    H240824   4.640   3.012  12.201 -2.6564 -0.9889 -1.0328
 6445TIP3   OH240825   3.210   0.479   6.502  0.0334 -0.2565  0.0266
 6445TIP3    H140826   3.160   0.399   6.491 -1.0074  0.2268  1.1891
 6445TIP3    H240827   3.174   0.539   6.437  1.5668 -1.0635 -1.6178
 6446TIP3   OH240828   0.443   1.763   3.783 -0.2578  0.5010 -0.0450
 6446TIP3    H140829   0.445   1.672   3.754 -1.6309  1.3111 -2.9442
 6446TIP3    H240830   0.444   1.758   3.879  3.0868 -2.4022 -0.1164
 6447TIP3   OH240831   1.923   5.519   1.844  0.2393  0.4058  0.2700
 6447TIP3    H140832   1.952   5.585   1.781  2.3534 -1.3720 -0.7022
 6447TIP3    H240833   1.869   5.459   1.792  3.1505 -1.8667 -0.2875
 6448TIP3   OH240834   6.792   2.796   5.080 -0.2202  0.1305 -0.5355
 6448TIP3    H140835   6.781   2.859   5.009 -0.1122  0.9201  0.1496
 6448TIP3    H240836   6.705   2.786   5.118  0.0461  1.0453  0.3454
 6449TIP3   OH240837   4.670   1.903   4.417  0.7475  0.1018 -0.0932
 6449TIP3    H140838   4.659   1.816   4.380  1.4761 -0.8035  1.7468
 6449TIP3    H240839   4.595   1.915   4.475  1.2947  0.1822  0.6066
 6450TIP3   OH240840   3.612   5.413   1.400 -0.3146  0.8689  0.4012
 6450TIP3    H140841   3.654   5.473   1.461 -1.0933  1.2460  0.5708
 6450TIP3    H240842   3.672   5.339   1.394 -0.7515  0.3114  2.4799
 6451TIP3   OH240843   1.620   3.479   2.109 -0.7550  0.6962  0.2272
 6451TIP3    H140844   1.695   3.509   2.160 -0.9074 -0.5073  1.1865
 6451TIP3    H240845   1.641   3.389   2.086 -1.8017  0.4124  0.3248
 6452TIP3   OH240846   1.874   2.673  12.486  0.6524 -0.3371  1.1526
 6452TIP3    H140847   1.884   2.594  12.538  0.6761 -0.0806  1.5347
 6452TIP3    H240848   1.780   2.678  12.467  0.7340 -0.7958  0.5956
 6453TIP3   OH240849   4.274   4.060   4.891 -0.3633  0.5408 -0.0106
 6453TIP3    H140850   4.240   4.145   4.865  0.2520  1.1261  1.0317
 6453TIP3    H240851   4.219   3.996   4.846 -0.3293  1.4958 -1.4122
 6454TIP3   OH240852   0.755   4.915  10.716  0.9748  0.0206  0.1689
 6454TIP3    H140853   0.801   4.855  10.657  0.7741 -0.2263  0.2606
 6454TIP3    H240854   0.773   5.002  10.681  2.2585 -0.0086  0.7199
 6455TIP3   OH240855   5.135   1.749   5.748  0.4673 -0.0401 -0.2834
 6455TIP3    H140856   5.218   1.769   5.791 -0.1470  0.1145  0.8603
 6455TIP3    H240857   5.126   1.817   5.681  0.9914  0.2869 -0.0308
 6456TIP3   OH240858   1.985   5.401  13.319 -0.1303  0.4196  0.1646
 6456TIP3    H140859   2.052   5.465  13.343  0.8796 -0.5658  0.0381
 6456TIP3    H240860   2.021   5.318  13.350 -1.5364 -0.0509  0.5471
 6457TIP3   OH240861   5.367   3.994   3.509 -0.0462 -0.8678  0.5665
 6457TIP3    H140862   5.356   4.054   3.582  1.6487 -1.4260  1.3195
 6457TIP3    H240863   5.448   3.946   3.530  0.3240 -1.2061 -1.5345
 6458TIP3   OH240864   1.351   5.883   0.222 -0.0210 -0.3955  0.2633
 6458TIP3    H140865   1.365   5.917   0.133  0.5270 -0.3496  0.3664
 6458TIP3    H240866   1.427   5.827   0.238 -0.0555 -0.3000  0.7522
 6459TIP3   OH240867   6.287   5.400   2.065 -1.4138  0.4059  0.1469
 6459TIP3    H140868   6.309   5.434   1.978 -0.8819  1.9733  0.8790
 6459TIP3    H240869   6.216   5.339   2.049 -1.7633  1.1690 -1.3307
 6460TIP3   OH240870   0.634   0.510  11.605  0.5085 -0.3356  0.3946
 6460TIP3    H140871   0.662   0.600  11.585 -0.1602  0.1261  1.5137
 6460TIP3    H240872   0.559   0.495  11.548  0.2196  0.0512  0.6705
 6461TIP3   OH240873   0.287   0.394  15.611 -0.6169  0.0353 -0.3188
 6461TIP3    H140874   0.292   0.319  15.670 -0.2696  0.5526  0.3116
 6461TIP3    H240875   0.376   0.430  15.610 -1.3314  2.0241  1.4694
 6462TIP3   OH240876   3.074   5.038   2.359 -0.4596  0.0172  0.2945
 6462TIP3    H140877   3.042   4.954   2.326 -1.2793  0.1380  0.7789
 6462TIP3    H240878   3.025   5.053   2.440  0.3349  0.5322  0.6847
 6463TIP3   OH240879   2.779   1.807  14.429 -0.9903 -0.2747  0.3812
 6463TIP3    H140880   2.770   1.882  14.369  0.5402 -0.7922 -0.5123
 6463TIP3    H240881   2.854   1.829  14.484  1.0158 -2.2033 -1.4906
 6464TIP3   OH240882   5.620   3.280   1.909  0.7824 -0.2365 -0.5513
 6464TIP3    H140883   5.554   3.324   1.855 -1.5896 -0.5256  1.9677
 6464TIP3    H240884   5.651   3.348   1.969  2.0019 -0.3891 -0.9900
 6465TIP3   OH240885   3.604   1.208  14.397 -0.1192  0.2081  0.4034
 6465TIP3    H140886   3.632   1.294  14.367  0.0816  0.4032  1.1443
 6465TIP3    H240887   3.514   1.221  14.426  0.3594  0.4765  1.7927
 6466TIP3   OH240888   3.745   5.321   3.585 -0.4011 -0.3292 -0.0025
 6466TIP3    H140889   3.817   5.270   3.546 -1.8251 -2.3033 -0.1080
 6466TIP3    H240890   3.739   5.288   3.675  0.0873  1.2301  0.6174
 6467TIP3   OH240891   5.988   6.371   4.310  0.1618 -0.1032 -0.1367
 6467TIP3    H140892   5.938   6.308   4.259  0.7913 -1.0681  0.4211
 6467TIP3    H240893   5.989   6.450   4.257 -0.9291 -0.4567 -0.6889
 6468TIP3   OH240894   6.468   1.976  13.291 -0.2820  0.4191 -0.0392
 6468TIP3    H140895   6.385   1.980  13.337 -1.0261 -1.2825 -1.1866
 6468TIP3    H240896   6.451   1.921  13.214  2.3777 -1.6200  0.7581
 6469TIP3   OH240897   0.675   6.150  12.751 -0.1421 -0.0044  0.2055
 6469TIP3    H140898   0.752   6.164  12.805 -1.0487 -0.5682  1.6760
 6469TIP3    H240899   0.683   6.059  12.722  0.0666  0.1315 -0.1658
 6470TIP3   OH240900   5.128   4.015   5.550  0.0368 -0.2585 -0.3290
 6470TIP3    H140901   5.159   4.064   5.626  2.4097 -1.2040 -0.6681
 6470TIP3    H240902   5.149   3.924   5.569 -2.4243 -0.9342 -0.6556
 6471TIP3   OH240903   2.887   4.478   5.157  0.2598 -0.0655 -0.2568
 6471TIP3    H140904   2.944   4.555   5.147  0.7697 -0.0393  2.5146
 6471TIP3    H240905   2.946   4.410   5.191 -0.8334 -0.7681  0.2418
 6472TIP3   OH240906   0.593   2.108  12.530 -0.1025 -0.2717  0.4969
 6472TIP3    H140907   0.635   2.180  12.577 -0.9359  0.5361  0.0098
 6472TIP3    H240908   0.563   2.147  12.448  0.2373 -1.3849 -0.1702
 6473TIP3   OH240909   3.621   2.183  15.838 -0.2423 -0.5991 -0.0751
 6473TIP3    H140910   3.693   2.132  15.874  0.3782 -0.9784 -1.8001
 6473TIP3    H240911   3.589   2.130  15.764 -2.4067 -0.5279  0.7896
 6474TIP3   OH240912   1.118   1.433   5.052  0.4742 -0.5996  0.4397
 6474TIP3    H140913   1.147   1.388   4.972  1.0987  0.3524  0.1212
 6474TIP3    H240914   1.199   1.461   5.094  0.0650  1.5341 -0.1389
 6475TIP3   OH240915   4.121   2.941   1.048  0.3649  0.1422  0.5300
 6475TIP3    H140916   4.169   2.973   1.125 -0.9103  1.8247  0.6391
 6475TIP3    H240917   4.078   2.861   1.078  1.2057 -0.1137  1.0792
 6476TIP3   OH240918   2.971   1.033   4.861 -0.3795 -0.1785 -0.0106
 6476TIP3    H140919   2.956   1.123   4.891 -0.3683 -0.0250 -0.4704
 6476TIP3    H240920   2.973   1.039   4.766  3.5725 -0.0423 -0.0020
 6477TIP3   OH240921   3.587   4.927   0.687  0.3562 -0.4063 -0.4755
 6477TIP3    H140922   3.533   4.849   0.692  0.2296 -0.2224  1.7540
 6477TIP3    H240923   3.594   4.947   0.594 -0.7631 -2.2609 -0.9612
 6478TIP3   OH240924   4.925   5.688   1.948  0.0982  0.3891  0.2264
 6478TIP3    H140925   4.968   5.619   1.897  1.9604 -0.5220  2.9338
 6478TIP3    H240926   4.843   5.649   1.978 -0.7317  0.7371 -1.4961
 6479TIP3   OH240927   4.104   1.915   2.860  0.1181  0.1628  0.1165
 6479TIP3    H140928   4.162   1.933   2.934  3.2771  1.5504 -2.6152
 6479TIP3    H240929   4.132   1.830   2.827  1.1563  1.1966 -1.7031
 6480TIP3   OH240930   0.005   0.009  12.700  0.1741 -0.1054  0.2841
 6480TIP3    H140931   0.062  -0.057  12.741 -0.5683 -0.9241  0.0065
 6480TIP3    H240932   0.065   0.078  12.673  0.7815  0.0263  1.9225
 6481TIP3   OH240933   2.567   4.606   3.937 -0.1961 -0.0979  0.0543
 6481TIP3    H140934   2.476   4.592   3.961 -0.2777 -1.7160 -1.0975
 6481TIP3    H240935   2.614   4.531   3.974 -0.0981 -1.8231 -3.3414
 6482TIP3   OH240936   1.317   5.103   1.838 -0.2187 -0.1963 -0.3439
 6482TIP3    H140937   1.413   5.107   1.843 -0.2318  0.6828 -0.6969
 6482TIP3    H240938   1.287   5.127   1.925 -0.1359  0.4503 -0.4925
 6483TIP3   OH240939   5.551   0.619   1.524  0.2640  0.5863  0.4298
 6483TIP3    H140940   5.513   0.625   1.436 -1.4911  1.2640  1.1970
 6483TIP3    H240941   5.620   0.685   1.526 -0.2551  1.1486 -0.1856
 6484TIP3   OH240942   4.040   6.104  12.182 -0.3201 -0.0187 -0.8214
 6484TIP3    H140943   4.039   6.010  12.164 -0.3434 -0.0416 -0.7049
 6484TIP3    H240944   4.100   6.141  12.117  3.5769 -0.7799  2.1265
 6485TIP3   OH240945   5.658   4.112   5.068  0.2101 -0.2393  0.0257
 6485TIP3    H140946   5.656   4.185   5.005  0.7750 -0.4760 -0.2704
 6485TIP3    H240947   5.684   4.153   5.150 -2.2146  0.3671  0.5181
 6486TIP3   OH240948   2.495   4.079  12.088  0.2743  0.1830 -0.1090
 6486TIP3    H140949   2.590   4.084  12.086  0.2875 -0.0620 -0.1239
 6486TIP3    H240950   2.465   4.163  12.052  0.4854 -0.3030 -1.4335
 6487TIP3   OH240951   4.518   4.601  13.855  0.1650  0.0834 -0.1190
 6487TIP3    H140952   4.516   4.506  13.840  1.7269  0.0134 -0.0253
 6487TIP3    H240953   4.526   4.609  13.950  2.8754  0.2075 -0.3047
 6488TIP3   OH240954   4.913   2.574  13.424  0.3121 -0.1471  0.4816
 6488TIP3    H140955   4.817   2.582  13.427  0.1486 -1.5122 -0.7061
 6488TIP3    H240956   4.935   2.577  13.331  1.5832  1.6730  0.8217
 6489TIP3   OH240957   2.700   0.909   6.097 -0.3565  0.0929 -0.5538
 6489TIP3    H140958   2.726   0.975   6.161  0.2117 -1.6564  1.0464
 6489TIP3    H240959   2.690   0.958   6.015  0.4201  2.0924  0.5159
 6490TIP3   OH240960   5.808   1.166   2.205 -0.2025  0.0366  0.3199
 6490TIP3    H140961   5.815   1.247   2.255 -1.1611  0.2301  0.1523
 6490TIP3    H240962   5.792   1.098   2.271 -0.2111  0.1039  0.3871
 6491TIP3   OH240963   6.661   3.156   0.382 -0.1142 -0.1816  0.3124
 6491TIP3    H140964   6.614   3.163   0.299  1.2162  0.5432 -0.3895
 6491TIP3    H240965   6.642   3.067   0.412  0.0218 -0.7341 -1.1608
 6492TIP3   OH240966   4.918   3.449  14.242  0.4533  0.6207 -0.0967
 6492TIP3    H140967   4.994   3.393  14.233  1.3265  1.8789 -0.6608
 6492TIP3    H240968   4.843   3.391  14.226  1.3465 -0.3403 -0.8094
 6493TIP3   OH240969   0.506   1.859   7.033  0.6538 -0.0306 -0.3218
 6493TIP3    H140970   0.428   1.907   7.061  0.4484 -0.2239 -0.5659
 6493TIP3    H240971   0.483   1.823   6.948  1.6724  1.5130 -1.2946
 6494TIP3   OH240972   1.133   4.758  14.093  0.4360 -0.3829  0.5659
 6494TIP3    H140973   1.157   4.683  14.147  2.4951  0.3349  0.7111
 6494TIP3    H240974   1.215   4.806  14.081 -0.7753  1.7104  0.2746
 6495TIP3   OH240975   6.053   3.211   1.415  0.2153  0.1544 -0.2366
 6495TIP3    H140976   6.091   3.298   1.419 -1.2388  0.8823 -1.6263
 6495TIP3    H240977   5.964   3.222   1.450  0.4867 -1.0572  0.8794
 6496TIP3   OH240978   1.860   4.111   6.172  0.5135  0.5736  0.0789
 6496TIP3    H140979   1.861   4.206   6.162  0.7443  0.6653  0.9449
 6496TIP3    H240980   1.946   4.083   6.142  1.2457  0.8579  1.8777
 6497TIP3   OH240981   6.662   1.407   5.936  0.6788  0.3428 -0.2630
 6497TIP3    H140982   6.632   1.334   5.880  1.3755 -1.4495  1.6246
 6497TIP3    H240983   6.678   1.366   6.021  2.7280  2.4279  0.3836
 6498TIP3   OH240984   0.973   3.240   4.618  0.0928 -0.0277  0.1430
 6498TIP3    H140985   0.947   3.326   4.652  0.2607  0.4597 -0.9647
 6498TIP3    H240986   1.034   3.259   4.547 -1.0366 -1.0235 -1.1290
 6499TIP3   OH240987   1.921   0.853   4.806  0.1985 -0.4220  0.4780
 6499TIP3    H140988   2.001   0.843   4.856  0.6292 -0.5861 -0.2421
 6499TIP3    H240989   1.938   0.809   4.723 -0.0667  0.9199 -0.3097
 6500TIP3   OH240990   3.629   5.020  12.602  0.0123  0.4995 -0.3311
 6500TIP3    H140991   3.614   5.074  12.524  0.8802  0.8104 -0.2846
 6500TIP3    H240992   3.722   5.031  12.621  0.0815 -0.6100 -0.0155
 6501TIP3   OH240993   3.156   2.514  12.680 -0.2449 -0.9849 -0.1915
 6501TIP3    H140994   3.238   2.465  12.681  0.3743  0.0565  1.4491
 6501TIP3    H240995   3.165   2.574  12.607  1.5688  0.9357  1.5532
 6502TIP3   OH240996   1.362   0.776  16.157  0.1315  0.1159 -0.2841
 6502TIP3    H140997   1.359   0.681  16.152 -0.3262  0.1067  0.0989
 6502TIP3    H240998   1.455   0.798  16.150  0.3426 -0.4193  0.7104
 6503TIP3   OH240999   5.718   4.478   1.743 -0.0623  0.1980  0.2368
 6503TIP3    H141000   5.631   4.454   1.777  0.3025 -1.3896  0.0514
 6503TIP3    H241001   5.774   4.480   1.821  0.3060 -1.3481  0.0161
 6504TIP3   OH241002   5.819   1.689  12.733  0.6008 -0.5219 -0.8439
 6504TIP3    H141003   5.775   1.760  12.687 -0.3734 -0.5793 -0.0110
 6504TIP3    H241004   5.784   1.692  12.822  4.2104  1.0741  0.6024
 6505TIP3   OH241005   5.185   4.037  11.998  0.1050  0.1410  0.0807
 6505TIP3    H141006   5.208   3.946  11.978  0.6703  0.4239 -0.5865
 6505TIP3    H241007   5.240   4.060  12.073 -1.6695 -0.7709  1.7117
 6506TIP3   OH241008   5.691   6.379   0.364  0.0920 -0.2190  0.2962
 6506TIP3    H141009   5.665   6.429   0.288 -0.6259  0.6085  1.0764
 6506TIP3    H241010   5.742   6.440   0.417 -0.9523 -0.2352  1.3442
 6507TIP3   OH241011   4.433   3.145   0.030 -0.0949  0.3066  0.6223
 6507TIP3    H141012   4.456   3.087   0.102  2.1874  0.7564  0.2926
 6507TIP3    H241013   4.497   3.216   0.035  0.5355 -0.0046 -2.2368
 6508TIP3   OH241014   3.147   4.841  11.298 -0.0209 -0.6799  0.3399
 6508TIP3    H141015   3.124   4.762  11.248  0.1617 -0.9488  0.6807
 6508TIP3    H241016   3.073   4.900  11.284  0.4540 -0.3808 -1.0378
 6509TIP3   OH241017   5.047   0.879  10.735 -0.3182  0.2828  0.0725
 6509TIP3    H141018   4.988   0.933  10.681 -0.8175  0.9583  1.2746
 6509TIP3    H241019   5.025   0.902  10.825 -0.3949 -1.8100  0.6118
 6510TIP3   OH241020   4.617   0.998  15.625  0.4506 -0.4573  0.2182
 6510TIP3    H141021   4.608   1.088  15.593 -1.4847  0.2049  2.4485
 6510TIP3    H241022   4.703   0.996  15.668  0.7309  0.1872 -0.3096
 6511TIP3   OH241023   4.031   3.398  11.940 -0.1583  0.1069 -0.3155
 6511TIP3    H141024   4.096   3.447  11.990 -1.8696  0.4776  1.5957
 6511TIP3    H241025   4.048   3.306  11.962 -3.0337  0.4367  3.7196
 6512TIP3   OH241026   4.761   5.639  15.753  0.1374  0.0050  0.0737
 6512TIP3    H141027   4.759   5.734  15.764  0.2441 -0.0237  0.3417
 6512TIP3    H241028   4.756   5.604  15.842  1.3162 -0.2134  0.0624
 6513TIP3   OH241029   2.013   0.350  16.546  0.1901  0.9755  0.2777
 6513TIP3    H141030   2.089   0.374  16.494 -0.0331  1.6856  0.2688
 6513TIP3    H241031   2.044   0.351  16.636  0.0166  1.9699  0.3308
 6514TIP3   OH241032   0.469   2.033  12.765 -0.4175  0.0372  0.5903
 6514TIP3    H141033   0.547   1.995  12.805 -0.1636  1.7811  1.7837
 6514TIP3    H241034   0.503   2.090  12.696 -0.5991  1.1900  1.4435
 6515TIP3   OH241035   0.169   1.176  13.498  0.3723  0.4360 -0.1580
 6515TIP3    H141036   0.144   1.089  13.527 -0.0000  0.1716 -1.2688
 6515TIP3    H241037   0.096   1.232  13.524 -1.5165 -0.3556 -3.5196
 6516TIP3   OH241038   2.648   4.801  12.718 -0.6286  0.4040 -0.0463
 6516TIP3    H141039   2.654   4.821  12.624 -1.1223  0.2113 -0.1205
 6516TIP3    H241040   2.693   4.717  12.727 -0.3874  0.5286 -0.0727
 6517TIP3   OH241041   3.651   5.741   1.262 -0.2833  0.0635  0.5715
 6517TIP3    H141042   3.599   5.810   1.304 -2.6775 -0.0966 -1.9867
 6517TIP3    H241043   3.625   5.661   1.306 -0.3331  0.3045  0.9877
 6518TIP3   OH241044   6.606   2.147  16.240 -0.0665  0.1920  0.1295
 6518TIP3    H141045   6.542   2.125  16.307 -0.8136 -4.1225 -1.8039
 6518TIP3    H241046   6.687   2.105  16.269 -0.2689 -1.2738 -1.3484
 6519TIP3   OH241047   4.214   1.754   6.022 -0.5528 -0.1660  0.0251
 6519TIP3    H141048   4.265   1.763   6.102 -0.0127  1.8719 -0.4976
 6519TIP3    H241049   4.165   1.673   6.032  1.9948 -1.6237  1.0173
 6520TIP3   OH241050   0.977   4.495  16.088 -0.4774  0.3381  0.5613
 6520TIP3    H141051   0.941   4.514  16.001 -1.1300  0.1801  0.7948
 6520TIP3    H241052   1.028   4.572  16.110  0.2064  0.1191 -0.2336
 6521TIP3   OH241053   4.597   1.513   5.449 -0.3678  0.3380  0.0048
 6521TIP3    H141054   4.517   1.475   5.412  0.8454 -1.2615 -1.0487
 6521TIP3    H241055   4.575   1.605   5.465 -1.8153  0.3843 -2.0991
 6522TIP3   OH241056   2.820   3.662   4.307 -0.0075 -0.1316  0.0485
 6522TIP3    H141057   2.807   3.643   4.400 -0.5760  2.6464  0.6071
 6522TIP3    H241058   2.914   3.675   4.298  0.0355 -0.2859  0.2705
 6523TIP3   OH241059   1.464   2.615   3.914 -0.7353 -0.3478  0.6761
 6523TIP3    H141060   1.444   2.708   3.908  0.2981 -0.1706 -0.2654
 6523TIP3    H241061   1.468   2.586   3.823  0.8486 -0.8831  0.9026
 6524TIP3   OH241062   5.928   0.122  14.207 -0.7213 -0.1831 -0.2654
 6524TIP3    H141063   5.877   0.041  14.211  0.2197 -0.7326  1.1403
 6524TIP3    H241064   6.015   0.097  14.239  0.0472  1.0383 -1.3611
 6525TIP3   OH241065   1.851   4.467  11.612  0.3564 -0.3038  0.1668
 6525TIP3    H141066   1.810   4.433  11.533 -0.6950 -0.2614  0.6857
 6525TIP3    H241067   1.852   4.562  11.599  0.3633 -0.3099  0.1211
 6526TIP3   OH241068   5.406   3.530  16.499  0.1244 -0.2528  0.1983
 6526TIP3    H141069   5.334   3.481  16.461  0.6733 -0.1843 -0.9465
 6526TIP3    H241070   5.466   3.463  16.533 -0.5180 -0.3078  1.2471
 6527TIP3   OH241071   3.239   2.633   4.025 -0.7511 -0.4355 -0.1466
 6527TIP3    H141072   3.328   2.605   4.004 -0.7205 -0.8653  0.5695
 6527TIP3    H241073   3.250   2.724   4.054 -0.5419 -0.4980 -0.0235
 6528TIP3   OH241074   5.683   2.827  12.989 -0.0689 -0.5009 -0.0764
 6528TIP3    H141075   5.714   2.878  13.063  2.1032  0.7953 -1.8320
 6528TIP3    H241076   5.659   2.892  12.922 -0.2053 -1.6850 -1.2099
 6529TIP3   OH241077   4.963   5.144   3.278 -0.1348 -0.4972 -0.3242
 6529TIP3    H141078   5.030   5.143   3.346  0.0082 -2.0345 -0.4730
 6529TIP3    H241079   4.938   5.052   3.268 -3.2136  0.1863  0.6533
 6530TIP3   OH241080   4.634   2.727  11.420 -0.7201 -0.1938 -0.6303
 6530TIP3    H141081   4.675   2.640  11.416  0.0239  0.0894  0.5106
 6530TIP3    H241082   4.706   2.788  11.432 -1.4372  0.2865  1.7078
 6531TIP3   OH241083   0.755   5.112  14.966 -0.1164 -0.3362  0.4588
 6531TIP3    H141084   0.678   5.143  14.919 -0.9228 -2.3141  0.4214
 6531TIP3    H241085   0.727   5.105  15.057 -0.0451 -1.2303  0.4158
 6532TIP3   OH241086   3.547   0.816   4.935 -0.1284  0.3768  0.2839
 6532TIP3    H141087   3.498   0.810   5.017 -1.5008  2.1479 -0.3811
 6532TIP3    H241088   3.638   0.801   4.960 -0.6048  0.3606  2.0371
 6533TIP3   OH241089   1.744   5.369   1.668  0.2863  0.2772  0.3934
 6533TIP3    H141090   1.800   5.315   1.612 -0.7239 -3.2783  2.7072
 6533TIP3    H241091   1.656   5.360   1.630 -0.1100 -0.8225  1.5281
 6534TIP3   OH241092   4.700   1.802  11.896 -0.0140  0.8114  0.4591
 6534TIP3    H141093   4.634   1.739  11.865  0.6218  0.0833  0.5760
 6534TIP3    H241094   4.648   1.872  11.936 -0.7064 -0.0237  1.0580
 6535TIP3   OH241095   3.655   3.745  13.565  0.2446 -0.3496 -0.4954
 6535TIP3    H141096   3.737   3.746  13.515  0.6959  0.8450  0.2543
 6535TIP3    H241097   3.656   3.827  13.614 -2.1835  0.4486 -1.7080
 6536TIP3   OH241098   2.798   3.890  15.937 -0.1795 -0.1025  0.1105
 6536TIP3    H141099   2.825   3.844  15.857  2.0869  0.6546  0.4279
 6536TIP3    H241100   2.857   3.858  16.005 -0.6919  0.8690  1.0281
 6537TIP3   OH241101   3.094   1.837   5.081  0.1247  0.2092  0.3980
 6537TIP3    H141102   3.001   1.818   5.081  0.5279 -1.9117  0.9241
 6537TIP3    H241103   3.133   1.771   5.023  1.4655  0.0265  1.4559
 6538TIP3   OH241104   2.995   5.446   1.293  0.0353  0.0727 -0.1290
 6538TIP3    H141105   2.958   5.446   1.204  2.4377  1.5012 -1.1565
 6538TIP3    H241106   3.061   5.377   1.291 -0.2538 -0.2354  0.7249
 6539TIP3   OH241107   3.142   3.237  10.590 -0.1196  1.4001  0.0235
 6539TIP3    H141108   3.221   3.249  10.642 -0.3547 -1.6026  1.1992
 6539TIP3    H241109   3.168   3.177  10.520 -1.3866  0.2543  0.5184
 6540TIP3   OH241110   3.665   4.420   4.197  0.9830  0.1852 -0.4858
 6540TIP3    H141111   3.577   4.393   4.224  0.4709  0.4478 -1.8629
 6540TIP3    H241112   3.662   4.516   4.200  2.0812  0.1918  2.1216
 6541TIP3   OH241113   5.565   2.684   4.667 -1.0410 -0.3996  0.1330
 6541TIP3    H141114   5.490   2.741   4.686 -0.0370  0.7608  0.6734
 6541TIP3    H241115   5.619   2.689   4.745  0.0661 -0.4887 -0.6181
 6542TIP3   OH241116   1.763   0.290   0.122  0.0775  0.3150  0.9812
 6542TIP3    H141117   1.832   0.356   0.123 -0.5428  0.9680  0.6772
 6542TIP3    H241118   1.690   0.330   0.169 -0.0945 -0.3766  1.3119
 6543TIP3   OH241119   1.815   0.571   5.526  0.3229  0.7184 -0.3571
 6543TIP3    H141120   1.761   0.619   5.589 -0.6749 -1.2583  0.3375
 6543TIP3    H241121   1.902   0.568   5.567 -0.0119  0.5053  0.3445
 6544TIP3   OH241122   1.408   6.261  16.147  0.0808  0.2506  0.3447
 6544TIP3    H141123   1.362   6.273  16.064  2.7979  0.7875 -1.1502
 6544TIP3    H241124   1.465   6.338  16.153  2.7758 -1.7319  0.7731
 6545TIP3   OH241125   1.013   1.008   2.266  0.0355 -0.4650 -0.4694
 6545TIP3    H141126   0.969   0.924   2.249  1.7807 -1.0942 -2.0942
 6545TIP3    H241127   1.075   0.989   2.336  0.4977 -0.5618 -0.9029
 6546TIP3   OH241128   1.093   6.450  11.429  0.0455  0.2510  0.1578
 6546TIP3    H141129   1.122   6.539  11.450  1.6798 -0.5602  1.5388
 6546TIP3    H241130   1.051   6.419  11.510  0.7581 -0.7173  0.1697
 6547TIP3   OH241131   6.010   3.937   2.219  0.2765 -0.4943  0.3659
 6547TIP3    H141132   6.002   3.916   2.312 -1.5701  0.1402  0.3759
 6547TIP3    H241133   5.945   4.006   2.204  2.8772  1.8468 -0.6830
 6548TIP3   OH241134   5.360   3.786  13.634 -0.0688  0.0711  0.6838
 6548TIP3    H141135   5.393   3.816  13.549  0.5825 -0.0422  0.8921
 6548TIP3    H241136   5.321   3.864  13.673 -0.9912 -0.0285 -0.0060
 6549TIP3   OH241137   1.884   6.455   1.004  0.1440  0.0096 -0.3585
 6549TIP3    H141138   1.863   6.422   0.916  0.5510  2.4862 -1.4143
 6549TIP3    H241139   1.973   6.489   0.997  0.2615  0.0391  1.0949
 6550TIP3   OH241140   6.280   0.739   5.409  0.3983 -0.7572  0.3811
 6550TIP3    H141141   6.271   0.673   5.477  1.9697 -0.4162  0.9298
 6550TIP3    H241142   6.323   0.813   5.452  1.2181 -0.4580 -0.9154
 6551TIP3   OH241143   0.257   5.187   5.669 -0.1755 -0.3962  0.2640
 6551TIP3    H141144   0.221   5.174   5.757 -2.6934  0.4901 -0.6001
 6551TIP3    H241145   0.272   5.281   5.662 -1.0206 -0.3289 -0.6521
 6552TIP3   OH241146   2.402   3.588   1.518  0.1431  0.0467  0.1573
 6552TIP3    H141147   2.382   3.635   1.599 -2.0462 -0.9334  0.2062
 6552TIP3    H241148   2.342   3.514   1.518  2.2872 -1.7310 -0.8340
 6553TIP3   OH241149   4.819   4.305   1.611  0.0677 -0.1764  0.6495
 6553TIP3    H141150   4.749   4.306   1.676 -0.0241 -4.5228  0.7320
 6553TIP3    H241151   4.781   4.263   1.535  1.6065  0.5003 -0.5285
 6554TIP3   OH241152   4.608   5.220  14.052  0.3497  0.7515 -0.4853
 6554TIP3    H141153   4.513   5.233  14.055  0.3565  1.5698 -3.1442
 6554TIP3    H241154   4.632   5.207  14.144 -2.3280  0.4621  0.2359
 6555TIP3   OH241155   4.420   0.379   3.833  0.3653  0.0532 -0.2007
 6555TIP3    H141156   4.405   0.390   3.739  0.6650  1.1173 -0.1291
 6555TIP3    H241157   4.350   0.320   3.861  0.6759 -0.8147 -1.2071
 6556TIP3   OH241158   6.298   0.627  16.890  0.4333  0.5489  0.6127
 6556TIP3    H141159   6.269   0.653  16.977  0.1963  2.4057  0.0058
 6556TIP3    H241160   6.377   0.679  16.874  0.1978  0.5848 -0.4584
 6557TIP3   OH241161   3.236   1.276  11.243 -0.1420 -0.0313  0.5512
 6557TIP3    H141162   3.175   1.236  11.305  1.2565 -0.9155  1.3811
 6557TIP3    H241163   3.269   1.354  11.287 -0.7557  0.5255  0.0446
 6558TIP3   OH241164   4.467   3.100  11.351 -0.4268 -0.1424 -0.4931
 6558TIP3    H141165   4.531   3.093  11.280 -1.0386  0.6395 -1.1343
 6558TIP3    H241166   4.387   3.128  11.308 -1.0526 -0.5714  0.3878
 6559TIP3   OH241167   2.903   3.197   5.599 -0.2122  0.2811  0.7756
 6559TIP3    H141168   2.909   3.154   5.685  0.4777 -1.6266 -0.2030
 6559TIP3    H241169   2.940   3.134   5.538  1.2381  2.4674 -0.6629
 6560TIP3   OH241170   0.509   4.304  11.861  0.5592 -0.3085  0.1716
 6560TIP3    H141171   0.484   4.389  11.898 -0.6961 -0.1241 -1.0691
 6560TIP3    H241172   0.461   4.298  11.779 -0.1722 -2.6500  0.7054
 6561TIP3   OH241173   3.392   1.732  13.132  0.3513 -0.2538 -0.2930
 6561TIP3    H141174   3.459   1.670  13.102  0.1999 -0.2880 -0.5580
 6561TIP3    H241175   3.309   1.690  13.112  0.2156  0.8855 -2.3303
 6562TIP3   OH241176   0.982   6.391   2.704  0.7206  0.7590 -0.6584
 6562TIP3    H141177   1.034   6.422   2.630 -1.1415  1.4789 -1.7113
 6562TIP3    H241178   0.904   6.352   2.664  0.2811  0.0048  0.8794
 6563TIP3   OH241179   4.324   1.981   3.008 -0.4604  0.2115  0.4887
 6563TIP3    H141180   4.378   2.061   3.003  0.6467 -0.4428  1.8600
 6563TIP3    H241181   4.385   1.912   3.034 -1.9876 -0.5222  2.2307
 6564TIP3   OH241182   0.253   0.446   3.615 -0.3585  0.1254 -0.2963
 6564TIP3    H141183   0.264   0.419   3.706  3.0599 -1.0790 -0.9751
 6564TIP3    H241184   0.258   0.364   3.564  0.4938  1.0444 -1.7383
 6565TIP3   OH241185   4.121   4.474  14.682  0.2340  0.0488  0.1414
 6565TIP3    H141186   4.115   4.380  14.699 -3.0960  0.1642  0.0095
 6565TIP3    H241187   4.055   4.490  14.614  0.3443  2.5654  0.5645
 6566TIP3   OH241188   1.888   3.991   5.081 -0.0354 -0.1948  0.2263
 6566TIP3    H141189   1.853   4.078   5.102 -2.2773 -1.4675  2.0542
 6566TIP3    H241190   1.834   3.960   5.009 -0.1327 -0.5882  0.4653
 6567TIP3   OH241191   0.151   6.107  16.069 -0.1463 -0.5977 -0.1692
 6567TIP3    H141192   0.061   6.092  16.097  0.0619 -1.5127  0.0409
 6567TIP3    H241193   0.194   6.145  16.145  0.0264 -1.6137  0.2483
 6568TIP3   OH241194   6.360   6.408  11.540 -0.2563 -0.9946 -0.3555
 6568TIP3    H141195   6.399   6.371  11.619 -0.7867  0.1914  0.4875
 6568TIP3    H241196   6.287   6.461  11.572  1.6266  2.3659 -1.2877
 6569TIP3   OH241197   2.965   5.649   4.520 -0.1818 -0.1523 -0.3000
 6569TIP3    H141198   2.955   5.555   4.535  0.1884  0.1228  1.7847
 6569TIP3    H241199   3.053   5.657   4.484  0.0425 -0.5361  0.1529
 6570TIP3   OH241200   3.039   4.193   3.102 -0.2881  0.0167  0.0250
 6570TIP3    H141201   3.103   4.201   3.173  0.1245  0.9212 -0.4397
 6570TIP3    H241202   2.954   4.196   3.146 -0.0234 -1.0377  0.6279
 6571TIP3   OH241203   2.269   4.120  15.517  0.3200  0.0622 -0.3992
 6571TIP3    H141204   2.229   4.033  15.522 -2.2752  1.2123 -0.1853
 6571TIP3    H241205   2.228   4.169  15.589 -0.1090  2.1735 -2.0396
 6572TIP3   OH241206   0.469   2.853   5.159 -0.4022 -0.3727  0.2794
 6572TIP3    H141207   0.427   2.834   5.243  1.1859  0.4254  1.2845
 6572TIP3    H241208   0.420   2.801   5.095 -2.8136  0.4264  1.4107
 6573TIP3   OH241209   4.989   0.678   1.755  0.7055  0.4609 -0.1207
 6573TIP3    H141210   4.944   0.597   1.732  0.0147  0.6621  0.4943
 6573TIP3    H241211   5.069   0.651   1.798  1.2674  0.0934 -1.3781
 6574TIP3   OH241212   6.270   5.455   1.250  0.2233 -0.1887  0.2997
 6574TIP3    H141213   6.358   5.486   1.274  0.4265 -1.2954  1.0257
 6574TIP3    H241214   6.229   5.531   1.208  2.0781 -0.1374 -1.5196
 6575TIP3   OH241215   0.099   3.815  14.262  0.6904 -0.2315  0.0253
 6575TIP3    H141216   0.137   3.755  14.197  2.7352  0.8752  0.1553
 6575TIP3    H241217   0.054   3.758  14.324  0.2772 -1.4349 -1.3644
 6576TIP3   OH241218   5.146   0.040  10.709 -0.4564 -0.0394  0.3145
 6576TIP3    H141219   5.103   0.125  10.716 -0.2440 -0.0165  1.3194
 6576TIP3    H241220   5.084  -0.014  10.660  0.3735  1.3261 -2.3221
 6577TIP3   OH241221   1.605   0.143  14.048 -0.6311 -0.5137 -0.7158
 6577TIP3    H141222   1.565   0.058  14.062 -1.6382 -0.1662 -1.3911
 6577TIP3    H241223   1.657   0.133  13.969 -0.6456 -0.5470 -0.7206
 6578TIP3   OH241224   1.597   1.948  16.720 -0.0581 -0.2539  0.1219
 6578TIP3    H141225   1.595   2.038  16.686 -2.0276 -0.3983 -0.1948
 6578TIP3    H241226   1.622   1.958  16.812  1.2063  0.4927 -0.2868
 6579TIP3   OH241227   5.894   5.931   3.969  0.5535 -0.2607  0.2702
 6579TIP3    H141228   5.853   5.855   3.928 -1.3174  0.1623  1.2974
 6579TIP3    H241229   5.907   5.905   4.060  0.9069  0.2606  0.3705
 6580TIP3   OH241230   4.411   3.081  10.676  0.0930 -0.1035  0.3102
 6580TIP3    H141231   4.390   3.170  10.647 -0.5565  0.0788  1.3105
 6580TIP3    H241232   4.332   3.052  10.722  0.4604 -1.0392  0.3587
 6581TIP3   OH241233   1.843   4.372  16.673  0.2627 -0.0287 -0.1265
 6581TIP3    H141234   1.933   4.404  16.668 -0.0500  0.7700 -0.8642
 6581TIP3    H241235   1.848   4.294  16.727  1.2925  0.4066  0.4223
 6582TIP3   OH241236   2.393   5.305   2.646  0.3011 -0.4871 -0.3236
 6582TIP3    H141237   2.340   5.322   2.568  2.3709  1.4552 -1.3577
 6582TIP3    H241238   2.466   5.252   2.615  0.1682 -1.2587  0.6541
 6583TIP3   OH241239   5.166   6.572  14.818 -0.1669  0.0951  0.0724
 6583TIP3    H141240   5.116   6.625  14.879 -0.3983  0.9328 -0.8260
 6583TIP3    H241241   5.251   6.560  14.861  0.1648  1.8847 -0.0633
 6584TIP3   OH241242   1.712   2.644   5.023  0.3435  0.0135  0.2752
 6584TIP3    H141243   1.647   2.580   4.994  1.6181 -1.6637  1.0049
 6584TIP3    H241244   1.787   2.630   4.965  1.9939 -1.7121  2.7152
 6585TIP3   OH241245   6.273   1.911  11.611  0.6453  0.4598 -0.2216
 6585TIP3    H141246   6.191   1.923  11.659 -0.5396 -1.6964 -1.6100
 6585TIP3    H241247   6.342   1.923  11.676 -0.8234  0.9018  1.2719
 6586TIP3   OH241248   3.195   6.231   0.641  0.5230  0.0820 -0.6865
 6586TIP3    H141249   3.193   6.178   0.721 -1.3625 -0.1704 -0.8668
 6586TIP3    H241250   3.262   6.190   0.587  2.2575  0.6228  0.9825
 6587TIP3   OH241251   6.745   0.660  16.074  0.6363  0.1834  0.2994
 6587TIP3    H141252   6.784   0.704  15.999 -3.2248  2.2398 -0.6731
 6587TIP3    H241253   6.747   0.727  16.144 -0.6931  0.2028  0.3377
 6588TIP3   OH241254   0.306   6.262  15.260 -0.6367 -0.3168 -0.5493
 6588TIP3    H141255   0.331   6.283  15.170  1.8302 -1.9301 -0.2916
 6588TIP3    H241256   0.324   6.343  15.309 -0.7880  0.1716 -1.3048
 6589TIP3   OH241257   1.940   3.513   0.621 -0.2602 -0.3742  0.2676
 6589TIP3    H141258   2.019   3.559   0.651  0.8149 -0.4599 -2.3106
 6589TIP3    H241259   1.974   3.433   0.581 -1.3237  1.1831 -3.9602
 6590TIP3   OH241260   3.817   3.852  10.639  0.2889 -0.3024 -0.5576
 6590TIP3    H141261   3.722   3.856  10.649  0.3591  0.4609 -0.1490
 6590TIP3    H241262   3.840   3.762  10.661 -0.2382 -0.2270  0.3214
 6591TIP3   OH241263   0.425   6.381   3.796 -0.0832 -0.0515 -0.6728
 6591TIP3    H141264   0.349   6.375   3.855 -0.3948 -1.9631 -1.2295
 6591TIP3    H241265   0.465   6.294   3.801  1.0557  0.4057 -1.7511
 6592TIP3   OH241266   3.730   2.851   6.340  0.1135  0.1646 -0.5053
 6592TIP3    H141267   3.822   2.825   6.341 -0.1111 -0.6295 -0.1175
 6592TIP3    H241268   3.718   2.891   6.254  0.7694  0.0895 -0.6400
 6593TIP3   OH241269   0.913   0.462   1.208  0.5516 -0.2633  0.6309
 6593TIP3    H141270   0.965   0.388   1.239  2.1109  0.3981 -0.3244
 6593TIP3    H241271   0.978   0.526   1.179 -0.7816  1.2034  0.8161
 6594TIP3   OH241272   4.944   0.285  16.433  0.0820  0.1348  0.0981
 6594TIP3    H141273   4.881   0.301  16.504  0.6626  2.8701  0.0665
 6594TIP3    H241274   5.025   0.326  16.464  1.4471 -2.0450 -0.5090
 6595TIP3   OH241275   4.419   0.346   0.926 -0.1005 -0.3064 -0.1885
 6595TIP3    H141276   4.412   0.392   0.843 -1.1104  0.9033  0.5583
 6595TIP3    H241277   4.386   0.258   0.908  1.6940 -0.7283 -1.5784
 6596TIP3   OH241278   1.369   2.832  16.955 -0.8030 -0.2385  0.1321
 6596TIP3    H141279   1.395   2.858  17.044  0.7400  1.7612 -0.8762
 6596TIP3    H241280   1.356   2.915  16.909  0.2317 -1.2484 -2.0341
 6597TIP3   OH241281   6.352   5.174  14.091  0.2532 -0.2289  0.0692
 6597TIP3    H141282   6.413   5.161  14.018  0.5666  0.2768  0.2424
 6597TIP3    H241283   6.307   5.090  14.100 -1.8620  0.5626 -2.5928
 6598TIP3   OH241284   0.763   6.333   4.340 -0.1239 -0.1988  0.0561
 6598TIP3    H141285   0.704   6.327   4.265  1.5059 -0.6647 -1.2288
 6598TIP3    H241286   0.785   6.426   4.346  0.4138 -0.2816 -0.5848
 6599TIP3   OH241287   0.657   1.833   6.700 -0.7273  0.0549  0.6104
 6599TIP3    H141288   0.588   1.891   6.665 -0.8831 -0.0154  0.8048
 6599TIP3    H241289   0.617   1.791   6.776 -0.5643 -0.2031  0.5529
 6600TIP3   OH241290   1.701   2.937  11.535  0.1820  0.1809 -0.0717
 6600TIP3    H141291   1.749   2.888  11.468  0.5575 -0.4012  0.6117
 6600TIP3    H241292   1.748   2.918  11.616 -0.2880  0.8557  0.3581
 6601TIP3   OH241293   2.955   2.671  13.895  0.3631  0.0032 -0.3595
 6601TIP3    H141294   2.924   2.632  13.814  1.7470  0.0000 -0.9010
 6601TIP3    H241295   3.011   2.604  13.934 -0.4633 -0.0803  0.7185
 6602TIP3   OH241296   2.083   6.042   9.993 -0.6517  0.5173  0.0210
 6602TIP3    H141297   2.037   5.968   9.953 -0.9129  0.7825 -0.1718
 6602TIP3    H241298   2.017   6.085  10.047 -0.1939 -0.0824  1.0748
 6603TIP3   OH241299   6.052   1.337  14.587  0.1663  0.1943 -0.1259
 6603TIP3    H141300   6.073   1.409  14.528  0.4739 -0.3438 -0.6759
 6603TIP3    H241301   5.962   1.314  14.566  0.2388  0.0767 -0.3098
 6604TIP3   OH241302   4.391   3.072  12.017  0.4221 -0.4318  0.3434
 6604TIP3    H141303   4.479   3.039  12.002  1.0343  1.6027 -0.7595
 6604TIP3    H241304   4.334   2.997  12.002  1.9184 -1.5754  0.2984
 6605TIP3   OH241305   6.135   2.613   1.423 -0.3449 -0.5901 -0.0980
 6605TIP3    H141306   6.055   2.624   1.371  0.9114 -0.1375 -1.9554
 6605TIP3    H241307   6.107   2.631   1.513 -2.3601 -0.5377 -0.7059
 6606TIP3   OH241308   5.198   3.575   5.835  0.3074 -0.3558 -0.1749
 6606TIP3    H141309   5.197   3.590   5.930  4.0182 -0.0874 -0.1417
 6606TIP3    H241310   5.216   3.482   5.826  1.5975 -0.0664 -0.6281
 6607TIP3   OH241311   6.497   3.647   6.711  0.4527 -0.0158 -0.2034
 6607TIP3    H141312   6.501   3.725   6.656  1.0601 -0.2805 -0.5420
 6607TIP3    H241313   6.560   3.587   6.672 -1.9785 -1.7511 -1.6339
 6608TIP3   OH241314   6.076   0.264  11.686  0.0962 -0.1878 -0.5273
 6608TIP3    H141315   6.148   0.252  11.624 -0.3911  2.5450 -1.6643
 6608TIP3    H241316   5.998   0.235  11.638  0.0283 -0.3253 -0.3365
 6609TIP3   OH241317   3.064   6.342  10.583  0.6535 -0.2244  0.0953
 6609TIP3    H141318   3.066   6.300  10.497  1.2004 -0.8062  0.3883
 6609TIP3    H241319   3.150   6.323  10.620 -0.2383 -1.6023  1.5415
 6610TIP3   OH241320   4.343   0.742  12.156  0.0143 -0.2676 -0.2991
 6610TIP3    H141321   4.306   0.830  12.158  0.6417  0.0031 -0.3910
 6610TIP3    H241322   4.313   0.701  12.237 -1.4517 -0.4618 -0.9230
 6611TIP3   OH241323   0.288   5.954  16.301  0.1669  0.3123 -0.0591
 6611TIP3    H141324   0.340   5.874  16.300 -0.0676  0.1612 -0.9580
 6611TIP3    H241325   0.208   5.932  16.253 -0.1286  0.9271  0.1466
 6612TIP3   OH241326   1.608   0.096  13.025 -0.6252 -0.5226 -0.2385
 6612TIP3    H141327   1.702   0.086  13.013 -0.5952 -2.1534  1.1231
 6612TIP3    H241328   1.571   0.084  12.938  0.5047  1.4909 -1.0358
 6613TIP3   OH241329   1.899   1.107   0.322 -0.2773  0.0970  0.5161
 6613TIP3    H141330   1.967   1.062   0.372  0.8499  1.7171  0.4761
 6613TIP3    H241331   1.820   1.054   0.335  0.6477 -1.0013  1.7424
 6614TIP3   OH241332   6.146   2.296  14.173  0.3656 -0.8654  0.1181
 6614TIP3    H141333   6.132   2.209  14.136 -2.5701  0.1756 -1.4312
 6614TIP3    H241334   6.205   2.339  14.112 -0.6443 -0.7583 -0.7946
 6615TIP3   OH241335   2.614   6.758   2.600 -0.4271  0.0342 -0.1847
 6615TIP3    H141336   2.672   6.826   2.633  1.0188 -1.0507 -0.4290
 6615TIP3    H241337   2.541   6.756   2.661  0.4910  0.4472  0.9313
 6616TIP3   OH241338   1.886   2.484  15.160  0.3907 -0.0234 -0.4997
 6616TIP3    H141339   1.931   2.503  15.243 -0.6466 -1.3358  0.3877
 6616TIP3    H241340   1.801   2.449  15.187 -0.5977  1.0806 -2.1442
 6617TIP3   OH241341   4.034   4.736   1.514 -0.3737  0.1182 -0.7709
 6617TIP3    H141342   4.027   4.668   1.581  0.6686 -0.3574 -1.1326
 6617TIP3    H241343   4.022   4.689   1.432  2.2381  0.0453 -1.1314
 6618TIP3   OH241344   1.488   5.451  12.581  0.8269 -0.1360 -0.0854
 6618TIP3    H141345   1.481   5.360  12.606  0.8251  0.2171  1.2247
 6618TIP3    H241346   1.511   5.449  12.488 -0.1517 -1.4454 -0.3082
 6619TIP3   OH241347   0.799   5.309  14.791  0.3560 -1.0448 -0.3038
 6619TIP3    H141348   0.877   5.354  14.757 -0.2831  0.6095  0.3974
 6619TIP3    H241349   0.831   5.262  14.868  0.9609 -1.5575 -0.8587
 6620TIP3   OH241350   1.187   5.329   2.017 -0.0494  0.4416 -0.1230
 6620TIP3    H141351   1.165   5.419   2.041 -2.4205 -0.2982  0.6106
 6620TIP3    H241352   1.122   5.305   1.951  0.1173 -0.9681  0.2047
 6621TIP3   OH241353   0.385   5.575   0.967 -0.1265 -0.3355 -0.2090
 6621TIP3    H141354   0.317   5.536   1.023  0.0841 -1.3059 -0.6142
 6621TIP3    H241355   0.431   5.500   0.930  1.8181  0.3097  0.8280
 6622TIP3   OH241356   3.700   3.440  16.810 -0.0640  0.1297  0.1808
 6622TIP3    H141357   3.701   3.352  16.847  3.4447 -1.4717 -3.2989
 6622TIP3    H241358   3.656   3.429  16.725 -1.2083  2.1204  0.4962
 6623TIP3   OH241359   6.634   6.551  15.087  1.0889 -0.0829 -0.0434
 6623TIP3    H141360   6.672   6.594  15.163  1.0167  1.6564 -0.9810
 6623TIP3    H241361   6.706   6.544  15.025  1.1536 -1.5218  0.1752
 6624TIP3   OH241362   4.342   1.920  13.861  0.1747 -0.0437  0.3348
 6624TIP3    H141363   4.329   1.999  13.914  0.9576  0.8866 -0.8086
 6624TIP3    H241364   4.437   1.907  13.861  0.1225 -0.4442 -0.2485
 6625TIP3   OH241365   5.121   6.493  13.451  0.0478  1.2144  0.3270
 6625TIP3    H141366   5.196   6.479  13.393  0.6366  1.5970  0.9975
 6625TIP3    H241367   5.099   6.586  13.441 -0.5099  1.0483 -0.0643
 6626TIP3   OH241368   2.583   0.204  11.339 -0.0382  0.2989 -0.4541
 6626TIP3    H141369   2.493   0.235  11.337 -1.2491 -3.0862 -3.4269
 6626TIP3    H241370   2.616   0.220  11.250  0.7143 -2.7462 -0.7564
 6627TIP3   OH241371   5.829   6.544  14.364 -0.3918  0.3183 -0.0217
 6627TIP3    H141372   5.737   6.542  14.338 -0.2440  3.7587 -0.9845
 6627TIP3    H241373   5.877   6.538  14.281  0.1821  2.0834  0.1616
 6628TIP3   OH241374   4.812   4.206   5.600 -0.2938  0.8701 -0.1998
 6628TIP3    H141375   4.797   4.184   5.692 -2.0203 -0.0563 -0.6629
 6628TIP3    H241376   4.899   4.245   5.598  0.4913 -0.6838  1.5670
 6629TIP3   OH241377   3.585   5.578  13.920  0.1376  0.0153 -0.1752
 6629TIP3    H141378   3.565   5.517  13.990 -0.9001 -0.4805 -0.8860
 6629TIP3    H241379   3.681   5.577  13.914  0.1646 -0.9866  0.3013
 6630TIP3   OH241380   3.380   2.529   0.793  0.1719 -0.0582  0.1426
 6630TIP3    H141381   3.387   2.618   0.759  0.0257  0.5102  1.5428
 6630TIP3    H241382   3.287   2.520   0.816  0.2524 -0.4636  0.3117
 6631TIP3   OH241383   0.656   1.348  13.491  0.1357  0.1097  0.0324
 6631TIP3    H141384   0.580   1.360  13.435 -0.4255 -0.5569  0.6468
 6631TIP3    H241385   0.629   1.283  13.556  1.2064 -0.0953  0.2892
 6632TIP3   OH241386   4.263   5.499  14.257 -0.5193  0.0868  0.0344
 6632TIP3    H141387   4.170   5.509  14.278 -0.4299 -0.8358  0.8690
 6632TIP3    H241388   4.308   5.511  14.340  0.3368  3.2352 -0.8092
 6633TIP3   OH241389   5.607   6.175   0.987 -0.3926 -0.3454 -0.4369
 6633TIP3    H141390   5.588   6.126   1.067 -1.5476 -1.9902 -1.6890
 6633TIP3    H241391   5.559   6.257   0.996 -0.9022 -0.7304  0.3469
 6634TIP3   OH241392   4.611   3.062   4.736  0.6334  0.0307 -0.1492
 6634TIP3    H141393   4.584   3.152   4.749  0.6566 -0.0648  0.5670
 6634TIP3    H241394   4.636   3.031   4.823  0.3269 -0.7595 -0.3383
 6635TIP3   OH241395   5.384   0.380   3.332 -0.3166  0.1047 -0.3709
 6635TIP3    H141396   5.475   0.352   3.319  0.1682  2.3417 -2.1789
 6635TIP3    H241397   5.333   0.300   3.327  1.3781 -0.9273 -1.5710
 6636TIP3   OH241398   1.275   2.954  12.202  0.1657  0.0607  0.3055
 6636TIP3    H141399   1.369   2.967  12.197  0.0638  0.2374 -2.0057
 6636TIP3    H241400   1.261   2.866  12.168 -0.5164  0.1902  0.2305
 6637TIP3   OH241401   1.644   2.640  16.295  0.2466  0.0685  0.1713
 6637TIP3    H141402   1.636   2.652  16.389 -0.0548 -1.1114  0.3029
 6637TIP3    H241403   1.735   2.610  16.282  0.7510  1.6587 -0.0746
 6638TIP3   OH241404   4.884   3.994   3.402  0.6902 -0.2528 -0.2066
 6638TIP3    H141405   4.899   4.082   3.436 -1.3554  0.4187 -0.9447
 6638TIP3    H241406   4.962   3.945   3.426  1.7814  1.7156  0.3704
 6639TIP3   OH241407   3.703   2.408   0.976  0.1876  0.6026  0.8934
 6639TIP3    H141408   3.715   2.457   1.057  1.0305  0.5031  0.8379
 6639TIP3    H241409   3.677   2.473   0.911  0.0928  0.7761  1.1064
 6640TIP3   OH241410   3.425   3.773  12.318 -0.4288 -0.0988 -0.2663
 6640TIP3    H141411   3.346   3.803  12.275 -0.9357 -0.1495  0.6218
 6640TIP3    H241412   3.395   3.710  12.384  0.6155 -2.7128 -2.2009
 6641TIP3   OH241413   6.356   6.183   4.459  0.0406 -0.1068 -0.0041
 6641TIP3    H141414   6.324   6.222   4.540 -1.3613  1.9654 -1.4795
 6641TIP3    H241415   6.443   6.221   4.447 -0.1312  0.3135  0.0605
 6642TIP3   OH241416   4.718   3.327   2.225 -0.0590 -0.1096  0.7729
 6642TIP3    H141417   4.761   3.413   2.225 -2.5869  1.2267  2.3589
 6642TIP3    H241418   4.706   3.307   2.318 -1.9147 -0.8971  0.3820
 6643TIP3   OH241419   1.837   3.245   3.006 -0.3053  0.1509 -0.1398
 6643TIP3    H141420   1.825   3.260   2.912  1.7531 -0.0101 -0.4349
 6643TIP3    H241421   1.832   3.150   3.016 -1.2203  0.2118  0.0217
 6644TIP3   OH241422   6.717   6.170  12.541 -0.0289 -0.5849  0.2739
 6644TIP3    H141423   6.801   6.216  12.539  0.4384 -1.4368 -0.1384
 6644TIP3    H241424   6.652   6.240  12.546  0.7548  0.0251  2.7236
 6645TIP3   OH241425   1.719   5.698   3.083  0.0029 -0.0197  0.4014
 6645TIP3    H141426   1.629   5.694   3.116 -0.3235 -0.2568 -0.4846
 6645TIP3    H241427   1.716   5.647   3.002  0.7792  0.5676  0.0041
 6646TIP3   OH241428   2.773   5.355   3.301 -0.3983 -0.5171 -0.0637
 6646TIP3    H141429   2.810   5.294   3.238  0.1108 -0.0156 -0.2483
 6646TIP3    H241430   2.716   5.301   3.356  1.5833 -1.5247  1.0297
 6647TIP3   OH241431   6.326   4.480   4.657 -0.3261  0.2828  0.1167
 6647TIP3    H141432   6.350   4.455   4.746 -0.8068  2.0425  0.7563
 6647TIP3    H241433   6.295   4.570   4.664  2.3742  1.4818 -2.2736
 6648TIP3   OH241434   5.836   1.215   0.245  0.1065  0.3007 -0.4099
 6648TIP3    H141435   5.905   1.248   0.303  0.9291  0.8094 -1.6549
 6648TIP3    H241436   5.843   1.120   0.251 -1.4290  0.2962  2.2013
 6649TIP3   OH241437   5.887   6.479  15.361  0.3177 -0.7701  0.2490
 6649TIP3    H141438   5.980   6.500  15.348  0.4793 -1.3549  0.4502
 6649TIP3    H241439   5.847   6.563  15.387  1.1378 -0.8890  1.9762
 6650TIP3   OH241440   5.217   3.091   3.376  0.3226  0.0241  0.2429
 6650TIP3    H141441   5.270   3.102   3.455  2.1337 -0.3254 -0.8907
 6650TIP3    H241442   5.176   3.005   3.387  0.8901 -0.2056  0.6249
 6651TIP3   OH241443   6.089   4.002   1.965  0.0952 -0.0995 -0.1105
 6651TIP3    H141444   6.082   4.014   2.059  1.4939 -1.9784  0.2618
 6651TIP3    H241445   6.011   3.953   1.941 -0.2849  0.4213  0.0497
 6652TIP3   OH241446   5.339   6.690   4.665  0.3169  0.2823 -0.6777
 6652TIP3    H141447   5.250   6.717   4.641  0.7274 -0.3583 -3.0022
 6652TIP3    H241448   5.362   6.624   4.600  1.8718 -0.7920  0.9262
 6653TIP3   OH241449   0.465   0.544   4.214  0.2950 -0.4163  0.5599
 6653TIP3    H141450   0.534   0.481   4.234  1.5750  0.6019 -0.5443
 6653TIP3    H241451   0.511   0.627   4.203 -1.1670  0.3675  0.2309
 6654TIP3   OH241452   3.088   1.483  16.192  0.9475 -0.3349 -0.2370
 6654TIP3    H141453   3.102   1.479  16.097  1.7147  1.2047 -0.2077
 6654TIP3    H241454   3.170   1.519  16.226 -0.2958  1.6937  0.7217
 6655TIP3   OH241455   1.435   1.401   3.828 -0.1978 -0.1528 -0.7036
 6655TIP3    H141456   1.490   1.365   3.759  0.1952  1.3342 -1.1761
 6655TIP3    H241457   1.372   1.457   3.783 -1.0483 -0.5295 -0.0098
 6656TIP3   OH241458   1.461   0.714   1.699  0.3705  0.6775  0.4406
 6656TIP3    H141459   1.442   0.807   1.710  1.7347  1.0876 -0.5018
 6656TIP3    H241460   1.520   0.710   1.624 -1.9561 -1.2433 -1.3683
 6657TIP3   OH241461   3.511   6.655  12.446  0.3070  0.2528 -0.4150
 6657TIP3    H141462   3.469   6.578  12.409 -1.6530  1.9124 -1.7883
 6657TIP3    H241463   3.551   6.699  12.371  0.6587  1.0080  0.2077
 6658TIP3   OH241464   4.360   3.525   2.044  0.0863  0.0060  0.1250
 6658TIP3    H141465   4.289   3.585   2.021  1.1803  0.6942 -1.5687
 6658TIP3    H241466   4.356   3.457   1.977  0.0671 -0.7719  0.9162
 6659TIP3   OH241467   4.869   2.688   3.670  0.0259 -0.4757 -0.3975
 6659TIP3    H141468   4.788   2.649   3.703 -0.1918 -1.2412 -1.7864
 6659TIP3    H241469   4.937   2.624   3.690 -0.2786 -1.4577 -2.3713
 6660TIP3   OH241470   1.447   5.307  11.484 -0.0557  0.3947  0.0921
 6660TIP3    H141471   1.534   5.267  11.488  0.2091  1.0975  1.8085
 6660TIP3    H241472   1.401   5.257  11.417  1.3655 -0.5926 -0.1800
 6661TIP3   OH241473   2.848   5.018   4.504 -0.2435 -0.5744  0.5913
 6661TIP3    H141474   2.774   4.957   4.513 -1.3767  0.5882 -0.6422
 6661TIP3    H241475   2.831   5.064   4.423  0.9777  0.9144  1.1609
 6662TIP3   OH241476   6.512   2.231  16.546 -0.0413 -0.0924  0.2685
 6662TIP3    H141477   6.536   2.312  16.592 -0.6193 -0.8225  1.8991
 6662TIP3    H241478   6.416   2.230  16.546 -0.0500 -0.1380 -0.9145
 6663TIP3   OH241479   2.283   1.126  11.610 -0.2432 -0.0315  0.5581
 6663TIP3    H141480   2.224   1.182  11.660 -1.1175  0.0108 -0.5246
 6663TIP3    H241481   2.249   1.127  11.521  1.1260 -0.3660  0.0146
 6664TIP3   OH241482   3.734   4.573   0.810  0.1622 -0.0420 -0.6075
 6664TIP3    H141483   3.708   4.492   0.853  0.5021 -0.3471 -0.9732
 6664TIP3    H241484   3.825   4.586   0.837  0.3688 -0.2239 -1.2141
 6665TIP3   OH241485   1.901   2.481  14.886  0.1139  0.1095  0.4249
 6665TIP3    H141486   1.880   2.502  14.977 -1.8518  0.9644 -0.1988
 6665TIP3    H241487   1.817   2.487  14.840  1.0749 -0.3592 -1.4442
 6666TIP3   OH241488   3.723   1.349  13.843 -0.0022 -0.1615 -0.2443
 6666TIP3    H141489   3.769   1.421  13.885 -0.2112 -0.6462  0.8354
 6666TIP3    H241490   3.659   1.390  13.786 -0.0128  0.5034  0.2501
 6667TIP3   OH241491   4.106   6.785   2.664 -0.4513 -0.0226  0.3488
 6667TIP3    H141492   4.133   6.701   2.626 -0.1486 -0.7412  2.1181
 6667TIP3    H241493   4.183   6.841   2.654 -0.0342 -0.5136  0.8104
 6668TIP3   OH241494   5.878   3.005   2.476 -0.1141 -0.9632  0.1994
 6668TIP3    H141495   5.895   3.058   2.554 -3.2752  0.9610 -0.3054
 6668TIP3    H241496   5.812   2.941   2.505 -1.5775 -0.0033 -0.9247
 6669TIP3   OH241497   5.714   1.692  13.283 -1.1194  0.4179  0.2160
 6669TIP3    H141498   5.619   1.687  13.271 -0.8684 -0.0985 -1.7361
 6669TIP3    H241499   5.734   1.619  13.341 -1.7816 -0.2171 -0.3357
 6670TIP3   OH241500   1.060   6.531  11.724 -0.3220 -0.3227 -0.2688
 6670TIP3    H141501   1.053   6.608  11.780 -1.2220 -0.2153 -0.5298
 6670TIP3    H241502   1.102   6.465  11.780 -0.3828  0.0676  0.2398
 6671TIP3   OH241503   1.757   2.626  12.768 -0.2988 -0.1047 -0.0934
 6671TIP3    H141504   1.774   2.608  12.861  0.9912 -1.4582 -0.5845
 6671TIP3    H241505   1.673   2.583  12.751 -1.6065  1.9598  0.9615
 6672TIP3   OH241506   2.274   1.752   0.392 -0.6056  0.1502  0.0304
 6672TIP3    H141507   2.243   1.727   0.305  0.0197 -1.8472  0.3534
 6672TIP3    H241508   2.369   1.760   0.382 -0.5914  0.4742  0.3999
 6673TIP3   OH241509   3.862   4.566   2.011  0.7003  0.7868 -0.7911
 6673TIP3    H141510   3.851   4.480   1.970  2.1493  1.0966 -1.8467
 6673TIP3    H241511   3.785   4.575   2.067  1.4351 -2.0043  0.7765
 6674TIP3   OH241512   3.192   1.857  13.693 -0.1755  0.3503  0.4676
 6674TIP3    H141513   3.192   1.882  13.785 -1.5858  0.4640  0.4494
 6674TIP3    H241514   3.211   1.938  13.646  2.0121  0.0078  0.7058
 6675TIP3   OH241515   4.424   1.783  11.537 -0.4580 -0.8116  0.0602
 6675TIP3    H141516   4.483   1.722  11.493  1.0325  0.7388 -0.1262
 6675TIP3    H241517   4.419   1.752  11.627  1.2587 -0.5269  0.2701
 6676TIP3   OH241518   1.559   2.853  16.026  0.1860 -0.1135 -0.1481
 6676TIP3    H141519   1.553   2.870  16.120 -0.8436  1.2868 -0.4538
 6676TIP3    H241520   1.652   2.861  16.007  0.7776 -3.1717  1.2381
 6677TIP3   OH241521   2.377   0.671  12.099  0.2721  0.1426  0.4107
 6677TIP3    H141522   2.336   0.744  12.146  0.7060  0.0210  0.9839
 6677TIP3    H241523   2.399   0.707  12.013 -0.7016  0.3138  0.2230
 6678TIP3   OH241524   1.373   3.255   0.356  0.2043 -0.1075  0.0795
 6678TIP3    H141525   1.438   3.216   0.297  0.2435 -2.7109  1.7577
 6678TIP3    H241526   1.291   3.252   0.307  0.8447  0.7108 -1.0428
 6679TIP3   OH241527   5.395   1.358  16.722 -0.1933  0.4542  0.0268
 6679TIP3    H141528   5.355   1.387  16.804 -0.1427 -1.4251  0.7382
 6679TIP3    H241529   5.321   1.352  16.661 -0.4628  0.4065  0.3525
 6680TIP3   OH241530   0.747   0.730   6.591 -0.2529 -0.2293 -0.2181
 6680TIP3    H141531   0.706   0.775   6.517 -0.5773 -1.5709 -0.8767
 6680TIP3    H241532   0.806   0.795   6.629  0.4651  0.2491 -2.0954
 6681TIP3   OH241533   1.295   6.725   0.122 -0.4830 -0.0929  0.1663
 6681TIP3    H141534   1.277   6.712   0.028  0.5885 -0.9867  0.0780
 6681TIP3    H241535   1.375   6.777   0.125  1.9922 -3.7768  0.5683
 6682TIP3   OH241536   5.046   4.116  10.726  0.0955  0.4611 -0.2002
 6682TIP3    H141537   5.098   4.180  10.678 -1.4764  0.9950 -1.2088
 6682TIP3    H241538   4.964   4.109  10.677 -1.4061  0.7405  2.1918
 6683TIP3   OH241539   6.800   2.682   3.971  0.0740 -0.7265 -0.7071
 6683TIP3    H141540   6.792   2.588   3.984 -3.4361 -0.5879 -1.3045
 6683TIP3    H241541   6.801   2.718   4.060 -2.2663 -1.1362 -0.4807
 6684TIP3   OH241542   5.837   4.353  10.581 -0.5911  0.1145  0.0301
 6684TIP3    H141543   5.821   4.446  10.568  0.0982  0.4445  1.3724
 6684TIP3    H241544   5.759   4.321  10.626  0.0110  0.4953  1.3903
 6685TIP3   OH241545   2.871   2.278  13.629 -0.0236 -0.4339 -0.2291
 6685TIP3    H141546   2.893   2.317  13.545  1.6916 -2.3177 -0.6928
 6685TIP3    H241547   2.929   2.202  13.637 -1.4778 -1.4019  1.7906
 6686TIP3   OH241548   0.289   4.497   5.778 -0.0878  0.4254  0.2888
 6686TIP3    H141549   0.353   4.449   5.831  1.2620  0.3984 -1.3014
 6686TIP3    H241550   0.337   4.574   5.747 -1.7690  2.0186  1.5561
 6687TIP3   OH241551   4.965   2.302  13.651 -0.0823 -0.0381  0.1907
 6687TIP3    H141552   4.934   2.291  13.741 -3.1685  1.9607 -0.5561
 6687TIP3    H241553   5.016   2.382  13.652 -1.1684  0.6702 -0.0589
 6688TIP3   OH241554   2.354   0.587  11.790 -0.2590  0.1755 -0.2773
 6688TIP3    H141555   2.378   0.530  11.717 -1.6502  0.4184 -0.9487
 6688TIP3    H241556   2.296   0.534  11.844  1.3221 -0.2402  1.0553
 6689TIP3   OH241557   3.999   3.361   0.330 -0.4379 -0.7673 -0.2690
 6689TIP3    H141558   4.076   3.409   0.300 -0.7344 -0.6064 -0.7811
 6689TIP3    H241559   4.023   3.269   0.320  0.8868 -0.7981  2.6096
 6690TIP3   OH241560   4.543   1.990  11.994 -0.5925 -0.1681  0.3297
 6690TIP3    H141561   4.607   2.059  12.011 -0.9399  0.4025 -0.6582
 6690TIP3    H241562   4.458   2.030  12.012 -0.9124  0.1693 -1.7457
 6691TIP3   OH241563   3.092   3.582  12.418  0.0190 -0.1745  0.2521
 6691TIP3    H141564   3.148   3.538  12.481 -1.6765 -0.2826  1.7139
 6691TIP3    H241565   3.111   3.675  12.430  0.2618 -0.2410  0.3770
 6692TIP3   OH241566   5.271   0.825  14.803 -0.4181  0.4950  0.2518
 6692TIP3    H141567   5.331   0.892  14.836  2.3031 -1.7478  0.1218
 6692TIP3    H241568   5.273   0.757  14.870  0.0087 -1.1992 -1.4504
 6693TIP3   OH241569   4.025   5.116   0.173  0.3227  0.0853  0.5615
 6693TIP3    H141570   4.100   5.061   0.197 -0.7846 -0.7678  2.1339
 6693TIP3    H241571   3.951   5.056   0.168 -1.0017  1.4552  2.7443
 6694TIP3   OH241572   6.207   5.727   1.142  0.0203 -0.5054 -0.2499
 6694TIP3    H141573   6.269   5.790   1.179 -0.9754  1.8921 -2.5753
 6694TIP3    H241574   6.128   5.737   1.196  0.8933 -2.0601  1.3718
 6695TIP3   OH241575   4.054   5.081  10.940  0.5300 -0.4850 -1.1307
 6695TIP3    H141576   4.053   4.987  10.955 -1.2168 -0.2762  0.1684
 6695TIP3    H241577   4.135   5.097  10.891  1.2402 -2.5346 -0.6468
 6696TIP3   OH241578   3.979   0.536   1.293  0.5855 -0.0466 -0.1952
 6696TIP3    H141579   3.965   0.481   1.216 -1.1542 -0.1640  0.1897
 6696TIP3    H241580   4.036   0.484   1.350  1.1878 -0.3068 -1.0293
 6697TIP3   OH241581   4.217   2.262  17.269  0.3177 -0.2210 -0.1159
 6697TIP3    H141582   4.236   2.342  17.318 -0.2527  1.0198 -1.8788
 6697TIP3    H241583   4.264   2.272  17.186  0.7640 -2.0050 -0.0952
 6698TIP3   OH241584   0.579   5.929   5.652  0.0107 -0.4488  0.3292
 6698TIP3    H141585   0.580   5.959   5.742 -3.4539 -1.1679  0.6823
 6698TIP3    H241586   0.552   6.006   5.601 -0.3529 -0.6661  0.1917
 6699TIP3   OH241587   4.398   2.956   1.970  0.4048  0.5870  0.0820
 6699TIP3    H141588   4.440   3.043   1.973 -0.3426  1.0287 -1.7913
 6699TIP3    H241589   4.304   2.974   1.976  0.2771 -0.1608  0.4269
 6700TIP3   OH241590   6.110   2.009  16.066  1.0242 -0.6016 -0.5378
 6700TIP3    H141591   6.046   2.000  15.996  1.5517 -2.3692 -0.8272
 6700TIP3    H241592   6.102   1.928  16.117  1.2676  0.2622  0.9282
 6701TIP3   OH241593   1.076   3.650   5.726 -0.3046 -0.0747 -0.0544
 6701TIP3    H141594   1.046   3.659   5.816 -2.5423 -1.1320 -0.6424
 6701TIP3    H241595   1.031   3.719   5.678  2.5225  1.8608 -0.0368
 6702TIP3   OH241596   1.438   3.279  13.274  0.2267 -0.4505 -0.1196
 6702TIP3    H141597   1.416   3.368  13.246  0.5551 -0.1498  0.5862
 6702TIP3    H241598   1.450   3.286  13.369  2.2985 -0.8336 -0.3454
 6703TIP3   OH241599   6.043   6.050   0.654 -0.2901  0.5221  0.1968
 6703TIP3    H141600   6.028   6.010   0.740  3.6775 -1.6070  0.0194
 6703TIP3    H241601   6.014   5.984   0.591  3.4499 -0.9595 -0.0746
 6704TIP3   OH241602   3.320   1.317   2.255 -0.0800  0.3171  0.2532
 6704TIP3    H141603   3.242   1.373   2.259  0.1208  0.5688  0.7010
 6704TIP3    H241604   3.376   1.359   2.190  0.3675  1.0256  1.0844
 6705TIP3   OH241605   3.389   1.849   4.755  0.7879 -0.4535 -0.2399
 6705TIP3    H141606   3.455   1.796   4.798  0.0607 -1.4291 -0.3098
 6705TIP3    H241607   3.307   1.802   4.769 -0.0278  1.1391  0.5365
 6706TIP3   OH241608   2.105   2.359   4.818 -0.8340  0.6406  0.7789
 6706TIP3    H141609   2.089   2.267   4.842 -1.1486 -0.4443 -3.2240
 6706TIP3    H241610   2.017   2.396   4.809 -0.7182  0.9084  0.7678
 6707TIP3   OH241611   6.245   2.394  13.825 -0.2019 -0.1332 -0.2435
 6707TIP3    H141612   6.201   2.473  13.855 -0.6407 -0.3261 -0.3674
 6707TIP3    H241613   6.175   2.328  13.823  0.4360 -0.8839  1.2587
 6708TIP3   OH241614   5.574   4.829  13.121  0.0191 -0.2383  0.2750
 6708TIP3    H141615   5.532   4.758  13.071 -0.9392  1.2690 -1.1018
 6708TIP3    H241616   5.539   4.819  13.210 -0.9673 -0.8266 -0.1621
 6709TIP3   OH241617   4.658   0.023   2.097  0.0135  0.3577 -0.4435
 6709TIP3    H141618   4.565   0.004   2.106 -0.0107  0.6169 -0.1744
 6709TIP3    H241619   4.666   0.058   2.008 -0.3497  1.5962  0.0121
 6710TIP3   OH241620   3.158   5.693  10.887  0.6294  0.3967  0.5678
 6710TIP3    H141621   3.193   5.617  10.840  0.1126  0.1373  0.5952
 6710TIP3    H241622   3.074   5.711  10.845  0.9701  1.2465  0.2576
 6711TIP3   OH241623   1.298   0.364  11.726 -0.2025 -0.0098  0.2785
 6711TIP3    H141624   1.360   0.385  11.796 -0.0283  0.3893  0.0071
 6711TIP3    H241625   1.345   0.384  11.645 -0.9639  1.0625  0.0861
 6712TIP3   OH241626   5.406   5.816   4.849 -0.1943  0.2486  0.2452
 6712TIP3    H141627   5.456   5.734   4.845 -0.4098  0.0992  0.5308
 6712TIP3    H241628   5.441   5.861   4.926 -0.4758  0.1550  0.4307
 6713TIP3   OH241629   0.104   4.366  16.590 -0.4355 -0.0136  0.1993
 6713TIP3    H141630   0.197   4.348  16.578 -0.1010  1.7483 -0.0299
 6713TIP3    H241631   0.082   4.426  16.519 -1.6663 -0.1247  0.4685
 6714TIP3   OH241632   0.749   1.246   2.527 -0.3747 -0.0958  0.0804
 6714TIP3    H141633   0.713   1.329   2.559 -0.3608 -0.4818  1.1239
 6714TIP3    H241634   0.701   1.228   2.447 -1.7963 -0.0859  0.9058
 6715TIP3   OH241635   4.069   6.649  14.792  0.0418 -1.0755 -0.6233
 6715TIP3    H141636   4.068   6.653  14.888  2.1009 -2.4656 -0.5114
 6715TIP3    H241637   4.047   6.558  14.772  0.7654 -1.0811 -1.4150
 6716TIP3   OH241638   1.518   0.200   4.111  0.1297  0.0666 -0.3787
 6716TIP3    H141639   1.473   0.217   4.029  1.6800  2.8615 -0.7446
 6716TIP3    H241640   1.456   0.227   4.179 -1.3340 -2.7004 -0.5705
 6717TIP3   OH241641   1.956   0.487   0.201  0.8050 -0.7875 -0.2050
 6717TIP3    H141642   1.938   0.579   0.222 -1.4366 -0.8507 -1.6791
 6717TIP3    H241643   2.017   0.458   0.269 -0.1586  1.1863  1.5421
 6718TIP3   OH241644   4.410   2.649   3.273  0.0476 -0.1657 -0.5367
 6718TIP3    H141645   4.343   2.653   3.341  0.1909 -0.2480 -0.3883
 6718TIP3    H241646   4.363   2.667   3.191 -0.0810  0.1993 -0.3863
 6719TIP3   OH241647   6.728   4.312   2.080  0.7634  0.7777 -0.0617
 6719TIP3    H141648   6.718   4.372   2.155  1.2053  0.0580  0.5807
 6719TIP3    H241649   6.802   4.348   2.031  0.8800  0.8896  0.1940
 6720TIP3   OH241650   0.169   4.997  15.870  0.3631  0.1181 -0.1679
 6720TIP3    H141651   0.152   4.924  15.930  0.9611 -0.1528 -0.3209
 6720TIP3    H241652   0.254   4.976  15.830 -0.7649 -0.5347 -2.3240
 6721TIP3   OH241653   3.665   0.452   1.744 -0.7401 -0.3209 -0.4419
 6721TIP3    H141654   3.717   0.442   1.824 -1.3549 -0.9926 -0.1208
 6721TIP3    H241655   3.576   0.467   1.775 -0.4819  2.5384 -0.9722
 6722TIP3   OH241656   6.112   3.686   6.758  0.3530 -0.1628 -0.0726
 6722TIP3    H141657   6.072   3.733   6.831  1.4323  0.5731  0.0494
 6722TIP3    H241658   6.163   3.752   6.712 -1.4843 -0.2976 -2.3620
 6723TIP3   OH241659   4.238   5.355   6.403 -0.0772 -0.6256  0.1019
 6723TIP3    H141660   4.302   5.314   6.345  1.3433 -0.3365  1.4150
 6723TIP3    H241661   4.245   5.305   6.485  1.2008  1.7611  1.5042
 6724TIP3   OH241662   0.797   1.550   0.460  0.0128 -0.3169  0.4832
 6724TIP3    H141663   0.705   1.564   0.479  0.4910  2.6825  0.7858
 6724TIP3    H241664   0.838   1.538   0.545  0.0739 -0.4769  0.4317
 6725TIP3   OH241665   6.078   4.550   3.470 -0.2331 -0.4875 -0.2855
 6725TIP3    H141666   6.055   4.630   3.518 -0.6646 -0.9547  0.2980
 6725TIP3    H241667   6.121   4.495   3.536  0.5917 -0.4955 -0.8312
 6726TIP3   OH241668   2.348   4.625   4.106 -0.6524 -0.3027 -0.1566
 6726TIP3    H141669   2.271   4.666   4.066 -0.8754  2.2024  2.6098
 6726TIP3    H241670   2.336   4.531   4.091 -2.7944  0.2448 -2.2277
 6727TIP3   OH241671   0.232   1.699  11.721  0.2450  0.2133 -0.0375
 6727TIP3    H141672   0.144   1.701  11.683  0.3926 -0.8200 -0.4585
 6727TIP3    H241673   0.220   1.727  11.811 -0.8443 -1.9210  0.5126
 6728TIP3   OH241674   3.769   0.879   0.954 -0.5293 -0.3499  0.0462
 6728TIP3    H141675   3.773   0.785   0.973 -1.7869 -0.4483 -0.0809
 6728TIP3    H241676   3.815   0.889   0.871 -0.5166 -0.8874 -0.0159
 6729TIP3   OH241677   6.159   0.891   1.426  0.6827 -0.9382  0.2583
 6729TIP3    H141678   6.080   0.898   1.480 -0.2583  0.5039 -1.2600
 6729TIP3    H241679   6.230   0.881   1.489 -0.2520  1.9197  1.8545
 6730TIP3   OH241680   1.309   5.359   6.352 -0.5580 -0.1410  0.3769
 6730TIP3    H141681   1.403   5.341   6.350 -0.5803 -0.1980 -0.8947
 6730TIP3    H241682   1.270   5.281   6.392 -0.0655 -0.1071  0.9213
 6731TIP3   OH241683   1.852   5.049  11.924 -0.1243 -0.3871 -0.0647
 6731TIP3    H141684   1.944   5.025  11.932 -0.6190 -1.5302  2.8404
 6731TIP3    H241685   1.850   5.118  11.857  2.7847 -0.5188 -0.3250
 6732TIP3   OH241686   6.296   1.337   0.445  0.2256 -0.2799 -0.9912
 6732TIP3    H141687   6.202   1.326   0.431  0.3176 -0.6240 -1.3404
 6732TIP3    H241688   6.304   1.361   0.537 -0.4039  2.2921 -1.5792
 6733TIP3   OH241689   0.040   4.737   4.498  0.0365  0.0985 -0.5798
 6733TIP3    H141690  -0.008   4.660   4.467  0.6845 -1.5254  2.2523
 6733TIP3    H241691  -0.016   4.811   4.475 -1.3589 -1.3482 -1.9540
 6734TIP3   OH241692   0.656   6.545  15.256 -0.4252 -0.0030 -0.5237
 6734TIP3    H141693   0.613   6.542  15.341  0.1250  1.8180 -0.1538
 6734TIP3    H241694   0.632   6.631  15.220  2.3157  0.7831 -0.5913
 6735TIP3   OH241695   3.844   1.410  14.582  0.3163  0.2763  0.4921
 6735TIP3    H141696   3.828   1.317  14.596  2.2615 -0.2507 -0.6113
 6735TIP3    H241697   3.780   1.436  14.516 -0.1405 -0.3048  0.7068
 6736TIP3   OH241698   0.265   1.142  11.970 -0.0568 -0.2952 -0.1479
 6736TIP3    H141699   0.268   1.229  12.010 -1.5071  0.0636 -0.7844
 6736TIP3    H241700   0.328   1.146  11.899 -1.6735  0.9776 -1.5600
 6737TIP3   OH241701   2.475   4.013   0.474  0.1491  0.2234  0.1739
 6737TIP3    H141702   2.553   4.049   0.431 -1.4263  1.6452 -1.5475
 6737TIP3    H241703   2.452   3.936   0.423  0.2330 -0.0099  0.4859
 6738TIP3   OH241704   0.726   4.763  14.054 -0.2553 -0.1320 -0.3779
 6738TIP3    H141705   0.776   4.817  14.116 -0.2338 -0.8840  0.2711
 6738TIP3    H241706   0.788   4.745  13.983  1.2075 -2.9800  1.5053
 6739TIP3   OH241707   6.411   2.425  12.796  0.0826  0.2112 -0.4017
 6739TIP3    H141708   6.413   2.460  12.706 -1.5955 -0.7200 -0.8112
 6739TIP3    H241709   6.464   2.345  12.792 -0.1623  0.0604 -0.6031
 6740TIP3   OH241710   5.447   3.923  16.825  0.4819 -0.4162  0.1706
 6740TIP3    H141711   5.399   3.878  16.755 -1.5011 -0.3024  1.4204
 6740TIP3    H241712   5.409   3.889  16.906  0.8595  1.4599  1.1592
 6741TIP3   OH241713   5.608   1.978  13.826  0.0222 -0.0400 -0.1492
 6741TIP3    H141714   5.646   1.944  13.745 -0.1677 -0.6266  0.0021
 6741TIP3    H241715   5.575   2.064  13.804  0.6615  0.1174 -0.5080
 6742TIP3   OH241716   4.943   2.854  13.853  0.4305  0.3466  0.1393
 6742TIP3    H141717   4.901   2.910  13.919  0.7352  1.5710 -0.6825
 6742TIP3    H241718   4.883   2.854  13.779 -0.4009 -1.8749  0.7848
 6743TIP3   OH241719   0.282   1.730  12.340  0.3138  0.2080  0.5826
 6743TIP3    H141720   0.359   1.759  12.390 -1.2243 -0.9005  3.7467
 6743TIP3    H241721   0.211   1.785  12.372 -0.7627 -0.7261 -0.1782
 6744TIP3   OH241722   5.189   2.722   3.876  0.3198 -0.2906 -0.3341
 6744TIP3    H141723   5.274   2.713   3.919  1.1454  0.6588 -1.7307
 6744TIP3    H241724   5.184   2.646   3.817 -0.1688 -0.7905  0.3414
 6745TIP3   OH241725   1.162   4.325  11.673  0.3089 -0.3295 -0.3010
 6745TIP3    H141726   1.250   4.363  11.671 -0.2420  1.0093  0.0004
 6745TIP3    H241727   1.141   4.319  11.766  0.2144 -0.9774 -0.3620
 6746TIP3   OH241728   3.338   1.400   0.138 -0.1332 -0.3254  0.0376
 6746TIP3    H141729   3.422   1.406   0.184 -0.4147  1.6824  0.3512
 6746TIP3    H241730   3.273   1.407   0.208 -0.5701 -1.2389 -0.2720
 6747TIP3   OH241731   2.914   3.470  14.354 -0.2362  0.4445 -0.7170
 6747TIP3    H141732   2.979   3.515  14.299  1.1956 -0.9176 -0.1641
 6747TIP3    H241733   2.963   3.440  14.430 -1.5518 -0.4750 -0.2160
 6748TIP3   OH241734   3.679   1.335   2.866  0.0578  1.1060  0.4310
 6748TIP3    H141735   3.737   1.263   2.893  0.5335  1.1651 -0.4244
 6748TIP3    H241736   3.594   1.311   2.902 -0.0960 -0.5625 -0.9717
 6749TIP3   OH241737   5.859   1.881   2.296 -0.3294  0.6168  0.0482
 6749TIP3    H141738   5.890   1.960   2.341  0.7833  0.4267 -0.3670
 6749TIP3    H241739   5.767   1.899   2.278 -0.8702  0.6081  2.5888
 6750TIP3   OH241740   1.585   6.312  14.956  0.1079  0.4062 -0.4821
 6750TIP3    H141741   1.658   6.270  15.002 -0.2386 -1.0319 -1.2250
 6750TIP3    H241742   1.507   6.283  15.003  0.0231  2.3247  0.6061
 6751TIP3   OH241743   5.001   2.344  14.403  0.0617 -0.3847  0.7611
 6751TIP3    H141744   5.002   2.417  14.341  1.0896 -1.3621 -0.4267
 6751TIP3    H241745   4.959   2.273  14.355  1.1189 -1.2377  1.0685
 6752TIP3   OH241746   4.245   4.815   3.302 -0.8462 -0.4995  0.2806
 6752TIP3    H141747   4.303   4.874   3.351 -1.1833 -1.3730  1.7605
 6752TIP3    H241748   4.243   4.852   3.214 -1.6315  2.1474  1.3554
 6753TIP3   OH241749   5.903   0.453  15.033 -0.4375  0.5963 -0.1809
 6753TIP3    H141750   5.838   0.412  15.090 -0.4164  0.8749  0.0422
 6753TIP3    H241751   5.906   0.397  14.956 -2.5528  1.7657 -1.1564
 6754TIP3   OH241752   1.822   0.260  13.373 -0.1734 -0.0948 -0.1353
 6754TIP3    H141753   1.847   0.326  13.309 -2.2362  0.8425 -0.0233
 6754TIP3    H241754   1.866   0.180  13.344  0.8603  0.8911 -1.3281
 6755TIP3   OH241755   1.028   5.136  16.325  0.6590  0.5819  0.3989
 6755TIP3    H141756   1.077   5.179  16.255 -0.2998  0.8885 -0.0925
 6755TIP3    H241757   1.015   5.205  16.391  2.6805 -0.0328  1.4883
 6756TIP3   OH241758   2.460   4.637   3.298 -0.2163  0.5196  0.0817
 6756TIP3    H141759   2.516   4.577   3.346 -1.3013 -1.8147 -1.5041
 6756TIP3    H241760   2.495   4.638   3.209 -1.1143  1.0683 -0.2829
 6757TIP3   OH241761   4.074   3.700   4.476 -0.0479 -0.4473 -0.5374
 6757TIP3    H141762   3.986   3.728   4.501  0.6704  0.9497  0.4374
 6757TIP3    H241763   4.082   3.612   4.513  0.0617  0.5894  2.0021
 6758TIP3   OH241764   1.411   2.489  10.961  0.2835 -0.3134 -0.1219
 6758TIP3    H141765   1.464   2.419  10.923  0.6045 -0.0074 -0.2392
 6758TIP3    H241766   1.471   2.563  10.968 -0.2225  0.1475 -0.6014
 6759TIP3   OH241767   0.044   1.750   3.802 -0.6021 -0.0822 -0.0245
 6759TIP3    H141768  -0.001   1.798   3.732  0.6948  1.4960  0.1960
 6759TIP3    H241769   0.009   1.789   3.883  0.2274  0.2680  0.1633
 6760TIP3   OH241770   5.354   4.954  14.597 -0.6736  0.2849  0.1767
 6760TIP3    H141771   5.336   4.874  14.546 -1.9626  1.1169 -0.7051
 6760TIP3    H241772   5.423   4.999  14.548  0.2175 -0.3894  0.7976
 6761TIP3   OH241773   0.164   1.160   1.692 -0.1752 -0.3715  0.1285
 6761TIP3    H141774   0.174   1.068   1.716 -0.4394 -0.5459 -0.4073
 6761TIP3    H241775   0.117   1.199   1.765 -1.1694 -0.9396 -0.2027
 6762TIP3   OH241776   1.105   4.566  12.258  0.3367  0.2506 -0.1577
 6762TIP3    H141777   1.101   4.472  12.277  1.3376  0.4759  1.2428
 6762TIP3    H241778   1.185   4.577  12.208 -0.5416  0.1600 -1.6086
 6763TIP3   OH241779   5.781   2.040   4.240  0.3638 -0.3115 -0.2673
 6763TIP3    H141780   5.850   1.997   4.190  0.7009 -1.3740  1.0899
 6763TIP3    H241781   5.823   2.119   4.276  0.5441 -0.3424 -0.4101
 6764TIP3   OH241782   6.364   2.368  11.405 -0.3529 -0.0096 -0.5194
 6764TIP3    H141783   6.361   2.272  11.401  0.1728 -0.0174 -0.7721
 6764TIP3    H241784   6.275   2.394  11.428 -0.1730 -0.6213  0.9290
 6765TIP3   OH241785   0.098   1.149   5.914 -0.0526  0.0841  0.4609
 6765TIP3    H141786   0.076   1.214   5.846  1.8601  0.2119 -0.0796
 6765TIP3    H241787   0.049   1.071   5.889 -0.9239  0.7500  0.0538
 6766TIP3   OH241788   4.505   5.070   4.717 -0.1929 -0.0982 -0.4494
 6766TIP3    H141789   4.522   5.145   4.775  1.5648 -1.8072  1.3145
 6766TIP3    H241790   4.442   5.017   4.766  0.8141 -1.2286 -0.3672
 6767TIP3   OH241791   2.633   3.089   4.704  0.0416 -0.6454  0.5132
 6767TIP3    H141792   2.643   3.093   4.799 -0.7136 -1.5400  0.6405
 6767TIP3    H241793   2.723   3.081   4.670  0.3200 -0.1593  1.1414
 6768TIP3   OH241794   3.243   4.661  12.898  0.5299 -0.4467 -0.8818
 6768TIP3    H141795   3.337   4.681  12.894  0.0622  2.0831  0.2505
 6768TIP3    H241796   3.231   4.623  12.985  0.1492  1.3159 -0.1402
 6769TIP3   OH241797   5.313   2.132  11.998  0.0697  0.3997 -0.1556
 6769TIP3    H141798   5.276   2.075  11.931  1.4588  0.6104 -1.1040
 6769TIP3    H241799   5.395   2.090  12.023  0.2300  1.0529  0.4268
 6770TIP3   OH241800   3.697   4.974   1.730  0.0632  0.0181  0.5899
 6770TIP3    H141801   3.779   4.958   1.777  0.6583 -0.0793 -0.4615
 6770TIP3    H241802   3.722   4.974   1.638 -0.8939  1.3315  0.3112
 6771TIP3   OH241803   2.358   3.010  14.068  0.4191 -0.3530  0.4238
 6771TIP3    H141804   2.337   2.991  13.977 -0.7000  1.3891  0.2922
 6771TIP3    H241805   2.293   2.962  14.119 -1.1863  1.4763  0.1598
 6772TIP3   OH241806   0.455   6.429   0.866  0.1874  0.0293  0.2765
 6772TIP3    H141807   0.452   6.499   0.801 -0.6146 -0.8710 -0.6861
 6772TIP3    H241808   0.381   6.446   0.924 -0.5779 -0.5336 -0.5193
 6773TIP3   OH241809   2.070   2.708   6.130 -0.4132  0.2126  0.0821
 6773TIP3    H141810   2.124   2.659   6.192  0.2707  0.5594 -0.2382
 6773TIP3    H241811   1.998   2.648   6.109  0.1591 -0.4667  0.0593
 6774TIP3   OH241812   1.958   6.358   3.340 -0.5274  0.0749  0.2860
 6774TIP3    H141813   2.046   6.321   3.353 -1.0696 -1.2072  0.3577
 6774TIP3    H241814   1.901   6.303   3.393 -1.8320 -1.1375 -2.2736
 6775TIP3   OH241815   6.439   1.132  15.369  0.5972  0.3362 -0.2325
 6775TIP3    H141816   6.372   1.161  15.307  0.9719  2.8033  0.4670
 6775TIP3    H241817   6.521   1.161  15.331  1.2307 -1.7844 -0.5753
 6776TIP3   OH241818   6.421   5.097   0.741  0.8420 -0.0325  0.2073
 6776TIP3    H141819   6.471   5.174   0.766  1.5611 -0.5048  0.2320
 6776TIP3    H241820   6.345   5.097   0.799  0.3372  1.1995 -0.4561
 6777TIP3   OH241821   3.138   1.533   5.274  0.0161 -0.3210 -0.1918
 6777TIP3    H141822   3.110   1.447   5.305  0.1355  0.5326  2.3289
 6777TIP3    H241823   3.225   1.518   5.236 -0.3570 -1.4764 -0.6018
 6778TIP3   OH241824   2.647   6.027  14.833 -0.3741  0.4503  0.1186
 6778TIP3    H141825   2.704   6.078  14.775 -0.1196  0.3888  0.3181
 6778TIP3    H241826   2.701   6.006  14.909 -0.6843  0.4564  0.3428
 6779TIP3   OH241827   5.613   4.403   0.747 -0.0543 -0.1944 -0.2059
 6779TIP3    H141828   5.593   4.309   0.745 -1.7577  0.1819 -1.6132
 6779TIP3    H241829   5.528   4.446   0.753  0.7288  1.2685  0.7687
 6780TIP3   OH241830   1.861   4.165  14.299 -0.6902 -0.0337  0.1766
 6780TIP3    H141831   1.766   4.165  14.304 -0.7841  2.2989 -0.6763
 6780TIP3    H241832   1.887   4.251  14.331  1.0190 -0.1005 -0.9226
 6781TIP3   OH241833   0.523   4.964   1.699  0.4137 -0.6540  0.0149
 6781TIP3    H141834   0.616   4.942   1.705  0.5286 -0.3555 -0.6014
 6781TIP3    H241835   0.520   5.058   1.719 -0.0161 -1.1135  2.1736
 6782TIP3   OH241836   4.709   6.729  11.869 -0.8937  0.0570  1.2652
 6782TIP3    H141837   4.798   6.764  11.862 -1.0220  0.8190  3.1704
 6782TIP3    H241838   4.663   6.768  11.795 -0.6061  2.7629  2.4472
 6783TIP3   OH241839   4.010   6.355  14.639  0.5802 -0.6317  0.1543
 6783TIP3    H141840   3.917   6.347  14.620 -0.1039  1.1125  2.5368
 6783TIP3    H241841   4.029   6.281  14.698  0.0567  0.5215  1.8093
 6784TIP3   OH241842   6.207   5.996   1.481  0.0681  0.0368 -0.2190
 6784TIP3    H141843   6.118   5.983   1.515  0.7849 -1.8583  1.0828
 6784TIP3    H241844   6.198   5.997   1.386 -1.5657  1.7129 -0.0498
 6785TIP3   OH241845   2.038   2.820   3.989  0.5240 -0.1898 -0.4354
 6785TIP3    H141846   1.988   2.901   4.000 -1.1970 -1.4031  1.0139
 6785TIP3    H241847   2.109   2.844   3.930  1.2523  2.8981  1.5714
 6786TIP3   OH241848   4.227   4.240   2.557  0.3324 -0.7024  0.1791
 6786TIP3    H141849   4.259   4.195   2.636 -0.7716 -0.0412  1.0014
 6786TIP3    H241850   4.143   4.277   2.582  0.1248 -0.1960 -1.2200
 6787TIP3   OH241851   4.633   3.384   0.987  0.3422  0.7952 -0.2066
 6787TIP3    H141852   4.598   3.308   0.942  0.3095  0.7177 -0.0506
 6787TIP3    H241853   4.557   3.438   1.007  0.5259  1.6331 -1.7276
 6788TIP3   OH241854   6.793   1.155   2.678  0.0117  0.1153 -0.4954
 6788TIP3    H141855   6.711   1.197   2.650 -0.2196 -0.4515 -0.6933
 6788TIP3    H241856   6.852   1.165   2.603  0.0094  0.2298 -0.4818
 6789TIP3   OH241857   1.841   0.846  12.940  0.5876  0.5935  0.1094
 6789TIP3    H141858   1.917   0.903  12.924 -0.4019  1.6595 -0.8956
 6789TIP3    H241859   1.766   0.906  12.940 -0.3836 -0.6041 -0.0913
 6790TIP3   OH241860   1.705   0.154  15.147 -0.5999  0.0338  0.4290
 6790TIP3    H141861   1.624   0.174  15.193 -0.1872  0.6705  0.8940
 6790TIP3    H241862   1.758   0.233  15.157  0.9275 -1.1371  1.9760
 6791TIP3   OH241863   4.084   5.350   2.854  0.6801  0.8254 -0.0219
 6791TIP3    H141864   4.068   5.444   2.851 -0.4812  0.6687  0.8680
 6791TIP3    H241865   4.024   5.313   2.789  0.3208  0.6027  0.4319
 6792TIP3   OH241866   2.475   1.563   5.256  0.0421 -0.5459 -0.2023
 6792TIP3    H141867   2.497   1.597   5.342 -0.7951 -1.2172  0.2886
 6792TIP3    H241868   2.405   1.499   5.272 -0.8427  0.0672 -1.4794
 6793TIP3   OH241869   1.664   2.112   4.925 -0.6287  0.2748  0.0295
 6793TIP3    H141870   1.638   2.022   4.944 -0.8523  0.0635 -1.1836
 6793TIP3    H241871   1.595   2.144   4.866  0.2501  0.7303 -0.7529
 6794TIP3   OH241872   2.432   2.496  14.117  0.0274  0.0204  0.0816
 6794TIP3    H141873   2.343   2.501  14.083 -0.4424 -1.1814  1.0962
 6794TIP3    H241874   2.431   2.549  14.197  0.5101  0.9039 -0.4957
 6795TIP3   OH241875   2.378   0.631   3.994  0.1390  0.3379 -0.2962
 6795TIP3    H141876   2.417   0.603   4.077 -0.6309 -0.2241 -0.1145
 6795TIP3    H241877   2.420   0.575   3.928 -0.8107 -0.7315 -0.0237
 6796TIP3   OH241878   4.755   3.005  12.038 -0.3105  0.2144 -0.1003
 6796TIP3    H141879   4.686   2.975  11.981 -0.0905  1.5608 -1.1137
 6796TIP3    H241880   4.782   3.090  12.001  0.8073  0.4374  1.1578
 6797TIP3   OH241881   4.859   6.440  12.677 -0.1889  0.2818  0.2583
 6797TIP3    H141882   4.891   6.361  12.720 -1.4014  0.3577  1.3357
 6797TIP3    H241883   4.855   6.418  12.584  0.0892 -0.7071  0.4756
 6798TIP3   OH241884   2.345   1.814   4.072  0.3925  0.5508  0.0301
 6798TIP3    H141885   2.325   1.858   3.990 -0.0940 -0.5781 -0.4655
 6798TIP3    H241886   2.279   1.846   4.134  0.0005  0.4625 -0.3444
 6799TIP3   OH241887   1.263   3.517  16.037  0.1330  0.2764 -0.2489
 6799TIP3    H141888   1.177   3.523  15.996  0.1591  0.5651 -0.2571
 6799TIP3    H241889   1.319   3.479  15.969 -0.1019 -0.3992 -0.0748
 6800TIP3   OH241890   3.264   6.411   5.404 -0.0082 -0.4611  0.2885
 6800TIP3    H141891   3.316   6.426   5.326 -0.0494 -0.2417  0.3028
 6800TIP3    H241892   3.207   6.337   5.381  0.9664 -1.3231  0.5963
 6801TIP3   OH241893   6.663   6.370  14.355 -0.2201 -0.0726  0.6311
 6801TIP3    H141894   6.750   6.338  14.382  0.8416  2.0686 -0.0896
 6801TIP3    H241895   6.682   6.449  14.303 -2.6699  1.2741  1.7034
 6802TIP3   OH241896   5.037   0.645  16.778 -0.4858  0.2097 -0.0288
 6802TIP3    H141897   5.037   0.550  16.794  0.7447  0.2742  0.4018
 6802TIP3    H241898   5.036   0.684  16.865  0.0214  0.5919 -0.1936
 6803TIP3   OH241899   6.574   5.586  11.201  0.2597 -0.0575 -0.5190
 6803TIP3    H141900   6.552   5.573  11.108  2.1394 -0.5636 -0.9125
 6803TIP3    H241901   6.638   5.657  11.200  0.8166 -0.5418  0.3107
 6804TIP3   OH241902   1.215   4.754   4.983 -0.0359 -0.9517  0.0851
 6804TIP3    H141903   1.138   4.804   4.956 -0.2579 -0.5913  1.3510
 6804TIP3    H241904   1.180   4.675   5.022  0.2857 -1.5090 -0.7395
 6805TIP3   OH241905   3.581   6.456   3.577 -0.1337  0.6737 -0.3687
 6805TIP3    H141906   3.664   6.409   3.570 -1.1398 -1.6128  1.9985
 6805TIP3    H241907   3.540   6.445   3.492  1.0923  0.0618 -0.8985
 6806TIP3   OH241908   3.669   0.849  11.289 -0.0151  0.3797 -0.1620
 6806TIP3    H141909   3.708   0.840  11.202 -1.7691 -0.6657 -0.8618
 6806TIP3    H241910   3.714   0.784  11.343 -0.7217 -0.7640 -0.9430
 6807TIP3   OH241911   0.100   0.984   4.021  0.0711 -0.2771  0.6111
 6807TIP3    H141912   0.029   1.037   3.984  1.5209  0.5831 -0.9630
 6807TIP3    H241913   0.077   0.894   3.997 -1.5152 -0.2221  1.8394
 6808TIP3   OH241914   5.072   1.896   2.347 -1.0831  0.4133 -0.3059
 6808TIP3    H141915   5.008   1.914   2.415  0.2290 -0.8824  1.3142
 6808TIP3    H241916   5.120   1.978   2.335 -1.1543  0.5753  0.5305
 6809TIP3   OH241917   2.081   1.034   1.820 -0.3692 -0.1779 -0.2818
 6809TIP3    H141918   2.140   1.109   1.822  1.7929 -1.8528 -0.0498
 6809TIP3    H241919   2.138   0.959   1.802 -2.7174 -1.5464 -2.3045
 6810TIP3   OH241920   2.144   6.061  15.745  0.4097  0.0666  0.2722
 6810TIP3    H141921   2.055   6.026  15.741  0.6611 -0.6593  0.9269
 6810TIP3    H241922   2.190   6.003  15.806  1.0585  1.0270  0.7089
 6811TIP3   OH241923   2.765   4.273   3.777 -0.1555  0.5034 -0.1604
 6811TIP3    H141924   2.820   4.263   3.855 -0.0744  0.8801 -0.1684
 6811TIP3    H241925   2.771   4.366   3.755 -0.8727  0.5646 -0.1089
 6812TIP3   OH241926   6.666   0.010  10.798 -0.1132  0.2197 -0.4130
 6812TIP3    H141927   6.746   0.050  10.765 -1.1000  1.5267 -1.2488
 6812TIP3    H241928   6.652  -0.066  10.741 -0.0468  0.5963 -0.9275
 6813TIP3   OH241929   5.921   1.663   1.750  0.3565 -0.3212  0.5568
 6813TIP3    H141930   6.010   1.649   1.719 -1.1024 -0.5982 -3.8303
 6813TIP3    H241931   5.879   1.577   1.746 -0.6719  0.1606  0.5773
 6814TIP3   OH241932   5.347   4.269  14.397 -0.8112 -0.1414 -0.4395
 6814TIP3    H141933   5.359   4.362  14.416  0.6855 -0.2432 -0.8234
 6814TIP3    H241934   5.376   4.225  14.477 -0.3892 -0.3212 -0.6894
 6815TIP3   OH241935   3.775   2.192   3.634 -0.4987  0.1317  0.4131
 6815TIP3    H141936   3.735   2.152   3.556 -0.1765 -0.7668  0.7032
 6815TIP3    H241937   3.757   2.130   3.704  1.4767 -0.3126  0.5389
 6816TIP3   OH241938   6.182   3.649   5.210  0.5229  0.1958  0.2849
 6816TIP3    H141939   6.203   3.592   5.136  0.7213  0.3290  0.2390
 6816TIP3    H241940   6.193   3.594   5.287  1.0689  0.2712  0.2635
 6817TIP3   OH241941   1.254   2.400  16.728 -0.0912  0.4396 -0.2890
 6817TIP3    H141942   1.179   2.341  16.727 -0.0240  0.3562 -1.6342
 6817TIP3    H241943   1.222   2.480  16.769 -0.5065 -0.1116  0.4784
 6818TIP3   OH241944   1.203   6.375   3.010  0.4152 -0.3741 -0.9906
 6818TIP3    H141945   1.234   6.373   2.919 -0.3265 -2.5310 -1.2351
 6818TIP3    H241946   1.258   6.312   3.056 -1.2344 -1.6356 -0.6634
 6819TIP3   OH241947   2.400   0.838  11.861 -0.1656 -0.3351 -0.2018
 6819TIP3    H141948   2.447   0.902  11.807  0.9771  0.1180  1.2696
 6819TIP3    H241949   2.392   0.761  11.806 -1.0177  0.8634 -1.8021
 6820TIP3   OH241950   6.693   6.276   1.127 -0.3813  0.4090 -0.1349
 6820TIP3    H141951   6.668   6.327   1.204  1.0554 -0.8979  1.2415
 6820TIP3    H241952   6.779   6.311   1.102  1.2596 -2.1922  1.6694
 6821TIP3   OH241953   4.895   1.802  12.074 -0.5184 -0.0754 -0.8002
 6821TIP3    H141954   4.915   1.708  12.073 -0.7597 -0.1326 -0.5305
 6821TIP3    H241955   4.825   1.813  12.010 -0.7278 -0.1382 -0.5862
 6822TIP3   OH241956   4.191   0.217   4.582  0.0471  0.3256 -0.1518
 6822TIP3    H141957   4.194   0.164   4.662  0.2486 -1.0340 -1.0460
 6822TIP3    H241958   4.098   0.226   4.563 -0.0147  0.9423  0.4207
 6823TIP3   OH241959   3.511   2.883  13.727 -0.6263  0.4668 -0.3010
 6823TIP3    H141960   3.581   2.824  13.754 -1.3056 -0.0144  0.4294
 6823TIP3    H241961   3.549   2.970  13.735  0.2602  0.1525 -1.0176
 6824TIP3   OH241962   1.094   1.584  15.411 -0.1188 -0.2706  0.0109
 6824TIP3    H141963   0.999   1.576  15.406 -0.2891  0.1301  2.0408
 6824TIP3    H241964   1.127   1.501  15.377 -1.0728  0.6752 -3.4553
 6825TIP3   OH241965   0.205   4.630  12.520 -0.2466 -0.1123 -0.0268
 6825TIP3    H141966   0.118   4.609  12.556 -0.6223 -0.7944 -1.3266
 6825TIP3    H241967   0.207   4.587  12.435  1.0929  0.5304 -0.3289
 6826TIP3   OH241968   5.366   0.793   4.449 -0.5851  0.1699  0.1541
 6826TIP3    H141969   5.309   0.765   4.520  0.0042  0.2958  0.6732
 6826TIP3    H241970   5.435   0.843   4.491 -0.0394 -0.0527 -0.4699
 6827TIP3   OH241971   6.631   3.771   4.655 -0.3414  0.1431  0.4152
 6827TIP3    H141972   6.577   3.772   4.734  0.2336 -2.1097  0.8996
 6827TIP3    H241973   6.716   3.804   4.684 -0.7502  1.3502  0.2346
 6828TIP3   OH241974   2.707   2.854   0.075 -0.1383 -0.2124  0.5655
 6828TIP3    H141975   2.786   2.845   0.127  0.1095  0.3622  0.2895
 6828TIP3    H241976   2.679   2.945   0.088 -0.9352 -0.4985  0.9247
 6829TIP3   OH241977   2.037   4.547  14.590  0.3826 -0.2642 -0.0423
 6829TIP3    H141978   2.110   4.604  14.566  0.3998  0.3374  1.3783
 6829TIP3    H241979   2.013   4.576  14.678 -2.1214  0.1117 -0.8110
 6830TIP3   OH241980   6.295   6.079   6.479 -0.2545  0.1620 -0.3504
 6830TIP3    H141981   6.202   6.061   6.473 -0.2080  0.1025 -0.9221
 6830TIP3    H241982   6.337   5.994   6.463 -0.0224  0.8025 -3.3134
 6831TIP3   OH241983   1.253   5.628  15.956  0.8912 -0.0898 -0.3823
 6831TIP3    H141984   1.330   5.573  15.970  1.5506  0.6923 -0.8898
 6831TIP3    H241985   1.208   5.628  16.041  0.9757 -1.2602 -0.3319
 6832TIP3   OH241986   4.513   2.302  14.692  0.3295  1.4587 -0.6204
 6832TIP3    H141987   4.524   2.233  14.626  0.1396  0.1634  0.6982
 6832TIP3    H241988   4.571   2.277  14.763 -2.4769  0.6802  1.4672
 6833TIP3   OH241989   5.574   4.427   1.408  0.0788  0.4855 -0.3978
 6833TIP3    H141990   5.547   4.338   1.385  0.7786  0.3901 -0.8806
 6833TIP3    H241991   5.493   4.472   1.430 -0.2074 -0.4674  0.5251
 6834TIP3   OH241992   5.323   4.066  11.690  0.5013 -0.1951 -0.3782
 6834TIP3    H141993   5.352   4.039  11.603  0.7814  0.3292 -0.4485
 6834TIP3    H241994   5.385   4.133  11.717 -1.0675  1.5002 -0.8469
 6835TIP3   OH241995   4.761   4.396   4.471  0.2027  0.4052  0.0562
 6835TIP3    H141996   4.715   4.314   4.451  1.3538 -0.3258  0.3507
 6835TIP3    H241997   4.783   4.433   4.386 -0.6377  0.6009 -0.0816
 6836TIP3   OH241998   1.007   0.859   5.204  0.5246  0.5626  0.1697
 6836TIP3    H141999   1.076   0.835   5.142 -0.0077  1.7217 -0.8686
 6836TIP3    H242000   1.019   0.953   5.219 -0.3246  0.6050  0.6247
 6837TIP3   OH242001   0.470   2.335  14.210  0.1123 -0.3133 -0.1164
 6837TIP3    H142002   0.542   2.340  14.147 -1.4610  0.2287 -1.9507
 6837TIP3    H242003   0.500   2.273  14.276  1.9573 -0.6678 -1.2354
 6838TIP3   OH242004   3.154   1.773   1.589  0.0562 -0.1247 -0.4938
 6838TIP3    H142005   3.111   1.846   1.633 -0.3378 -0.8105  0.2778
 6838TIP3    H242006   3.170   1.709   1.659  0.2486 -0.8380 -1.1818
 6839TIP3   OH242007   3.283   4.104  15.002 -0.0549 -0.5345  0.2196
 6839TIP3    H142008   3.253   4.034  14.945 -0.5378 -0.0914 -0.0868
 6839TIP3    H242009   3.245   4.183  14.964  0.7690 -0.0639  0.3560
 6840TIP3   OH242010   0.059   4.705   5.918  0.2599 -0.0648 -0.5250
 6840TIP3    H142011   0.054   4.654   5.998  1.0458 -0.2377 -0.5811
 6840TIP3    H242012   0.147   4.742   5.918 -0.0027  0.5709 -0.9204
 6841TIP3   OH242013   1.165   5.999  15.804  0.2398  0.4559  0.2147
 6841TIP3    H142014   1.180   5.907  15.782 -0.6345  0.7539 -1.8031
 6841TIP3    H242015   1.251   6.032  15.828  1.1309 -0.1906 -1.8841
 6842TIP3   OH242016   5.793   3.481  15.691 -0.6565 -0.4769  0.5524
 6842TIP3    H142017   5.812   3.571  15.666 -0.8977 -0.7677 -0.7244
 6842TIP3    H242018   5.877   3.435  15.679 -0.7705 -0.6137  0.2662
 6843TIP3   OH242019   1.135   1.711  16.788  0.5512  0.1228  0.9040
 6843TIP3    H142020   1.148   1.649  16.716  1.0659  0.7218  0.4753
 6843TIP3    H242021   1.041   1.707  16.807  0.4997 -0.4179  0.5448
 6844TIP3   OH242022   5.854   6.228  12.679 -0.0431  0.3433 -0.2088
 6844TIP3    H142023   5.766   6.202  12.706 -1.6513  1.8551 -3.7617
 6844TIP3    H242024   5.886   6.154  12.626  0.2680  0.4089 -0.1139
 6845TIP3   OH242025   4.386   2.055   0.077 -0.2033 -0.5237 -0.2287
 6845TIP3    H142026   4.293   2.077   0.070 -0.3322 -0.5262  1.3241
 6845TIP3    H242027   4.432   2.136   0.053 -0.6141 -0.3907 -0.5604
 6846TIP3   OH242028   0.817   2.617  16.631  0.5194 -0.0934  0.2190
 6846TIP3    H142029   0.751   2.610  16.700 -0.5195  1.2863 -0.6074
 6846TIP3    H242030   0.868   2.694  16.656  1.1051 -0.4898  0.2475
 6847TIP3   OH242031   3.456   4.205  15.169  0.7434  0.3637  0.2747
 6847TIP3    H142032   3.397   4.161  15.108  0.2365  1.9862 -0.4433
 6847TIP3    H242033   3.505   4.135  15.211  0.1523 -0.8476 -1.0401
 6848TIP3   OH242034   0.293   3.274   5.813  0.5660  0.1341  0.7800
 6848TIP3    H142035   0.201   3.290   5.832  0.7309  0.0016  1.6789
 6848TIP3    H242036   0.324   3.357   5.775  0.2096  0.3470  0.9557
 6849TIP3   OH242037   6.296   5.264  12.972 -0.1096 -0.4829 -0.0805
 6849TIP3    H142038   6.237   5.340  12.969  0.7994  0.2253 -0.1358
 6849TIP3    H242039   6.297   5.231  12.883  0.3171  0.0840 -0.2894
 6850TIP3   OH242040   6.204   1.612  12.267  0.5572  0.0335 -0.3092
 6850TIP3    H142041   6.239   1.561  12.194  1.7532  0.0807  0.2154
 6850TIP3    H242042   6.280   1.631  12.322 -0.3743 -0.3310  1.1576
 6851TIP3   OH242043   0.648   6.113   3.235  0.5048 -0.3782 -0.3599
 6851TIP3    H142044   0.620   6.039   3.288  0.1622  0.6921  0.9516
 6851TIP3    H242045   0.740   6.095   3.215  0.4899 -1.0201  0.1654
 6852TIP3   OH242046   4.442   3.378  15.332  0.2775  0.1067  0.3408
 6852TIP3    H142047   4.385   3.330  15.392  0.5316  2.1013  2.2787
 6852TIP3    H242048   4.385   3.405  15.260 -0.2410 -1.5471  0.1124
 6853TIP3   OH242049   5.309   6.146  16.744  0.2234  0.6875 -0.6331
 6853TIP3    H142050   5.336   6.237  16.736 -0.9173  1.0128 -0.8904
 6853TIP3    H242051   5.230   6.149  16.797 -0.0290 -0.1097 -0.9544
 6854TIP3   OH242052   4.154   2.346   1.663  0.3491  0.0888  0.0246
 6854TIP3    H142053   4.088   2.286   1.628 -1.1615  2.0505 -0.5571
 6854TIP3    H242054   4.195   2.384   1.586  0.0338  1.1694  0.3901
 6855TIP3   OH242055   5.971   0.033   4.545 -0.6096 -0.1235 -0.1310
 6855TIP3    H142056   5.998   0.009   4.456 -0.1861  0.7008 -0.2284
 6855TIP3    H242057   6.051   0.063   4.587 -0.7243 -0.9159  0.6776
 6856TIP3   OH242058   3.273   3.752   1.420  0.0865 -0.0319  0.3303
 6856TIP3    H142059   3.293   3.778   1.510  0.3361 -0.1648  0.3131
 6856TIP3    H242060   3.180   3.774   1.409 -0.0741 -0.4624  0.7818
 6857TIP3   OH242061   3.919   3.087  11.838 -0.6207 -0.1851  0.1545
 6857TIP3    H142062   3.854   3.155  11.820 -0.5328 -0.6472 -2.0191
 6857TIP3    H242063   4.003   3.133  11.834 -0.6592 -0.0834  0.4730
 6858TIP3   OH242064   3.531   4.673  12.907 -0.1468 -0.5851  0.2893
 6858TIP3    H142065   3.618   4.707  12.929  0.1920 -2.0026  1.1453
 6858TIP3    H242066   3.534   4.661  12.812  0.0119  0.9722  0.0857
 6859TIP3   OH242067   1.114   2.300   4.462  0.1766 -0.4274 -0.1806
 6859TIP3    H142068   1.151   2.357   4.529  1.4066 -0.9202 -0.4355
 6859TIP3    H242069   1.038   2.260   4.505 -0.2177  0.7525  0.2671
 6860TIP3   OH242070   6.718   5.747   0.165  0.3664 -0.1197 -0.1883
 6860TIP3    H142071   6.772   5.687   0.113  0.5019 -0.4439  0.3286
 6860TIP3    H242072   6.719   5.710   0.253 -0.7970 -0.1952 -0.2000
 6861TIP3   OH242073   0.730   4.016  15.227 -0.0482 -0.1610  0.0936
 6861TIP3    H142074   0.658   3.966  15.267  0.0599 -0.8246 -0.5371
 6861TIP3    H242075   0.718   4.005  15.133 -0.3025  1.4099 -0.0757
 6862TIP3   OH242076   3.850   1.618  10.896 -0.0429 -0.0386  0.1345
 6862TIP3    H142077   3.939   1.650  10.906  0.2623 -0.7192 -0.3158
 6862TIP3    H242078   3.812   1.672  10.827  0.2337 -0.1633 -0.1184
 6863TIP3   OH242079   1.069   4.878  15.509  0.1508  0.1994 -0.6024
 6863TIP3    H142080   1.118   4.908  15.432 -0.0496  0.1024 -0.7665
 6863TIP3    H242081   1.136   4.846  15.569  0.1159 -2.2284 -1.8119
 6864TIP3   OH242082   2.089   0.411  14.360  0.5746 -0.6488 -0.1589
 6864TIP3    H142083   2.067   0.493  14.315 -0.8580 -1.3380 -0.7617
 6864TIP3    H242084   2.005   0.379  14.393  1.6525  0.0183  3.3967
 6865TIP3   OH242085   0.358   0.122   5.930  0.2068 -0.1658  0.5698
 6865TIP3    H142086   0.392   0.139   6.018 -2.6093 -2.0374  2.0918
 6865TIP3    H242087   0.416   0.055   5.894  0.9266  0.0606  1.3133
 6866TIP3   OH242088   6.147   3.047  10.403  0.4130 -0.3742  0.1205
 6866TIP3    H142089   6.209   2.997  10.458  0.6478 -0.1379  0.0691
 6866TIP3    H242090   6.061   3.026  10.440  0.5015 -0.8916  0.0430
 6867TIP3   OH242091   2.302   6.131  14.511 -0.2558 -0.1348 -0.2659
 6867TIP3    H142092   2.267   6.044  14.530 -0.3440 -0.2856 -1.0847
 6867TIP3    H242093   2.225   6.187  14.502 -0.1605  0.3258  1.6010
 6868TIP3   OH242094   3.750   1.225  14.094  0.9553  0.1517 -0.4485
 6868TIP3    H142095   3.662   1.226  14.130  0.6131  0.8568 -1.2823
 6868TIP3    H242096   3.751   1.296  14.030  1.3780 -1.3630 -2.1866
 6869TIP3   OH242097   3.403   3.110   5.884  0.1737  0.1550  0.0389
 6869TIP3    H142098   3.497   3.109   5.864 -0.3037 -1.9272 -2.4645
 6869TIP3    H242099   3.389   3.032   5.937 -0.1588  0.4190  0.3406
 6870TIP3   OH242100   4.295   4.740  12.139 -0.3104  0.0599 -0.1351
 6870TIP3    H142101   4.389   4.721  12.128  0.0719  1.2889  0.9439
 6870TIP3    H242102   4.253   4.654  12.131  0.8518 -0.4427 -1.1722
 6871TIP3   OH242103   4.200   1.416  14.283 -0.3611  0.3443  0.3191
 6871TIP3    H142104   4.117   1.464  14.285 -2.1633 -2.6403 -0.3087
 6871TIP3    H242105   4.191   1.348  14.350  2.0734  0.7234  1.0895
 6872TIP3   OH242106   1.668   6.816   1.239 -0.1185  0.3701 -0.4110
 6872TIP3    H142107   1.639   6.799   1.149 -1.4700 -0.6538  0.1985
 6872TIP3    H242108   1.676   6.911   1.244 -0.2656  0.4484 -1.5548
 6873TIP3   OH242109   2.563   3.219  15.644 -0.2913  0.0627 -0.1670
 6873TIP3    H142110   2.574   3.184  15.732 -0.0013  0.6580  0.0380
 6873TIP3    H242111   2.480   3.268  15.648 -2.4371 -3.3060 -1.3484
 6874TIP3   OH242112   3.223   4.711   3.879 -0.0280  0.0165  0.4201
 6874TIP3    H142113   3.230   4.806   3.884  0.1627 -0.0302  1.2052
 6874TIP3    H242114   3.261   4.688   3.795 -0.1947  0.6473  0.1746
 6875TIP3   OH242115   4.191   0.568   3.094 -0.1016  1.5586 -0.5871
 6875TIP3    H142116   4.222   0.494   3.146 -1.5975  1.2152 -0.1557
 6875TIP3    H242117   4.263   0.586   3.033  0.4352 -0.0080 -0.4480
 6876TIP3   OH242118   0.555   2.189   5.691 -0.6103 -0.2815  0.1023
 6876TIP3    H142119   0.471   2.155   5.660  0.5168 -1.0581 -2.1932
 6876TIP3    H242120   0.580   2.130   5.762 -0.8322 -1.5010 -0.8301
 6877TIP3   OH242121   3.307   4.008   5.785  0.1286  0.9183  0.0189
 6877TIP3    H142122   3.229   3.966   5.749  1.8128 -3.6967  1.3418
 6877TIP3    H242123   3.364   4.025   5.710 -0.2636  0.0544 -0.4686
 6878TIP3   OH242124   4.647   6.067  16.448  0.1635 -0.1664  0.6976
 6878TIP3    H142125   4.580   6.098  16.509  0.3251 -0.2809  0.9348
 6878TIP3    H242126   4.640   5.972  16.451 -1.0199 -0.1433 -0.7961
 6879TIP3   OH242127   5.673   3.798  15.194  0.7787 -0.0604  0.2816
 6879TIP3    H142128   5.733   3.725  15.208  0.3743 -0.9143 -2.2312
 6879TIP3    H242129   5.592   3.757  15.164  0.6784  1.3998 -1.5412
 6880TIP3   OH242130   0.071   4.103   2.499  0.2435 -0.1093 -0.3396
 6880TIP3    H142131  -0.002   4.127   2.555  0.8508 -0.5641  0.6734
 6880TIP3    H242132   0.033   4.044   2.434 -0.3308 -0.1937  0.0650
 6881TIP3   OH242133   0.095   1.582   2.456 -0.2497  0.5346 -0.5759
 6881TIP3    H142134   0.024   1.569   2.520  0.2720 -2.4502 -0.5342
 6881TIP3    H242135   0.082   1.672   2.424 -2.1584  1.1375  1.7124
 6882TIP3   OH242136   0.718   0.292   1.344  0.2836  0.1415  0.6990
 6882TIP3    H142137   0.746   0.286   1.435 -0.8986  1.2696  1.1459
 6882TIP3    H242138   0.779   0.353   1.303 -0.5175  1.3443  1.2798
 6883TIP3   OH242139   3.479   1.265  15.701 -0.1950 -0.1078  0.0594
 6883TIP3    H142140   3.477   1.171  15.683 -0.4806  0.1203 -1.1614
 6883TIP3    H242141   3.520   1.273  15.787  1.4112 -1.2610 -0.5808
 6884TIP3   OH242142   5.986   3.150   1.724  0.0829 -0.4419 -0.0767
 6884TIP3    H142143   6.032   3.234   1.725  0.0113 -0.4029  1.4484
 6884TIP3    H242144   5.937   3.149   1.641 -0.9392  1.5819  0.4817
 6885TIP3   OH242145   5.067   5.258  16.123  0.1768  0.0508 -0.0318
 6885TIP3    H142146   5.150   5.211  16.117 -0.8201 -1.9296  1.1807
 6885TIP3    H242147   5.024   5.241  16.039  0.1920 -0.4806  0.0664
 6886TIP3   OH242148   5.348   0.406   2.301 -0.4331  0.1331 -0.2656
 6886TIP3    H142149   5.285   0.427   2.233  0.0907  0.0120 -0.7951
 6886TIP3    H242150   5.355   0.310   2.300  1.6464  0.2591 -1.9655
 6887TIP3   OH242151   0.794   3.383   3.376  0.0545 -0.9725 -0.5251
 6887TIP3    H142152   0.798   3.421   3.288  0.8790 -2.5964 -1.2166
 6887TIP3    H242153   0.886   3.367   3.399 -0.1844 -0.8704  0.4789
 6888TIP3   OH242154   3.474   1.723  11.473  0.3668  0.0165 -1.1246
 6888TIP3    H142155   3.444   1.658  11.408  1.4951 -1.4725 -0.1911
 6888TIP3    H242156   3.537   1.675  11.527  0.6820  1.7143  0.0406
 6889TIP3   OH242157   1.604   0.694  15.844 -0.1938  0.1351  0.3268
 6889TIP3    H142158   1.574   0.604  15.846 -1.5359  0.5992  1.9717
 6889TIP3    H242159   1.657   0.700  15.764 -0.7268 -1.8822 -0.1988
 6890TIP3   OH242160   0.699   4.401   2.503  0.5040 -0.1606 -0.1094
 6890TIP3    H142161   0.661   4.313   2.496 -0.8647  0.4348 -0.2038
 6890TIP3    H242162   0.649   4.454   2.442  1.0015  0.8124  0.3123
 6891TIP3   OH242163   1.141   6.077  15.489  0.2589 -0.1965  0.3549
 6891TIP3    H142164   1.062   6.081  15.543 -0.7451  1.9267 -1.1929
 6891TIP3    H242165   1.209   6.116  15.543 -0.6796  1.6705  0.2133
 6892TIP3   OH242166   3.861   2.384   1.377 -0.3374 -0.1655  0.7695
 6892TIP3    H142167   3.852   2.292   1.355 -1.5094  0.1526 -0.1626
 6892TIP3    H242168   3.837   2.389   1.470  2.6345 -1.2144  1.6387
 6893TIP3   OH242169   3.532   4.496   6.399 -0.4962  0.7290 -0.1868
 6893TIP3    H142170   3.473   4.556   6.444 -1.0783  0.1421 -0.1697
 6893TIP3    H242171   3.503   4.408   6.426 -1.9033  0.2858 -3.0082
 6894TIP3   OH242172   1.350   1.257   4.530 -0.4374 -0.3610 -0.2263
 6894TIP3    H142173   1.305   1.337   4.557 -1.2738 -1.0727  0.5320
 6894TIP3    H242174   1.427   1.252   4.587 -0.3063 -0.0275 -0.3729
 6895TIP3   OH242175   3.849   2.824   3.707 -0.7147  0.4437  0.1500
 6895TIP3    H142176   3.782   2.867   3.654 -0.0715  0.0180 -1.0427
 6895TIP3    H242177   3.924   2.884   3.705 -0.6666  0.3958  0.5156
 6896TIP3   OH242178   0.564   2.739   2.214 -0.1687 -0.1671 -0.4227
 6896TIP3    H142179   0.644   2.703   2.253 -0.6485  0.6398  1.3951
 6896TIP3    H242180   0.517   2.663   2.181  0.7730 -0.7674 -0.4016
 6897TIP3   OH242181   4.602   2.912   2.289 -0.0980 -0.4708  0.7626
 6897TIP3    H142182   4.557   2.854   2.228 -1.1442  0.8589  0.2420
 6897TIP3    H242183   4.585   2.873   2.375 -1.3974 -0.5623  0.4877
 6898TIP3   OH242184   2.872   6.164  14.675  0.1376  0.3532 -0.6137
 6898TIP3    H142185   2.861   6.128  14.587  0.6230 -0.5054 -0.3248
 6898TIP3    H242186   2.954   6.126  14.706 -1.9167 -2.3659  1.6868
 6899TIP3   OH242187   1.482   5.572   1.935  0.5689 -0.2174 -0.7087
 6899TIP3    H142188   1.438   5.556   1.852 -0.7739 -0.6851  0.0887
 6899TIP3    H242189   1.496   5.485   1.972  0.4032  0.0359 -0.0429
 6900TIP3   OH242190   3.083   3.636  11.945  0.4559 -0.4285 -0.4181
 6900TIP3    H142191   3.134   3.629  11.865  0.2672  0.9573 -0.6862
 6900TIP3    H242192   3.000   3.594  11.925  0.4026 -0.0694 -0.9667
 6901TIP3   OH242193   2.095   1.956  11.580  0.4844  0.6896  0.4642
 6901TIP3    H142194   2.159   1.961  11.651  1.0907  1.7629 -0.1444
 6901TIP3    H242195   2.015   1.926  11.622  1.2453 -0.1724  1.3302
 6902TIP3   OH242196   3.463   3.847   5.985 -0.0499 -0.1501  0.2476
 6902TIP3    H142197   3.422   3.761   5.986 -0.6652  0.1328  2.8437
 6902TIP3    H242198   3.410   3.899   5.924 -1.5932 -0.6980  1.1105
 6903TIP3   OH242199   3.970   6.702   1.575 -0.0966  0.0543 -0.2951
 6903TIP3    H142200   3.921   6.692   1.494  1.8349  0.4034 -1.5197
 6903TIP3    H242201   4.006   6.615   1.592 -2.3411 -0.5969  1.4355
 6904TIP3   OH242202   5.404   4.543  16.301  0.2898 -0.5583  0.0338
 6904TIP3    H142203   5.487   4.503  16.325  0.5563 -1.8511 -2.7821
 6904TIP3    H242204   5.427   4.606  16.232 -1.1559 -1.6446 -1.4955
 6905TIP3   OH242205   2.750   5.600  11.238 -0.1633  0.3943 -0.4351
 6905TIP3    H142206   2.827   5.548  11.260 -1.3539 -0.6712  1.3096
 6905TIP3    H242207   2.734   5.583  11.146  1.4282  0.2752 -0.6887
 6906TIP3   OH242208   1.015   4.995   6.045 -0.3417  0.3809 -0.4485
 6906TIP3    H142209   1.075   5.039   5.985 -2.7095  3.2003 -0.9055
 6906TIP3    H242210   1.060   4.994   6.129 -0.5968  4.7848 -0.1715
 6907TIP3   OH242211   2.942   4.389  10.783  0.1594 -0.7019  0.1838
 6907TIP3    H142212   2.989   4.315  10.822  0.1865 -0.3514  0.8358
 6907TIP3    H242213   2.907   4.437  10.858  0.6421  0.2681 -0.1992
 6908TIP3   OH242214   6.292   0.080   6.435  0.2349  0.7077  0.0821
 6908TIP3    H142215   6.335   0.122   6.510 -1.6523  3.6445 -0.3818
 6908TIP3    H242216   6.201   0.067   6.465 -0.3537  1.2663 -1.4352
 6909TIP3   OH242217   4.874   4.887   3.296 -0.0423 -0.1542  0.2696
 6909TIP3    H142218   4.811   4.896   3.368  1.0301 -0.3875  1.2454
 6909TIP3    H242219   4.834   4.824   3.237 -0.5307 -0.6346  1.0993
 6910TIP3   OH242220   5.583   4.479  11.878 -0.1896  0.3456  0.5853
 6910TIP3    H142221   5.530   4.443  11.949  0.2634 -0.0169  0.7414
 6910TIP3    H242222   5.625   4.556  11.916  1.2772 -0.7255  1.1927
 6911TIP3   OH242223   3.563   5.389   0.936  0.4392 -0.3514 -0.5820
 6911TIP3    H142224   3.641   5.338   0.960 -0.2275 -1.7905 -1.3732
 6911TIP3    H242225   3.490   5.333   0.961 -0.3622  1.1334  0.4400
 6912TIP3   OH242226   5.473   5.599  12.832 -0.0482  0.6621 -0.4475
 6912TIP3    H142227   5.564   5.599  12.864 -0.5931  2.6230  1.1411
 6912TIP3    H242228   5.449   5.691  12.829 -2.7045  0.0500  1.1614
 6913TIP3   OH242229   2.798   6.075   2.931 -0.0285 -0.3695 -0.3050
 6913TIP3    H142230   2.741   6.101   3.003  1.5074 -0.3863  0.9504
 6913TIP3    H242231   2.846   5.999   2.964  1.2749  0.1086 -1.0542
 6914TIP3   OH242232   4.982   5.015   2.906  0.2156 -0.0699  0.3478
 6914TIP3    H142233   5.003   5.020   2.999 -0.8584 -0.4993  0.6123
 6914TIP3    H242234   5.042   4.948   2.872  0.7384  0.2206  0.6844
 6915TIP3   OH242235   4.523   1.917   0.740  0.3958  0.0785 -0.2408
 6915TIP3    H142236   4.604   1.954   0.774  0.2394  0.5691 -0.4098
 6915TIP3    H242237   4.453   1.958   0.791  0.1480  0.9245 -1.2220
 6916TIP3   OH242238   2.947   4.331  13.799  0.1908 -0.2958  0.3319
 6916TIP3    H142239   2.891   4.397  13.841  0.8521 -1.5065  3.2130
 6916TIP3    H242240   2.887   4.261  13.774 -0.3217  0.7743 -1.5586
 6917TIP3   OH242241   2.923   6.181   0.540 -0.4920  0.1523  0.1036
 6917TIP3    H142242   2.985   6.224   0.599 -0.6594 -0.1743  0.5141
 6917TIP3    H242243   2.978   6.150   0.468 -0.3742  1.0997 -0.2310
 6918TIP3   OH242244   5.248   4.467  14.784 -0.0546  0.0351  0.3340
 6918TIP3    H142245   5.301   4.499  14.711  0.6504 -1.8663 -0.0123
 6918TIP3    H242246   5.291   4.503  14.861 -0.1947  1.2120 -0.1218
 6919TIP3   OH242247   2.226   5.392   4.357 -0.6483 -0.3224  0.1385
 6919TIP3    H142248   2.206   5.329   4.426 -0.7071 -1.5286 -0.9613
 6919TIP3    H242249   2.151   5.451   4.355 -0.3118  0.1863  1.5926
 6920TIP3   OH242250   5.675   2.066  15.137 -0.4250 -0.2133 -0.1189
 6920TIP3    H142251   5.676   1.993  15.198 -0.0198  0.0642  0.2086
 6920TIP3    H242252   5.762   2.106  15.146 -0.3690 -0.1603 -0.8555
 6921TIP3   OH242253   4.934   4.642   1.601 -0.7401  0.0113  0.0995
 6921TIP3    H142254   5.003   4.693   1.558  0.2460 -1.4943 -0.1546
 6921TIP3    H242255   4.913   4.573   1.538 -0.7350 -1.0008  1.1812
 6922TIP3   OH242256   2.781   5.263   0.482 -0.1031  0.2891  0.1715
 6922TIP3    H142257   2.774   5.358   0.487 -0.9284  0.2397 -0.0379
 6922TIP3    H242258   2.695   5.230   0.508  0.3933 -0.4258  0.9364
 6923TIP3   OH242259   3.184   0.659  16.160  0.2316 -0.5251 -0.1563
 6923TIP3    H142260   3.261   0.716  16.160  0.9391 -1.4715 -0.5905
 6923TIP3    H242261   3.173   0.633  16.251 -2.4268  3.3641  0.7926
 6924TIP3   OH242262   0.622   1.281  15.657 -0.3466  0.2122  0.1633
 6924TIP3    H142263   0.569   1.323  15.589 -0.2953  1.5468  0.9306
 6924TIP3    H242264   0.712   1.291  15.625 -0.4374 -0.6621 -0.3813
 6925TIP3   OH242265   6.338   3.083   5.028  0.3921  0.4461  0.4560
 6925TIP3    H142266   6.432   3.097   5.038  0.1020  1.6486  1.5553
 6925TIP3    H242267   6.316   3.016   5.093  0.5451 -0.1398 -0.0841
 6926TIP3   OH242268   2.441   2.379  12.907  0.4059 -0.5907  0.4409
 6926TIP3    H142269   2.365   2.372  12.850  0.1580 -0.2498  0.7257
 6926TIP3    H242270   2.465   2.289  12.927 -0.9669 -0.6984  1.7154
 6927TIP3   OH242271   1.595   5.239  12.072 -0.4107 -0.5446 -0.0921
 6927TIP3    H142272   1.519   5.255  12.128  0.4078  1.8742  0.3598
 6927TIP3    H242273   1.653   5.183  12.124 -0.5911 -0.0325  0.6577
 6928TIP3   OH242274   1.837   6.231  14.624 -0.5448 -0.5289  0.2134
 6928TIP3    H142275   1.768   6.291  14.651 -0.1232  0.6904 -1.3880
 6928TIP3    H242276   1.866   6.189  14.705  0.2671  2.6125  1.6114
 6929TIP3   OH242277   3.273   6.815  11.340 -0.6911 -0.3994  0.0255
 6929TIP3    H142278   3.186   6.840  11.369 -0.6522  1.0617 -1.0630
 6929TIP3    H242279   3.305   6.891  11.291  0.4330 -1.6417 -1.2165
 6930TIP3   OH242280   0.131   0.659  13.518  0.5588  0.7687 -0.0379
 6930TIP3    H142281   0.071   0.645  13.591  1.0652  0.2562  0.2908
 6930TIP3    H242282   0.175   0.574  13.508  0.6878  0.9206 -0.7589
 6931TIP3   OH242283   0.190   3.275   2.336 -0.3002 -0.2274 -0.0177
 6931TIP3    H142284   0.132   3.222   2.391  2.5061 -1.9574  1.4476
 6931TIP3    H242285   0.170   3.247   2.246 -2.7283  0.3012  0.3317
 6932TIP3   OH242286   2.292   5.374   4.916 -1.0220 -0.3879 -0.0642
 6932TIP3    H142287   2.326   5.451   4.871  0.1113 -1.2657 -0.7278
 6932TIP3    H242288   2.370   5.328   4.947 -1.7064 -1.0680  0.6760
 6933TIP3   OH242289   4.083   4.792  17.277  0.4119 -0.1436  0.0181
 6933TIP3    H142290   4.079   4.856  17.349  1.1559 -1.7882  1.5459
 6933TIP3    H242291   3.997   4.749  17.280  0.2823  0.0849 -0.3747
 6934TIP3   OH242292   5.305   0.522  16.253 -0.5060 -0.4561 -0.4689
 6934TIP3    H142293   5.399   0.516  16.264 -0.6849 -1.1939  0.7176
 6934TIP3    H242294   5.292   0.600  16.199  0.6978  0.3250  0.3431
 6935TIP3   OH242295   2.948   6.657   6.413  0.1933 -0.0502  0.0422
 6935TIP3    H142296   2.951   6.747   6.380  1.5220 -0.9290 -2.3590
 6935TIP3    H242297   3.037   6.624   6.401 -0.0767 -1.4399  1.6685
 6936TIP3   OH242298   3.580   3.359  15.093  0.0695  0.6645  1.0445
 6936TIP3    H142299   3.514   3.309  15.045  0.8136  1.0986 -0.4294
 6936TIP3    H242300   3.570   3.329  15.184  0.9220 -2.6058  0.1162
 6937TIP3   OH242301   5.343   3.518   0.407  0.7069  0.2738 -0.2168
 6937TIP3    H142302   5.397   3.502   0.330 -0.8397 -1.5280 -0.9846
 6937TIP3    H242303   5.290   3.594   0.384  0.8794  0.2790 -0.5974
 6938TIP3   OH242304   4.081   2.271   0.531  0.2093  0.0845  0.2694
 6938TIP3    H142305   4.002   2.312   0.563 -0.5415 -1.9882  1.1709
 6938TIP3    H242306   4.133   2.253   0.610 -0.0430 -1.7802  0.0432
 6939TIP3   OH242307   3.739   5.060  16.827 -0.0145 -0.1537 -0.1615
 6939TIP3    H142308   3.775   5.079  16.740  1.0525 -0.1245  0.2907
 6939TIP3    H242309   3.671   5.127  16.839 -2.0290 -1.7584 -2.0781
 6940TIP3   OH242310   5.410   5.506  16.621  1.2234  0.6182  0.5496
 6940TIP3    H142311   5.324   5.481  16.655  1.5822  1.4637  2.1834
 6940TIP3    H242312   5.420   5.598  16.649  2.4380  0.6704 -0.0464
 6941TIP3   OH242313   2.822   1.703   3.600  0.0938 -0.0555 -0.4799
 6941TIP3    H142314   2.734   1.741   3.604  0.0061 -0.0076 -2.4550
 6941TIP3    H242315   2.870   1.760   3.539  0.6680 -1.7038 -1.5978
 6942TIP3   OH242316   4.593   2.700   0.451 -0.0698 -0.2619 -0.1877
 6942TIP3    H142317   4.635   2.615   0.446  0.0426 -0.1880 -0.5965
 6942TIP3    H242318   4.575   2.714   0.544  1.4330  0.0140  0.0688
 6943TIP3   OH242319   6.648   1.699   6.176 -0.5890  0.4871  0.0322
 6943TIP3    H142320   6.616   1.690   6.266 -2.0169  1.2818 -0.3808
 6943TIP3    H242321   6.698   1.619   6.161 -2.0042 -0.5821  0.8753
 6944TIP3   OH242322   2.327   3.361   3.129  0.3795 -0.2903  0.3629
 6944TIP3    H142323   2.277   3.296   3.079  2.2012 -1.4289 -0.0005
 6944TIP3    H242324   2.300   3.445   3.093 -0.7760 -0.9272 -0.2876
 6945TIP3   OH242325   2.135   1.011  14.492 -0.4189 -0.5408 -0.1684
 6945TIP3    H142326   2.223   1.024  14.456 -0.3457 -2.4702 -0.7254
 6945TIP3    H242327   2.130   1.071  14.567  0.7028  0.9127 -1.2442
 6946TIP3   OH242328   1.026   2.214   1.576  0.0217 -0.4798 -0.4724
 6946TIP3    H142329   1.058   2.144   1.519 -0.6447 -1.8874  0.8526
 6946TIP3    H242330   0.931   2.204   1.576 -0.2062  1.5152 -1.6311
 6947TIP3   OH242331   1.565   0.361   0.304  0.2552 -0.0930  0.1145
 6947TIP3    H142332   1.542   0.270   0.325  0.9763 -0.9224 -2.4921
 6947TIP3    H242333   1.626   0.387   0.373  0.6961 -1.8958  0.4330
 6948TIP3   OH242334   1.691   4.523   2.439 -0.4956 -0.3518  0.8786
 6948TIP3    H142335   1.751   4.569   2.497  1.1823  1.5724 -2.2610
 6948TIP3    H242336   1.632   4.590   2.407 -1.3012 -1.3511  0.2325
 6949TIP3   OH242337   0.244   4.745   2.789  0.2874  0.2058 -0.1089
 6949TIP3    H142338   0.327   4.782   2.822  1.6621 -1.1009 -2.0223
 6949TIP3    H242339   0.262   4.652   2.778 -1.3895 -0.0578 -0.7749
 6950TIP3   OH242340   3.517   3.987   3.962  0.0403 -0.5460  0.0169
 6950TIP3    H142341   3.445   3.926   3.947  0.2499 -0.2408 -2.3947
 6950TIP3    H242342   3.491   4.067   3.915  0.4022  0.7675  1.9735
 6951TIP3   OH242343   1.762   0.215  14.871 -0.3146  0.0322  0.0981
 6951TIP3    H142344   1.832   0.158  14.837 -1.2166 -0.8149 -0.3585
 6951TIP3    H242345   1.720   0.162  14.939 -2.5015 -0.6898 -1.7451
 6952TIP3   OH242346   5.327   2.605  15.360  0.1005  0.1712 -0.2356
 6952TIP3    H142347   5.263   2.607  15.289 -0.4403  1.1803  0.2589
 6952TIP3    H242348   5.274   2.612  15.440  0.7407 -0.2869  0.2338
 6953TIP3   OH242349   6.262   5.428  14.032  0.2437  0.4164  0.0182
 6953TIP3    H142350   6.306   5.345  14.052  0.7331  0.3218 -1.4135
 6953TIP3    H242351   6.232   5.460  14.118  0.2029 -1.1382  0.6146
 6954TIP3   OH242352   0.141   3.580  17.207  0.3365  0.0589 -0.3661
 6954TIP3    H142353   0.075   3.614  17.146  0.3252 -1.0012 -0.9550
 6954TIP3    H242354   0.091   3.552  17.283  0.2593  0.5837 -0.2224
 6955TIP3   OH242355   1.713   0.751   0.904 -0.1740  0.5100  0.4516
 6955TIP3    H142356   1.619   0.750   0.923 -0.0581  0.6677  1.0235
 6955TIP3    H242357   1.731   0.664   0.868 -0.4245  0.2759  0.8878
 6956TIP3   OH242358   1.965   4.832  12.077  0.5272  0.0281  0.0267
 6956TIP3    H142359   2.000   4.862  12.161  1.8710 -0.7844 -0.2106
 6956TIP3    H242360   1.874   4.861  12.076  0.7371  0.7630  1.4059
 6957TIP3   OH242361   4.814   2.364  13.068 -0.2992 -0.2563 -0.3575
 6957TIP3    H142362   4.896   2.324  13.097 -0.0635 -0.0804 -0.7712
 6957TIP3    H242363   4.746   2.305  13.101 -0.1011  0.4659  1.3869
 6958TIP3   OH242364   3.625   5.783   6.045  0.3336  0.3462  0.0894
 6958TIP3    H142365   3.715   5.807   6.067 -0.2437  1.9455  0.7347
 6958TIP3    H242366   3.576   5.797   6.126 -0.8396  1.2832 -0.7694
 6959TIP3   OH242367   5.245   2.345  12.176 -0.0032 -0.6456 -0.1210
 6959TIP3    H142368   5.277   2.268  12.130 -2.5645 -1.9493  0.1596
 6959TIP3    H242369   5.159   2.362  12.137  0.7482  2.4229 -0.5506
 6960TIP3   OH242370   1.066   6.300   6.159 -0.2658 -0.1382 -0.2206
 6960TIP3    H142371   0.994   6.353   6.193  0.1643 -1.0355  2.1864
 6960TIP3    H242372   1.027   6.213   6.148  0.1057 -0.3128 -0.1474
 6961TIP3   OH242373   5.190   5.698   4.294  0.2482  0.4728 -0.1485
 6961TIP3    H142374   5.139   5.683   4.215  0.0999  2.6347 -0.4948
 6961TIP3    H242375   5.155   5.779   4.330  0.6838 -0.1991  1.8397
 6962TIP3   OH242376   1.555   3.757   6.666  0.0744  0.5262 -0.2679
 6962TIP3    H142377   1.614   3.682   6.657 -1.2411 -0.3617 -1.7248
 6962TIP3    H242378   1.492   3.746   6.595 -1.7197  1.5945  1.1289
 6963TIP3   OH242379   5.537   5.244  17.165  0.6132  0.7193 -0.5037
 6963TIP3    H142380   5.512   5.319  17.219 -0.7258 -0.3560  0.4134
 6963TIP3    H242381   5.464   5.233  17.104  0.1750 -0.6356  0.2433
 6964TIP3   OH242382   5.480   6.065   1.568  0.1210 -0.7602 -0.5717
 6964TIP3    H142383   5.557   6.026   1.608  0.4284 -1.2972 -1.6742
 6964TIP3    H242384   5.440   6.116   1.638  1.1777 -0.9146  0.1547
 6965TIP3   OH242385   4.857   6.794  13.052 -0.4091 -0.0403  0.8086
 6965TIP3    H142386   4.873   6.710  13.095 -0.0149 -0.2891  0.1692
 6965TIP3    H242387   4.762   6.802  13.051 -0.4786 -0.9099  0.0246
 6966TIP3   OH242388   3.612   0.912   4.383  0.0319  0.4145 -0.2385
 6966TIP3    H142389   3.574   0.972   4.319 -2.6300  0.8601  1.6932
 6966TIP3    H242390   3.581   0.825   4.355 -2.2517  0.7531  1.1990
 6967TIP3   OH242391   3.371   2.759   1.061  0.1251  0.1132  0.0598
 6967TIP3    H142392   3.326   2.835   1.098  0.1285  0.0831  0.1267
 6967TIP3    H242393   3.324   2.740   0.979  0.2934  0.3487 -0.0898
 6968TIP3   OH242394   1.379   6.232   3.191  0.0755 -0.6282 -0.0993
 6968TIP3    H142395   1.414   6.153   3.150 -0.3590 -0.5518 -0.6221
 6968TIP3    H242396   1.456   6.281   3.219  0.3737 -0.7071 -0.7788
 6969TIP3   OH242397   0.975   1.643   4.436  0.1457 -0.2780 -0.9434
 6969TIP3    H142398   1.030   1.576   4.396  0.5626  0.2182 -1.2077
 6969TIP3    H242399   0.919   1.595   4.497  1.4589 -0.6898 -0.0376
 6970TIP3   OH242400   2.840   6.005   0.107 -0.3959  0.6673  0.1712
 6970TIP3    H142401   2.817   6.095   0.128 -0.2705  0.2120  2.3535
 6970TIP3    H242402   2.764   5.954   0.134 -0.4660  0.1137 -1.0567
 6971TIP3   OH242403   6.383   4.457  13.816 -0.1141 -0.3427 -0.1942
 6971TIP3    H142404   6.318   4.502  13.761 -0.6823 -0.3585  0.4596
 6971TIP3    H242405   6.334   4.427  13.892  0.8437  0.4519  0.7573
 6972TIP3   OH242406   4.943   6.733  16.500 -0.4481  0.6556  0.2671
 6972TIP3    H142407   5.031   6.770  16.508 -0.0863 -0.5700  2.3357
 6972TIP3    H242408   4.896   6.766  16.577 -1.4762  0.4531 -0.2643
 6973TIP3   OH242409   1.033   0.357   3.710 -0.6721  0.3054 -0.7407
 6973TIP3    H142410   0.997   0.395   3.629 -0.2095  2.4567  0.0230
 6973TIP3    H242411   0.998   0.413   3.779  1.0206  0.0324  0.3420
 6974TIP3   OH242412   2.611   3.191  14.268  0.0926 -0.3322 -1.1364
 6974TIP3    H142413   2.695   3.152  14.242  1.2526  0.9606  0.5202
 6974TIP3    H242414   2.549   3.119  14.266  1.3503 -1.4166 -1.8952
 6975TIP3   OH242415   1.530   0.477  16.434  0.2221  0.4128 -0.5750
 6975TIP3    H142416   1.486   0.559  16.456  0.7361  0.5609 -0.0867
 6975TIP3    H242417   1.605   0.473  16.493 -0.7638 -1.2500  0.6006
 6976TIP3   OH242418   2.952   4.426  15.556  0.4849  0.9271  0.6110
 6976TIP3    H142419   2.919   4.464  15.475  2.5670  1.1648 -0.1528
 6976TIP3    H242420   2.873   4.398  15.603 -0.7239  0.1334 -1.7934
 6977TIP3   OH242421   6.302   2.604  11.837  0.5212 -0.3447  0.5418
 6977TIP3    H142422   6.367   2.550  11.883  2.4804  1.0604 -0.5102
 6977TIP3    H242423   6.308   2.690  11.879 -0.8797 -0.2590  0.6040
 6978TIP3   OH242424   5.602   2.708  15.652  0.2693 -0.1321 -0.1091
 6978TIP3    H142425   5.586   2.635  15.711  1.1770  1.2454  1.8940
 6978TIP3    H242426   5.523   2.761  15.657  1.2056  1.1591  1.6597
 6979TIP3   OH242427   6.755   0.128  12.377 -0.2682  0.3289  0.3668
 6979TIP3    H142428   6.736   0.141  12.284 -0.4758  0.0240  0.3671
 6979TIP3    H242429   6.849   0.146  12.385  0.2017 -1.6498 -0.2781
 6980TIP3   OH242430   3.038   5.315  16.466  0.0506  0.4971 -0.3669
 6980TIP3    H142431   2.983   5.388  16.493  0.7950  1.2690 -0.8983
 6980TIP3    H242432   3.010   5.242  16.520  0.2595  1.5388  1.1639
 6981TIP3   OH242433   2.933   2.964  14.433 -0.5202  0.5495  0.0724
 6981TIP3    H142434   3.013   3.000  14.470 -0.6020  2.0214 -1.1479
 6981TIP3    H242435   2.918   3.015  14.354 -3.0011  0.7213  0.6029
 6982TIP3   OH242436   4.479   2.788   4.916  0.1998 -0.3192 -0.6692
 6982TIP3    H142437   4.482   2.759   4.825  2.5801  1.6669 -1.2693
 6982TIP3    H242438   4.550   2.741   4.959  0.0424 -0.1098 -0.1767
 6983TIP3   OH242439   2.193   0.641   4.729 -0.0493  0.1429 -0.3438
 6983TIP3    H142440   2.229   0.705   4.667  1.3317 -1.0403 -0.8014
 6983TIP3    H242441   2.154   0.574   4.674  0.5767 -0.5720  0.0793
 6984TIP3   OH242442   1.964   1.304   3.112  0.3271 -0.5382 -0.6635
 6984TIP3    H142443   2.044   1.322   3.062  0.5371 -0.7553 -0.4116
 6984TIP3    H242444   1.923   1.390   3.123  0.1660 -0.5169 -1.3937
 6985TIP3   OH242445   2.864   1.743   0.535  0.3863 -0.6167 -0.4611
 6985TIP3    H142446   2.926   1.812   0.512  0.6912 -0.5945  0.4152
 6985TIP3    H242447   2.858   1.746   0.630  0.9442 -2.2570 -0.3603
 6986TIP3   OH242448   3.604   0.996   1.771  0.2438  0.0529  0.4923
 6986TIP3    H142449   3.536   1.058   1.747  1.1606  2.3769  3.6429
 6986TIP3    H242450   3.685   1.047   1.771  0.9741 -1.0176  3.4654
 6987TIP3   OH242451   3.900   3.110   3.918 -0.1658 -0.0322 -0.1942
 6987TIP3    H142452   3.817   3.081   3.956 -0.1460 -1.0802 -0.8985
 6987TIP3    H242453   3.916   3.196   3.956 -1.4608  0.0754  0.1294
 6988TIP3   OH242454   5.140   3.455   3.057 -0.0300  0.4083 -0.0549
 6988TIP3    H142455   5.100   3.375   3.092 -0.4858  0.7315  0.1533
 6988TIP3    H242456   5.075   3.523   3.071  1.3083  1.3247  1.9991
 6989TIP3   OH242457   5.638   2.010   3.195  0.9540  0.0843  0.5569
 6989TIP3    H142458   5.721   2.057   3.186  0.3694  0.8768 -0.7685
 6989TIP3    H242459   5.575   2.078   3.220  0.6975 -0.5172  1.5638
 6990TIP3   OH242460   1.257   2.954  13.159  0.4206 -0.2842 -0.4410
 6990TIP3    H142461   1.283   3.044  13.141 -0.4774  0.4308  1.7277
 6990TIP3    H242462   1.338   2.911  13.188  0.8104 -0.1356 -1.3014
 6991TIP3   OH242463   0.131   5.161  13.356  0.2213  0.4709 -0.2377
 6991TIP3    H142464   0.193   5.159  13.429  0.7002  1.9182 -0.5799
 6991TIP3    H242465   0.169   5.102  13.291  1.8213  2.1338 -0.8727
 6992TIP3   OH242466   1.888   3.128   5.921 -0.2374  0.5534 -0.4646
 6992TIP3    H142467   1.835   3.167   5.991  2.6422  1.6250  1.2063
 6992TIP3    H242468   1.884   3.034   5.937 -0.2301  0.7431  0.6813
 6993TIP3   OH242469   3.301   6.592  14.556  0.0975 -0.0731  0.3104
 6993TIP3    H142470   3.281   6.551  14.472 -1.3160 -3.4945  2.1978
 6993TIP3    H242471   3.216   6.615  14.593  0.7698  2.7730  0.2289
 6994TIP3   OH242472   5.577   1.442   4.398 -0.8025  0.1731 -0.5017
 6994TIP3    H142473   5.622   1.505   4.456 -0.3649 -1.1231  0.5927
 6994TIP3    H242474   5.517   1.496   4.347  0.6132  1.6795 -0.6087
 6995TIP3   OH242475   0.864   5.873   3.962 -0.1443  0.1410  0.2132
 6995TIP3    H142476   0.933   5.815   3.931  0.9532  0.9909  1.0340
 6995TIP3    H242477   0.811   5.891   3.884  1.7900  1.1726 -0.9073
 6996TIP3   OH242478   3.706   1.485  14.849 -0.4024  0.0091  0.4477
 6996TIP3    H142479   3.676   1.404  14.808  1.7284 -0.6418  0.1552
 6996TIP3    H242480   3.730   1.459  14.938  1.5585  0.0264 -0.0558
 6997TIP3   OH242481   1.937   1.642   4.277 -0.0224 -0.1710  0.4682
 6997TIP3    H142482   1.866   1.698   4.245 -0.5854 -1.5610 -0.7681
 6997TIP3    H242483   1.896   1.556   4.289  1.6484 -1.2280 -1.1635
 6998TIP3   OH242484   1.541   0.473  15.302 -0.1714  0.0013  0.0593
 6998TIP3    H142485   1.532   0.488  15.208  0.5551 -0.1271 -0.0319
 6998TIP3    H242486   1.533   0.378  15.312  1.5535 -0.1751 -0.0849
 6999TIP3   OH242487   0.272   3.754   1.258  0.0428  0.4119  0.2725
 6999TIP3    H142488   0.227   3.811   1.196 -1.7421 -0.4309  0.7752
 6999TIP3    H242489   0.354   3.731   1.214 -0.5065  1.0710 -1.1106
 7000TIP3   OH242490   0.532   1.592   0.493  0.4444  0.4998  0.1821
 7000TIP3    H142491   0.446   1.562   0.521  0.4012  1.7849  1.4363
 7000TIP3    H242492   0.523   1.606   0.398 -0.8867  1.1825  0.4045
 7001TIP3   OH242493   2.315   3.070  13.146  0.5415 -0.2304 -0.2323
 7001TIP3    H142494   2.287   3.102  13.061 -0.3191 -0.2249  0.0468
 7001TIP3    H242495   2.351   2.983  13.128 -0.6243 -0.6795 -0.4630
 7002TIP3   OH242496   5.247   3.213   4.375  0.1044  0.2360  0.3625
 7002TIP3    H142497   5.191   3.266   4.319 -0.5624 -0.5397  0.2818
 7002TIP3    H242498   5.187   3.169   4.435  0.4891 -1.5862 -0.5473
 7003TIP3   OH242499   5.420   0.528   4.571 -0.2861 -0.4345 -0.0547
 7003TIP3    H142500   5.438   0.442   4.533  0.4409 -0.6319  0.7011
 7003TIP3    H242501   5.397   0.584   4.497  0.5843 -0.9447 -0.7215
 7004TIP3   OH242502   2.854   1.848   2.931  0.1219  0.3804  0.0960
 7004TIP3    H142503   2.797   1.882   3.000 -1.3095  0.4150 -1.0803
 7004TIP3    H242504   2.924   1.914   2.924  0.1508  0.5024  1.3148
 7005TIP3   OH242505   3.263   0.838  15.745  0.0625 -0.2642 -0.3350
 7005TIP3    H142506   3.315   0.764  15.775  1.3167  0.7135 -0.0721
 7005TIP3    H242507   3.187   0.839  15.803 -0.0812 -1.4674 -0.4801
 7006TIP3   OH242508   4.749   5.489   2.694  0.9776 -0.2856 -0.2513
 7006TIP3    H142509   4.779   5.430   2.625 -0.0011 -1.0662 -0.0304
 7006TIP3    H242510   4.655   5.499   2.677  0.6029 -1.0020  1.3320
 7007TIP3   OH242511   6.571   0.126   0.975  0.3415  0.9453 -0.0508
 7007TIP3    H142512   6.645   0.088   0.928  0.6314  2.2386 -0.6801
 7007TIP3    H242513   6.497   0.070   0.954  0.7023  0.8691 -1.1384
 7008TIP3   OH242514   1.901   2.779   3.010  0.1730  0.0129  0.4458
 7008TIP3    H142515   1.987   2.781   3.051  0.6713 -1.0788 -0.5348
 7008TIP3    H242516   1.852   2.848   3.054  0.9682 -0.5596  2.2816
 7009TIP3   OH242517   1.625   5.481   3.426  0.5973 -0.2103 -0.2334
 7009TIP3    H142518   1.582   5.445   3.349  0.8199  0.3611 -0.6243
 7009TIP3    H242519   1.718   5.477   3.406  0.6544 -0.0139 -0.0135
 7010TIP3   OH242520   4.670   4.248  15.239  0.5562 -0.7902  0.0999
 7010TIP3    H142521   4.753   4.276  15.277 -1.1937  0.9274  2.8287
 7010TIP3    H242522   4.631   4.329  15.205 -0.1851 -1.5099 -0.7837
 7011TIP3   OH242523   0.507   1.969   0.877 -0.8315 -0.2483  0.8011
 7011TIP3    H142524   0.535   1.914   0.804  0.8999 -0.1951  1.4039
 7011TIP3    H242525   0.545   2.055   0.859  3.7111 -1.3694  4.0697
 7012TIP3   OH242526   3.750   2.383  12.991 -0.3473  0.9152 -0.2040
 7012TIP3    H142527   3.729   2.304  13.041  1.7299  1.5016  1.6919
 7012TIP3    H242528   3.665   2.420  12.967 -1.3768 -2.2101 -1.7114
 7013TIP3   OH242529   0.418   5.347  16.785  0.0110  0.3162 -0.8920
 7013TIP3    H142530   0.467   5.350  16.867  0.0916 -0.1682 -0.9242
 7013TIP3    H242531   0.346   5.409  16.798  1.0282  1.5594 -1.1077
 7014TIP3   OH242532   0.602   6.586  17.187  0.1913 -0.1509  0.0455
 7014TIP3    H142533   0.594   6.494  17.163 -2.5167 -0.2382  1.0437
 7014TIP3    H242534   0.605   6.586  17.282  1.3868  0.7465  0.0221
 7015TIP3   OH242535   4.514   1.187  10.682  0.5130  0.0548  0.1290
 7015TIP3    H142536   4.466   1.181  10.764  2.1248 -0.2143  1.0639
 7015TIP3    H242537   4.466   1.253  10.631 -1.2409 -0.6980  0.7496
 7016TIP3   OH242538   2.040   2.008   2.831 -0.2379  0.3069 -0.0345
 7016TIP3    H142539   2.033   1.914   2.813  0.1873  0.5923 -1.7107
 7016TIP3    H242540   2.125   2.018   2.874 -1.5099 -0.4510  2.8185
 7017TIP3   OH242541   2.726   0.112  16.608  0.6677  0.8127  0.3920
 7017TIP3    H142542   2.817   0.143  16.606  0.4345  1.4467 -1.0381
 7017TIP3    H242543   2.714   0.067  16.525 -0.8525  2.2909 -0.2067
 7018TIP3   OH242544   1.497   5.088   2.615  0.0827 -0.9024 -0.6945
 7018TIP3    H142545   1.542   5.172   2.626  0.6185 -1.5373  2.3954
 7018TIP3    H242546   1.477   5.084   2.521  1.1176  2.1073 -1.1091
 7019TIP3   OH242547   4.592   4.052   5.460  0.0012 -0.0329 -0.3231
 7019TIP3    H142548   4.675   4.091   5.487  0.1148 -0.3081 -0.2675
 7019TIP3    H242549   4.525   4.105   5.502  0.2159 -2.7084  3.6554
 7020TIP3   OH242550   6.553   3.932  13.375  0.0775 -0.7139 -0.0243
 7020TIP3    H142551   6.578   4.020  13.403  3.0740 -1.3461 -0.5487
 7020TIP3    H242552   6.538   3.940  13.281  0.3315 -0.7526 -0.0685
 7021TIP3   OH242553   5.651   0.911  16.524  0.4359 -0.3997  0.2591
 7021TIP3    H142554   5.649   0.927  16.618 -2.4301  0.9005  0.0155
 7021TIP3    H242555   5.635   0.997  16.484 -0.5205 -1.2922 -1.3617
 7022TIP3   OH242556   4.536   3.189   5.813 -0.3499  0.1081  0.0743
 7022TIP3    H142557   4.628   3.173   5.834 -0.8034 -0.6323  1.5954
 7022TIP3    H242558   4.506   3.248   5.883 -1.2449 -0.3586  0.0917
 7023TIP3   OH242559   6.005   2.762   3.306  0.4271  0.2989  0.0576
 7023TIP3    H142560   5.980   2.800   3.222  0.8976  0.3762 -0.0502
 7023TIP3    H242561   6.068   2.693   3.284  1.5838  1.2139  0.4285
 7024TIP3   OH242562   1.202   5.640   3.801  0.1538  0.0065 -0.6474
 7024TIP3    H142563   1.123   5.608   3.846  0.3513 -1.1877 -1.1274
 7024TIP3    H242564   1.253   5.561   3.783  1.7422  0.8172  0.1486
 7025TIP3   OH242565   2.138   1.219  13.096 -0.7412  0.1470  0.6880
 7025TIP3    H142566   2.169   1.129  13.098 -0.2622  0.3060  0.4626
 7025TIP3    H242567   2.098   1.233  13.181  1.1528  0.4091  1.5641
 7026TIP3   OH242568   0.220   4.702  14.589 -0.4739 -0.3665 -0.5894
 7026TIP3    H142569   0.296   4.662  14.547  0.3887 -0.5821  1.1320
 7026TIP3    H242570   0.246   4.712  14.681 -1.4450  2.2558 -0.5703
 7027TIP3   OH242571   1.212   5.979   6.088  0.3112 -0.0647 -0.2948
 7027TIP3    H142572   1.177   6.044   6.027  1.3647  1.7038  0.9563
 7027TIP3    H242573   1.138   5.957   6.144  0.5328  1.7985  0.7499
 7028TIP3   OH242574   4.975   6.170  17.176 -0.3760 -0.5619  0.4841
 7028TIP3    H142575   4.940   6.217  17.251 -0.8294 -0.5290  0.2550
 7028TIP3    H242576   5.069   6.163  17.194 -0.0823  1.5389 -0.0598
 7029TIP3   OH242577   4.957   3.058  16.381  0.0833  0.6203  0.4202
 7029TIP3    H142578   4.871   3.061  16.423 -0.6136 -1.4016 -0.8271
 7029TIP3    H242579   4.940   3.081  16.289  0.5723 -1.5031 -0.2381
 7030TIP3   OH242580   3.638   1.532  11.610 -0.1898  0.0932 -1.2328
 7030TIP3    H142581   3.609   1.448  11.575 -1.2300  0.4918 -1.3400
 7030TIP3    H242582   3.697   1.509  11.682 -1.1423 -0.7346 -0.7081
 7031TIP3   OH242583   4.775   6.159   2.547 -0.3472  0.4115  0.6547
 7031TIP3    H142584   4.816   6.123   2.626  3.8162 -0.5570 -1.8069
 7031TIP3    H242585   4.749   6.082   2.497 -1.8501  1.0108  0.5021
 7032TIP3   OH242586   2.784   6.083  11.902 -0.6487  0.5040  0.1253
 7032TIP3    H142587   2.708   6.026  11.888 -0.1492 -0.6370  1.7991
 7032TIP3    H242588   2.859   6.029  11.876 -0.1749  0.3688  1.6835
 7033TIP3   OH242589   4.136   1.952  11.569 -0.6448  0.4494 -0.3248
 7033TIP3    H142590   4.209   1.949  11.630  0.5836 -0.8635 -1.8144
 7033TIP3    H242591   4.103   1.863  11.566 -2.1848  0.9993  0.1758
 7034TIP3   OH242592   6.423   5.232  11.251 -0.3872  0.3960 -0.0683
 7034TIP3    H142593   6.378   5.164  11.200  1.7651  0.2836 -1.9350
 7034TIP3    H242594   6.456   5.292  11.184 -0.2732  2.0211  1.4372
 7035TIP3   OH242595   4.812   0.366  13.608  0.3598 -0.1908 -0.0113
 7035TIP3    H142596   4.729   0.349  13.651  1.1537 -0.5303  1.4268
 7035TIP3    H242597   4.791   0.425  13.536 -1.3482 -1.4785 -0.5912
 7036TIP3   OH242598   4.117   3.647   1.260  0.4710 -0.1656 -0.2077
 7036TIP3    H142599   4.194   3.649   1.316  0.1150 -3.2922  0.5016
 7036TIP3    H242600   4.150   3.664   1.172  1.8736 -0.7336  0.1935
 7037TIP3   OH242601   2.590   3.144   4.403  0.3445 -0.1216  0.2304
 7037TIP3    H142602   2.567   3.077   4.467  1.6663 -0.9313 -0.1224
 7037TIP3    H242603   2.609   3.222   4.457 -1.3763  0.0460  0.6237
 7038TIP3   OH242604   2.433   4.865  12.078  0.1540 -0.1677  0.1004
 7038TIP3    H142605   2.528   4.865  12.091  0.1205  0.5390  0.3803
 7038TIP3    H242606   2.400   4.803  12.143  0.1863  1.7044  1.9709
 7039TIP3   OH242607   6.100   2.847   2.586 -0.2123  0.8346 -0.0599
 7039TIP3    H142608   6.018   2.867   2.632 -0.0600  1.2219  0.0429
 7039TIP3    H242609   6.159   2.817   2.655 -0.6103 -0.5170 -0.2892
 7040TIP3   OH242610   0.631   5.883   4.654 -0.5016  0.3266  0.3693
 7040TIP3    H142611   0.555   5.928   4.692 -0.7755  0.8298 -0.7684
 7040TIP3    H242612   0.687   5.953   4.620 -0.6436 -0.1506 -0.8740
 7041TIP3   OH242613   5.802   2.992  12.633  0.0777  0.0928 -0.0745
 7041TIP3    H142614   5.849   2.920  12.677 -0.0307 -1.7727 -2.9034
 7041TIP3    H242615   5.834   3.071  12.676  1.7419 -1.5062  1.7366
 7042TIP3   OH242616   4.289   2.234   2.894  0.2094  0.2431  0.0282
 7042TIP3    H142617   4.231   2.306   2.869 -0.6850 -0.8215 -1.0487
 7042TIP3    H242618   4.258   2.207   2.980  0.3679  0.9625  0.3151
 7043TIP3   OH242619   1.950   5.968   3.314  0.3982  0.8124  0.5377
 7043TIP3    H142620   1.921   5.877   3.314  0.3105  0.8197 -1.0522
 7043TIP3    H242621   1.902   6.008   3.387 -1.8458  0.2753 -0.5955
 7044TIP3   OH242622   4.457   5.357   0.525 -0.2941 -0.0997  0.1331
 7044TIP3    H142623   4.503   5.283   0.486  0.1938  0.4189 -0.2849
 7044TIP3    H242624   4.378   5.368   0.471  0.9391  1.3271 -1.4312
 7045TIP3   OH242625   2.595   3.782  16.297  0.3506 -0.2429  0.0761
 7045TIP3    H142626   2.530   3.712  16.307  0.7501 -0.9417 -1.9789
 7045TIP3    H242627   2.673   3.738  16.264  0.3910  1.2533 -1.8812
 7046TIP3   OH242628   5.412   0.819   5.365 -0.4187 -0.4027  0.3465
 7046TIP3    H142629   5.349   0.890   5.377 -1.3559 -1.2270  0.3353
 7046TIP3    H242630   5.478   0.855   5.306 -1.0587  0.3458  0.0809
 7047TIP3   OH242631   3.216   6.453  16.597  0.1409 -0.2464  0.2102
 7047TIP3    H142632   3.174   6.371  16.626 -0.9195 -0.5080 -1.9689
 7047TIP3    H242633   3.150   6.520  16.611  0.3145 -0.0681  0.1793
 7048TIP3   OH242634   0.573   2.655   6.053 -0.2838 -0.5977  0.4833
 7048TIP3    H142635   0.541   2.620   6.136 -1.6004 -2.7720 -0.9041
 7048TIP3    H242636   0.517   2.615   5.987  1.5606  0.1174 -1.5644
 7049TIP3   OH242637   6.419   5.814  12.649  0.0599 -0.0013 -0.8587
 7049TIP3    H142638   6.380   5.894  12.613  0.3229 -0.4324 -2.1172
 7049TIP3    H242639   6.473   5.845  12.722  0.8346  1.0782 -1.8626
 7050TIP3   OH242640   4.936   6.626   3.606 -0.5766 -0.0664  0.0848
 7050TIP3    H142641   4.904   6.593   3.690 -0.9218 -1.7474 -0.6840
 7050TIP3    H242642   4.976   6.550   3.565  0.1043  0.8867 -1.0409
 7051TIP3   OH242643   6.040   2.065   6.170 -0.3655  0.2043  0.3419
 7051TIP3    H142644   6.004   2.044   6.256 -1.9908  1.4578 -0.0019
 7051TIP3    H242645   5.968   2.108   6.124  0.8496  0.5999 -1.2371
 7052TIP3   OH242646   1.892   1.774   5.840  0.2876 -0.5193 -0.1159
 7052TIP3    H142647   1.822   1.783   5.904 -1.3180  0.8753 -1.9904
 7052TIP3    H242648   1.973   1.790   5.889 -1.0425  3.0882  1.0718
 7053TIP3   OH242649   6.715   5.365   3.682  0.3284 -0.1650  0.5348
 7053TIP3    H142650   6.801   5.338   3.713  1.1372 -0.4089 -1.8126
 7053TIP3    H242651   6.731   5.449   3.638 -0.8783  0.4570  1.2646
 7054TIP3   OH242652   1.797   3.205  16.739  0.2943  0.6463 -0.4950
 7054TIP3    H142653   1.782   3.251  16.821 -2.2899  0.2681 -0.7237
 7054TIP3    H242654   1.730   3.239  16.679  0.9893 -0.3767 -1.8931
 7055TIP3   OH242655   4.886   4.860   5.847  0.4466  1.0826 -0.0601
 7055TIP3    H142656   4.847   4.781   5.811  1.5299  0.8777 -0.7958
 7055TIP3    H242657   4.954   4.829   5.907  0.2063  1.4473  0.4095
 7056TIP3   OH242658   5.498   3.524   0.161 -0.3082  0.4628 -0.3340
 7056TIP3    H142659   5.504   3.445   0.108  0.0260 -0.1428  0.5980
 7056TIP3    H242660   5.444   3.584   0.109 -1.9265 -0.9670 -0.3431
 7057TIP3   OH242661   5.672   5.559  12.200  0.1309 -0.6385  0.1799
 7057TIP3    H142662   5.667   5.654  12.192 -1.3357 -0.7503 -0.3948
 7057TIP3    H242663   5.755   5.535  12.159  0.2589  0.3401 -0.1332
 7058TIP3   OH242664   4.921   2.604  15.023 -0.0364  0.2460 -0.0705
 7058TIP3    H142665   4.833   2.578  15.051 -0.0236  2.1497  1.7660
 7058TIP3    H242666   4.954   2.526  14.977 -1.9279 -1.1827  0.8900
 7059TIP3   OH242667   3.130   2.740  11.563 -0.5459  0.7755 -0.6645
 7059TIP3    H142668   3.058   2.720  11.503 -1.9590  2.1316  0.5355
 7059TIP3    H242669   3.097   2.812  11.616  1.6907  1.3470 -0.0307
 7060TIP3   OH242670   0.943   6.750  16.700  0.0820 -0.2997 -0.0303
 7060TIP3    H142671   0.992   6.826  16.732 -1.8870  1.7578 -1.7739
 7060TIP3    H242672   0.957   6.750  16.606 -0.0148 -2.0690 -0.0590
 7061TIP3   OH242673   4.659   1.441  11.987  0.0913 -0.2684 -0.4882
 7061TIP3    H142674   4.692   1.484  12.065  2.0578 -0.4630 -1.1955
 7061TIP3    H242675   4.569   1.417  12.010  0.4244  0.2381  1.4779
 7062TIP3   OH242676   5.328   3.306  11.031 -0.5783  0.4504  0.0276
 7062TIP3    H142677   5.375   3.363  10.972 -0.8980  1.6454  0.9097
 7062TIP3    H242678   5.252   3.357  11.060 -1.1871 -0.6170  0.3741
 7063TIP3   OH242679   1.326   0.421   3.757 -0.5700 -0.0200  0.1591
 7063TIP3    H142680   1.267   0.347   3.771 -0.3816 -0.3439 -0.7437
 7063TIP3    H242681   1.413   0.383   3.768 -0.4986  0.2572  0.5509
 7064TIP3   OH242682   5.986   1.215  12.646  0.0056  0.5696 -0.2772
 7064TIP3    H142683   5.919   1.279  12.624  0.6627  1.1669 -0.5865
 7064TIP3    H242684   5.957   1.175  12.728  0.7682  2.9490  1.1782
 7065TIP3   OH242685   1.019   4.464   3.450 -0.3729 -0.2679 -0.9904
 7065TIP3    H142686   1.011   4.448   3.544 -0.2332  3.2939 -0.2964
 7065TIP3    H242687   0.929   4.482   3.422 -0.0091  1.8099 -0.8767
 7066TIP3   OH242688   3.350   0.068  16.636  0.0314  0.2022  0.2697
 7066TIP3    H142689   3.340   0.163  16.641 -0.3181  0.2534 -1.3476
 7066TIP3    H242690   3.359   0.049  16.543  1.4877 -1.2218  0.6629
 7067TIP3   OH242691   5.044   2.041  15.255 -0.4872  0.1415  0.0549
 7067TIP3    H142692   4.986   2.022  15.181  0.5241 -1.7479 -0.2795
 7067TIP3    H242693   5.102   2.110  15.223  0.1680 -0.9023 -1.0634
 7068TIP3   OH242694   3.144   5.939  16.410 -0.2400  0.0448 -0.3099
 7068TIP3    H142695   3.221   5.884  16.394 -0.4388 -1.1097  2.2900
 7068TIP3    H242696   3.153   5.966  16.502 -1.9931  1.4237 -0.5130
 7069TIP3   OH242697   4.904   4.329  17.127 -0.3765 -0.0878 -0.2489
 7069TIP3    H142698   4.933   4.343  17.217  1.1999 -1.6980 -0.4793
 7069TIP3    H242699   4.822   4.281  17.135  0.3676 -1.2866  0.3303
 7070TIP3   OH242700   3.667   4.918  15.697 -0.6061 -0.3120  0.1997
 7070TIP3    H142701   3.645   4.873  15.778  1.4613  1.2158  1.6474
 7070TIP3    H242702   3.702   5.003  15.725  0.1482  0.2392 -2.2817
 7071TIP3   OH242703   1.728   2.972   4.879  0.2729 -0.1039 -0.0610
 7071TIP3    H142704   1.780   3.011   4.809  0.4904 -0.6846 -0.2200
 7071TIP3    H242705   1.792   2.926   4.933  0.0650  0.0887  0.3530
 7072TIP3   OH242706   3.990   2.190   4.508 -0.3623  0.5642  0.4670
 7072TIP3    H142707   3.950   2.200   4.594 -0.1161 -2.7759  1.0271
 7072TIP3    H242708   4.081   2.218   4.519 -0.6117  1.1798  0.9918
 7073TIP3   OH242709   2.568   4.351   0.301  0.2608  0.0770  0.2595
 7073TIP3    H142710   2.663   4.341   0.289  0.2667  0.5654 -0.1696
 7073TIP3    H242711   2.558   4.439   0.338 -0.0224  0.0371  0.2787
 7074TIP3   OH242712   1.562   5.462  10.613  0.1302 -0.0438  0.0629
 7074TIP3    H142713   1.494   5.416  10.662  0.9767  0.1883  1.4651
 7074TIP3    H242714   1.521   5.544  10.587 -0.1920  0.0083  0.7241
 7075TIP3   OH242715   3.203   1.644   4.730 -0.1543 -0.3675  0.0473
 7075TIP3    H142716   3.273   1.581   4.745  0.5059  0.2504 -0.4025
 7075TIP3    H242717   3.137   1.622   4.795  0.0096 -1.6075 -0.1990
 7076TIP3   OH242718   0.083   0.661   3.564  0.4625  0.7743  0.2483
 7076TIP3    H142719   0.125   0.669   3.478  0.5753 -0.1490  0.2123
 7076TIP3    H242720   0.124   0.584   3.603 -1.2746 -0.2099  0.1655
 7077TIP3   OH242721   6.322   3.705  17.081 -0.0481  0.3308  0.5682
 7077TIP3    H142722   6.324   3.701  17.176 -1.9536 -2.3378  0.5505
 7077TIP3    H242723   6.413   3.691  17.054  0.3564  0.2504  1.9664
 7078TIP3   OH242724   0.085   2.695  13.815 -0.4603  0.2729 -0.5055
 7078TIP3    H142725   0.132   2.700  13.898 -0.2840  0.2389 -0.6029
 7078TIP3    H242726   0.152   2.673  13.750 -0.8840 -1.4228 -0.3909
 7079TIP3   OH242727   1.302   6.404  10.738  0.4652 -0.2326  0.5527
 7079TIP3    H142728   1.299   6.429  10.646  1.6587 -1.0314  0.2881
 7079TIP3    H242729   1.356   6.472  10.780 -2.2401  1.6145  1.1799
 7080TIP3   OH242730   2.185   3.741   4.452  0.0741 -0.0747 -0.0211
 7080TIP3    H142731   2.126   3.763   4.524  1.0423  0.8773  0.4978
 7080TIP3    H242732   2.136   3.764   4.373 -0.5371  0.0071  0.3792
 7081TIP3   OH242733   1.937   5.390  12.421 -0.1529 -0.1687  0.1724
 7081TIP3    H142734   1.888   5.441  12.485 -0.8772  0.2423 -0.6875
 7081TIP3    H242735   1.996   5.453  12.380  1.6200 -0.8095  1.6993
 7082TIP3   OH242736   1.420   4.588   5.238  0.7124 -0.3438  0.3992
 7082TIP3    H142737   1.472   4.668   5.239  0.1656  0.0584 -1.2740
 7082TIP3    H242738   1.442   4.546   5.154 -0.9919 -0.6026  0.0587
 7083TIP3   OH242739   2.576   1.044  13.545  1.0432  0.5518 -0.2193
 7083TIP3    H142740   2.612   0.969  13.496 -0.1366 -0.3261  0.2429
 7083TIP3    H242741   2.626   1.045  13.627  0.9470  0.1643 -0.1534
 7084TIP3   OH242742   4.520   5.791  17.022  0.5041  0.1111 -0.1218
 7084TIP3    H142743   4.559   5.877  17.037  0.7011  0.2423 -1.3549
 7084TIP3    H242744   4.426   5.808  17.016  0.3912  0.0228  1.1359
 7085TIP3   OH242745   5.800   5.851   1.455  0.3170 -0.5218  0.1098
 7085TIP3    H142746   5.749   5.791   1.401  0.4298 -0.7493  0.2544
 7085TIP3    H242747   5.863   5.794   1.500  0.2342 -0.3322  0.4679
 7086TIP3   OH242748   1.180   0.861  14.434 -0.1484  0.1146 -0.3371
 7086TIP3    H142749   1.273   0.876  14.446 -0.5704  1.2625  1.7388
 7086TIP3    H242750   1.173   0.769  14.408  1.6610  0.4708 -2.2056
 7087TIP3   OH242751   6.027   3.444   3.370 -0.4769  0.3416 -0.5595
 7087TIP3    H142752   6.016   3.478   3.459  1.2485 -2.8379  0.9482
 7087TIP3    H242753   6.104   3.490   3.336  1.5881 -1.6134  1.3011
 7088TIP3   OH242754   0.907   4.617  13.096  0.4766  0.6815  0.0578
 7088TIP3    H142755   0.889   4.579  13.011  0.0595  1.3675 -0.1681
 7088TIP3    H242756   0.991   4.579  13.123  0.5158  0.3285 -0.5720
 7089TIP3   OH242757   6.255   1.493   4.278  0.5744  0.1537  0.0965
 7089TIP3    H142758   6.178   1.535   4.239  0.6256  0.4082  0.2682
 7089TIP3    H242759   6.264   1.535   4.364 -0.1663 -1.1310  0.8219
 7090TIP3   OH242760   4.634   0.726  15.764 -0.6956  0.3911  0.4812
 7090TIP3    H142761   4.673   0.737  15.851  0.7450  3.2324 -0.4804
 7090TIP3    H242762   4.561   0.787  15.762 -2.4581 -1.6512  0.6302
 7091TIP3   OH242763   1.482   4.691  15.024  0.0251  1.1563  0.4268
 7091TIP3    H142764   1.402   4.702  15.076 -0.6339  0.5760 -0.4295
 7091TIP3    H242765   1.553   4.703  15.086 -0.7395  0.2821  1.5072
 7092TIP3   OH242766   5.127   1.547   4.492 -0.3796  0.3962 -0.6987
 7092TIP3    H142767   5.150   1.488   4.564 -0.7716 -0.7421 -1.4757
 7092TIP3    H242768   5.140   1.635   4.527 -2.7467 -0.0659  1.5236
 7093TIP3   OH242769   1.695   2.900  12.183  0.2783 -0.4665 -0.4065
 7093TIP3    H142770   1.724   2.982  12.224 -0.9529  0.3755 -1.1940
 7093TIP3    H242771   1.651   2.852  12.253 -0.4689  0.2863 -0.3540
 7094TIP3   OH242772   6.410   4.153   2.671  0.8488  0.0901  0.0153
 7094TIP3    H142773   6.414   4.248   2.661 -0.7097  0.0315 -1.3534
 7094TIP3    H242774   6.338   4.138   2.733  1.5189 -0.1788  0.7381
 7095TIP3   OH242775   4.620   0.660  12.431  0.0769 -0.0099  0.4748
 7095TIP3    H142776   4.584   0.591  12.376 -1.2005  0.0495  1.2062
 7095TIP3    H242777   4.586   0.741  12.392 -1.4041 -0.0032  1.7222
 7096TIP3   OH242778   6.756   2.713  16.895 -0.3660  0.7486 -0.3506
 7096TIP3    H142779   6.852   2.718  16.902 -0.2273 -2.2611  0.8827
 7096TIP3    H242780   6.741   2.683  16.805  0.1156 -2.7638  0.6746
 7097TIP3   OH242781   2.396   2.276   1.261 -0.3796 -0.2474  0.1512
 7097TIP3    H142782   2.341   2.343   1.222  0.4888  0.4541  0.1222
 7097TIP3    H242783   2.473   2.271   1.204  0.6041  0.3367  1.4096
 7098TIP3   OH242784   2.769   0.533  11.028  0.1632 -0.3738  0.8147
 7098TIP3    H142785   2.680   0.554  11.057  0.2024  0.2233  0.5087
 7098TIP3    H242786   2.817   0.616  11.034 -0.2741  0.2003 -2.5332
 7099TIP3   OH242787   4.316   0.988  10.392  0.1396  0.1471 -0.3232
 7099TIP3    H142788   4.262   1.064  10.369 -1.0563 -0.3829  0.7044
 7099TIP3    H242789   4.406   1.023  10.394 -0.2858  1.3039 -0.8225
 7100TIP3   OH242790   1.357   6.586   1.551  0.0267  0.2949  0.1237
 7100TIP3    H142791   1.378   6.492   1.556  2.2536  0.7400 -0.7451
 7100TIP3    H242792   1.441   6.630   1.553 -0.9734  2.2697 -0.3762
 7101TIP3   OH242793   5.650   5.603   3.464 -0.0736  0.0626  0.8917
 7101TIP3    H142794   5.594   5.676   3.440  0.6609  0.3453 -0.0037
 7101TIP3    H242795   5.738   5.640   3.467 -0.0164 -0.1475  3.2347
 7102TIP3   OH242796   1.496   0.421   3.034 -0.4197  0.4850 -0.1127
 7102TIP3    H142797   1.579   0.447   2.993  0.5266  0.5040  1.7547
 7102TIP3    H242798   1.495   0.325   3.027 -0.2825  0.4904 -0.2073
 7103TIP3   OH242799   5.529   3.748   0.743  0.2108  0.1763 -0.1339
 7103TIP3    H142800   5.579   3.684   0.693  0.0569  0.6191 -0.8653
 7103TIP3    H242801   5.592   3.785   0.805  1.0414  1.3384 -1.6081
 7104TIP3   OH242802   4.597   0.215  14.514  0.3919 -0.6618  0.0784
 7104TIP3    H142803   4.588   0.225  14.608 -1.1432 -0.5708 -0.0598
 7104TIP3    H242804   4.691   0.210  14.498  0.7398  1.3699  1.4027
 7105TIP3   OH242805   1.644   6.645  16.619 -0.0669 -0.2237  0.5628
 7105TIP3    H142806   1.669   6.649  16.712  1.4145  1.5162  0.1186
 7105TIP3    H242807   1.705   6.581  16.581  1.1689  1.0948  0.2701
 7106TIP3   OH242808   1.415   5.729   2.331 -0.4108  0.4216 -0.0721
 7106TIP3    H142809   1.452   5.763   2.413 -0.3797  1.8364 -0.6684
 7106TIP3    H242810   1.425   5.634   2.339 -0.0356  0.5615  1.3923
 7107TIP3   OH242811   4.789   4.630  16.045  0.2141  0.3194 -0.1135
 7107TIP3    H142812   4.810   4.558  15.986 -0.0157 -0.7097  1.0584
 7107TIP3    H242813   4.717   4.597  16.099 -1.5494  2.2762 -1.1966
 7108TIP3   OH242814   1.745   0.776  15.625 -0.3478 -0.1971  0.1407
 7108TIP3    H142815   1.835   0.806  15.618 -0.1408 -0.0599  2.7290
 7108TIP3    H242816   1.733   0.717  15.551  1.5131  0.6075 -0.8445
 7109TIP3   OH242817   4.667   5.660  16.771 -0.5329 -0.3658 -0.2339
 7109TIP3    H142818   4.579   5.622  16.763 -1.3528  1.4404 -0.0875
 7109TIP3    H242819   4.651   5.748  16.805  1.2630  0.3858 -1.3351
 7110TIP3   OH242820   2.759   4.685   2.363  0.8640  0.2083  0.0280
 7110TIP3    H142821   2.760   4.669   2.269  0.3190 -0.9221  0.2047
 7110TIP3    H242822   2.842   4.649   2.395  1.8785  2.2145 -0.2575
 7111TIP3   OH242823   3.492   2.448  13.563 -0.2323 -0.2680  0.6391
 7111TIP3    H142824   3.462   2.534  13.535  0.6482  0.1114  0.8364
 7111TIP3    H242825   3.526   2.462  13.651  1.0030 -0.5665  0.2285
 7112TIP3   OH242826   3.381   5.161   2.532 -0.0088 -0.8828  0.5796
 7112TIP3    H142827   3.470   5.131   2.513  0.8050 -0.5246  3.6286
 7112TIP3    H242828   3.388   5.257   2.532 -1.0686 -0.7482 -1.9949
 7113TIP3   OH242829   4.262   0.261  12.411 -0.3525 -0.7946  0.1569
 7113TIP3    H142830   4.351   0.287  12.387  0.3188 -1.6620  1.6577
 7113TIP3    H242831   4.252   0.290  12.501 -2.4062  1.2915 -0.7045
 7114TIP3   OH242832   2.257   1.654  15.027  0.0463  0.2921  0.4750
 7114TIP3    H142833   2.222   1.656  15.116  0.1469  2.2964  0.5001
 7114TIP3    H242834   2.180   1.653  14.971 -0.0196 -0.6370  0.5869
 7115TIP3   OH242835   6.404   6.694  13.685 -0.3939 -0.7952 -0.4125
 7115TIP3    H142836   6.371   6.643  13.759  2.5955 -0.1190  1.4544
 7115TIP3    H242837   6.477   6.642  13.650 -0.3973 -0.0832 -1.5245
 7116TIP3   OH242838   2.407   5.345  11.119 -0.4670  0.0568 -0.9391
 7116TIP3    H142839   2.458   5.364  11.040 -0.8403  0.1872 -1.1511
 7116TIP3    H242840   2.322   5.315  11.086 -0.1533 -1.2345 -0.6054
 7117TIP3   OH242841   2.163   3.776   2.497  0.7319 -0.5942  0.2364
 7117TIP3    H142842   2.133   3.686   2.482  0.7513 -1.1929  3.3704
 7117TIP3    H242843   2.137   3.795   2.587  4.3453  1.0724  1.0399
 7118TIP3   OH242844   5.474   0.496  16.673  0.0027  0.0603 -0.0726
 7118TIP3    H142845   5.489   0.550  16.595 -0.0728 -1.8523 -1.4603
 7118TIP3    H242846   5.562   0.475  16.704  0.0719 -0.5328 -0.6442
 7119TIP3   OH242847   3.805   0.604   2.195  0.5383 -0.0534  0.0892
 7119TIP3    H142848   3.730   0.625   2.140 -1.2093 -0.3981  2.2666
 7119TIP3    H242849   3.864   0.679   2.186 -0.8062  0.9584 -0.3857
 7120TIP3   OH242850   1.723   5.211  10.750  0.0709  0.7670  0.1611
 7120TIP3    H142851   1.701   5.253  10.833 -1.0162  0.0304  0.2574
 7120TIP3    H242852   1.684   5.268  10.684  0.9800  1.3797  0.1517
 7121TIP3   OH242853   3.138   6.693   3.124 -0.4892 -0.8408 -0.0909
 7121TIP3    H142854   3.106   6.690   3.215 -0.8522  0.0306 -0.1841
 7121TIP3    H242855   3.224   6.733   3.130 -0.1894 -1.4871 -0.0481
 7122TIP3   OH242856   2.586   4.282   5.805  0.3860  0.6421  0.5163
 7122TIP3    H142857   2.559   4.299   5.895  1.1125  0.6194  0.7401
 7122TIP3    H242858   2.682   4.284   5.808  0.4230 -0.0487 -0.1229
 7123TIP3   OH242859   1.641   2.092  14.412  0.2334 -0.1187 -0.3200
 7123TIP3    H142860   1.648   2.053  14.325 -0.2562  1.2162 -0.9820
 7123TIP3    H242861   1.575   2.161  14.402 -0.4257 -0.4671  1.3062
 7124TIP3   OH242862   3.316   5.537   0.067 -0.2181  0.8092  0.4231
 7124TIP3    H142863   3.247   5.483   0.107 -0.5268  0.9387  0.0598
 7124TIP3    H242864   3.382   5.545   0.136 -0.4590  0.4915  0.6940
 7125TIP3   OH242865   1.022   3.197   6.818 -0.2920  0.5789  0.1376
 7125TIP3    H142866   1.010   3.292   6.825  1.7968  0.8102  0.8502
 7125TIP3    H242867   1.057   3.183   6.731 -1.4164  0.3610 -0.2862
 7126TIP3   OH242868   0.550   6.577  11.052 -0.2128 -0.2882  0.3882
 7126TIP3    H142869   0.468   6.615  11.084  0.5625  0.5065  1.4438
 7126TIP3    H242870   0.586   6.643  10.993 -0.9163 -1.1444 -1.0289
 7127TIP3   OH242871   0.283   4.360   1.669 -0.1162  0.7259 -0.2677
 7127TIP3    H142872   0.360   4.416   1.679 -0.3708  0.9928  0.1650
 7127TIP3    H242873   0.317   4.281   1.625  0.4249  0.7913  0.0299
 7128TIP3   OH242874   5.946   1.328  11.653 -0.1828  0.2537  0.0581
 7128TIP3    H142875   6.011   1.295  11.715 -0.3555  0.4137  0.3261
 7128TIP3    H242876   5.956   1.423  11.656  0.5313  0.2164 -0.9532
 7129TIP3   OH242877   2.476   5.975  10.589  0.5873  0.0890  0.8425
 7129TIP3    H142878   2.545   5.909  10.594  2.0403  1.5973  0.9495
 7129TIP3    H242879   2.469   5.995  10.496  0.6148  0.2793  0.8824
 7130TIP3   OH242880   1.174   0.128  10.543  0.0998 -0.3154  0.6586
 7130TIP3    H142881   1.177   0.191  10.471 -0.7593 -0.0012  0.8958
 7130TIP3    H242882   1.180   0.043  10.500  0.4534 -0.1016  0.2765
 7131TIP3   OH242883   0.290   2.117   5.623 -0.1843  0.1111  0.4790
 7131TIP3    H142884   0.236   2.195   5.609 -0.1994  0.6443  3.2937
 7131TIP3    H242885   0.242   2.066   5.689 -0.1837 -2.3253 -1.3183
 7132TIP3   OH242886   5.121   1.162   4.471  0.2532  0.6091 -0.0240
 7132TIP3    H142887   5.208   1.199   4.485  1.2705 -1.5307 -0.5595
 7132TIP3    H242888   5.100   1.117   4.553  0.6970 -0.8982 -0.7096
 7133TIP3   OH242889   1.915   1.494  13.226  0.6715 -0.0765 -0.0796
 7133TIP3    H142890   1.851   1.427  13.202 -0.3840  1.8065 -2.8208
 7133TIP3    H242891   1.869   1.577  13.215  2.6198  1.2026  1.0624
 7134TIP3   OH242892   3.192   1.531  14.285  0.5716 -0.2951  0.5125
 7134TIP3    H142893   3.210   1.589  14.359  0.2565  0.5299 -0.0385
 7134TIP3    H242894   3.192   1.443  14.322  0.2307  0.1243  1.5246
 7135TIP3   OH242895   5.970   2.058   1.109 -0.2966 -0.1502  0.1653
 7135TIP3    H142896   6.009   2.143   1.087  0.3332 -0.5239 -0.1687
 7135TIP3    H242897   5.990   2.003   1.033  2.3917 -1.6311  1.8686
 7136TIP3   OH242898   2.766   2.954   2.714 -0.5233  0.3200  0.4979
 7136TIP3    H142899   2.780   2.867   2.679 -0.8014  0.6654 -0.4981
 7136TIP3    H242900   2.845   3.003   2.691 -0.3887  0.3465  1.0063
 7137TIP3   OH242901   5.137   4.090   2.811  0.0937 -0.3154 -0.3906
 7137TIP3    H142902   5.172   4.177   2.827 -0.6579  0.1606 -1.2476
 7137TIP3    H242903   5.184   4.033   2.871  1.0805  0.5783 -0.3111
 7138TIP3   OH242904   1.823   1.600  12.684 -0.5407  0.1805 -0.7925
 7138TIP3    H142905   1.893   1.568  12.741 -0.9331 -1.4115 -1.1722
 7138TIP3    H242906   1.755   1.630  12.744  0.5322  1.9022 -0.4225
 7139TIP3   OH242907   4.667   1.867   3.167 -0.3444 -0.2040  0.1786
 7139TIP3    H142908   4.634   1.788   3.124  0.9381  0.0988 -1.4139
 7139TIP3    H242909   4.680   1.929   3.095  1.1971  0.5425  1.0944
 7140TIP3   OH242910   1.733   4.326  12.748 -0.2049 -0.0653  0.7866
 7140TIP3    H142911   1.816   4.374  12.744 -0.7680  0.8055 -0.7754
 7140TIP3    H242912   1.666   4.394  12.755 -0.9596 -0.6329 -0.7499
 7141TIP3   OH242913   1.159   3.917   4.428  0.0410  0.2016 -0.1123
 7141TIP3    H142914   1.107   3.891   4.504  2.2506 -0.8259  1.1224
 7141TIP3    H242915   1.182   3.834   4.386  0.7577  0.6209 -0.5588
 7142TIP3   OH242916   6.588   6.741  14.198  0.1643  0.4917 -0.9958
 7142TIP3    H142917   6.651   6.709  14.263  0.2920  1.6121 -0.5619
 7142TIP3    H242918   6.638   6.744  14.117  0.3596  0.3041 -0.8839
 7143TIP3   OH242919   3.440   1.500   4.794 -0.0681  0.1047 -0.0628
 7143TIP3    H142920   3.520   1.519   4.842 -1.5461  2.8991  1.3688
 7143TIP3    H242921   3.394   1.436   4.848 -0.0086  0.4655  0.4130
 7144TIP3   OH242922   3.880   0.003   5.047 -0.1777 -0.4316 -0.0151
 7144TIP3    H142923   3.882  -0.021   4.954  2.9142 -1.4944  0.2808
 7144TIP3    H242924   3.958   0.057   5.060 -1.0645  0.4509  1.7804
 7145TIP3   OH242925   4.584   0.512  13.739  0.7089 -0.3012  0.3287
 7145TIP3    H142926   4.502   0.463  13.732  1.2019 -1.5074  2.6102
 7145TIP3    H242927   4.619   0.514  13.650 -0.8051 -1.4928 -0.3090
 7146TIP3   OH242928   2.965   2.635  17.084  0.1836  0.0397  0.0536
 7146TIP3    H142929   3.034   2.677  17.136 -0.4650  2.1652 -0.7751
 7146TIP3    H242930   2.931   2.566  17.142  0.6642  1.2161  1.7762
 7147TIP3   OH242931   4.546   1.058  17.002  0.2862  0.0175 -0.2993
 7147TIP3    H142932   4.455   1.035  17.021 -0.0372 -0.4408 -2.2909
 7147TIP3    H242933   4.596   1.010  17.068 -0.8503 -0.5199  0.2035
 7148TIP3   OH242934   6.027   2.298   4.023 -0.0204  0.4767  0.1565
 7148TIP3    H142935   6.099   2.333   3.970 -0.8983  2.8055  0.4746
 7148TIP3    H242936   6.056   2.310   4.114  0.9203 -2.3363  0.2971
 7149TIP3   OH242937   5.804   4.842   0.302  0.3205  0.1430 -0.2887
 7149TIP3    H142938   5.732   4.784   0.327  0.9215 -0.1669  0.7675
 7149TIP3    H242939   5.811   4.903   0.376  0.3851  0.8971 -0.9118
 7150TIP3   OH242940   4.955   5.039   0.637 -0.4430  0.5132  0.0818
 7150TIP3    H142941   4.931   5.047   0.544 -0.1719 -0.1070 -0.0393
 7150TIP3    H242942   5.012   4.963   0.641  0.4659  1.2089  0.5844
 7151TIP3   OH242943   6.392   3.336   2.026 -0.2754 -0.1540 -0.6634
 7151TIP3    H142944   6.394   3.370   1.936 -1.6649  0.4939 -0.4585
 7151TIP3    H242945   6.337   3.258   2.020 -1.2659  0.4986 -0.1816
 7152TIP3   OH242946   3.901   0.674  15.983 -0.2117 -0.3630 -0.6067
 7152TIP3    H142947   3.955   0.615  15.931  1.2580 -0.0390  0.5398
 7152TIP3    H242948   3.962   0.735  16.022 -1.3910 -0.0331  0.7691
 7153TIP3   OH242949   3.697   2.731   1.975 -0.2849 -0.2819 -0.9139
 7153TIP3    H142950   3.603   2.751   1.978 -0.7945 -2.5557 -0.7487
 7153TIP3    H242951   3.710   2.667   2.045  1.5205  0.4497 -0.5503
 7154TIP3   OH242952   1.729   2.261   5.469  0.4449  0.1721  0.4368
 7154TIP3    H142953   1.741   2.339   5.523  1.0262  0.7175 -0.4631
 7154TIP3    H242954   1.809   2.255   5.417 -0.2576 -0.1191 -0.6325
 7155TIP3   OH242955   5.371   1.335  14.911  0.0119  0.0186 -0.5301
 7155TIP3    H142956   5.343   1.298  14.827 -1.6338  1.2168 -0.5328
 7155TIP3    H242957   5.343   1.271  14.976 -0.8752  0.2298 -0.7014
 7156TIP3   OH242958   2.440   4.476   4.731 -0.4857 -0.1351  0.2713
 7156TIP3    H142959   2.528   4.440   4.742  0.2297  1.3699 -0.3249
 7156TIP3    H242960   2.425   4.526   4.812 -1.4906 -1.7750  1.1190
 7157TIP3   OH242961   4.362   2.583  13.495  0.4938  0.2860  0.0434
 7157TIP3    H142962   4.276   2.547  13.518  0.4455  0.6472  0.4355
 7157TIP3    H242963   4.346   2.677  13.484  0.5837  0.1664 -1.1456
 7158TIP3   OH242964   4.292   4.751  13.009 -0.3457  0.3148 -0.0234
 7158TIP3    H142965   4.312   4.705  13.091 -0.6668 -0.5273 -0.4103
 7158TIP3    H242966   4.377   4.779  12.976 -0.1319 -0.0923  0.1702
 7159TIP3   OH242967   1.856   0.603   6.758 -0.4922  0.1131 -0.0803
 7159TIP3    H142968   1.776   0.553   6.773 -0.0728 -0.4192  0.4173
 7159TIP3    H242969   1.888   0.572   6.673  0.5692 -1.5841  0.9081
 7160TIP3   OH242970   6.289   0.645   5.908  0.2869 -0.2411  0.3290
 7160TIP3    H142971   6.358   0.628   5.972  1.6646  1.1658 -0.7258
 7160TIP3    H242972   6.209   0.651   5.959  1.4885  1.7606  2.0557
 7161TIP3   OH242973   0.687   3.828  11.014  0.5534  0.1388  0.1680
 7161TIP3    H142974   0.653   3.757  11.070  1.4540 -2.7675 -2.7885
 7161TIP3    H242975   0.610   3.856  10.963  0.7088 -0.5098 -0.4421
 7162TIP3   OH242976   0.151   0.478   5.333  0.5537 -0.2707  0.2728
 7162TIP3    H142977   0.115   0.432   5.409 -0.0470 -0.6217 -0.2204
 7162TIP3    H242978   0.244   0.485   5.352  0.4000 -0.3094  1.0703
 7163TIP3   OH242979   6.264   4.941  14.665  0.1680  0.1169  0.7428
 7163TIP3    H142980   6.349   4.902  14.643 -1.3761 -2.6039 -0.6626
 7163TIP3    H242981   6.217   4.943  14.582 -0.2602  4.1138  0.9586
 7164TIP3   OH242982   2.134   6.749   4.787  0.9184  0.3546  0.4435
 7164TIP3    H142983   2.178   6.750   4.872 -0.2457 -0.2250  1.0656
 7164TIP3    H242984   2.194   6.701   4.729 -0.1232 -2.9758  1.9806
 7165TIP3   OH242985   0.558   3.036   0.436  0.1882 -0.4080 -0.2363
 7165TIP3    H142986   0.581   3.048   0.528 -1.0292 -2.0295  0.3022
 7165TIP3    H242987   0.629   2.983   0.400  1.2893  1.2528 -0.5514
 7166TIP3   OH242988   6.052   1.734   1.115 -0.0041  0.3626 -0.2711
 7166TIP3    H142989   5.984   1.673   1.087  0.2270  0.2360 -0.5525
 7166TIP3    H242990   6.004   1.812   1.143 -0.3536 -0.2592  0.9023
 7167TIP3   OH242991   5.873   5.330   4.630  0.4410 -0.3069 -0.4298
 7167TIP3    H142992   5.962   5.294   4.631 -0.5935 -2.9866 -0.9170
 7167TIP3    H242993   5.833   5.299   4.711 -0.4609 -0.1784 -0.8173
 7168TIP3   OH242994   0.088   2.573   6.794  0.8729  0.3085  0.5268
 7168TIP3    H142995   0.098   2.497   6.852  1.3480 -0.1972 -0.1998
 7168TIP3    H242996   0.064   2.645   6.852  1.6989 -0.1071  1.3968
 7169TIP3   OH242997   6.090   1.891   3.462 -0.1234 -0.6487 -0.4603
 7169TIP3    H142998   6.038   1.908   3.540  0.8369 -0.2880  0.1084
 7169TIP3    H242999   6.053   1.810   3.425 -1.2812 -0.2276 -0.2492
 7170TIP3   OH243000   1.287   3.248  15.721 -0.1000 -0.2111  0.1005
 7170TIP3    H143001   1.315   3.218  15.807  0.6025 -1.0436 -0.4055
 7170TIP3    H243002   1.367   3.279  15.679 -0.1974 -1.0924 -0.7606
 7171TIP3   OH243003   2.281   6.237   1.888  0.7221  0.3283 -0.5578
 7171TIP3    H143004   2.268   6.312   1.831  2.2088  1.0634  0.0336
 7171TIP3    H243005   2.360   6.194   1.854 -1.7962 -2.8313 -2.8304
 7172TIP3   OH243006   2.380   1.046  12.063 -0.0470  0.7018 -0.5806
 7172TIP3    H143007   2.404   0.972  12.007  1.2479 -1.6853  2.9779
 7172TIP3    H243008   2.341   1.006  12.140 -1.6353  3.9083  0.3427
 7173TIP3   OH243009   3.321   2.799  14.328  0.0204 -0.1023  0.8910
 7173TIP3    H143010   3.305   2.769  14.239 -0.3464 -1.6120  1.4642
 7173TIP3    H243011   3.246   2.768  14.378  0.3595  0.5086  1.7908
 7174TIP3   OH243012   2.364   4.249   0.123 -0.1723  0.1222  0.0372
 7174TIP3    H143013   2.431   4.245   0.192  0.2514 -1.4507 -0.4594
 7174TIP3    H243014   2.408   4.292   0.050 -0.1808  0.4957  0.2514
 7175TIP3   OH243015   5.606   5.658   0.577  0.1946 -0.2576  0.1519
 7175TIP3    H143016   5.635   5.725   0.639  1.4160 -1.7133  1.2029
 7175TIP3    H243017   5.544   5.605   0.628  0.6847 -1.0550 -0.0832
 7176TIP3   OH243018   0.594   5.791  12.064 -0.1117  0.0346  0.4397
 7176TIP3    H143019   0.556   5.810  11.978  1.0649 -0.7337 -0.2503
 7176TIP3    H243020   0.518   5.791  12.123 -1.0152 -0.1062 -0.6952
 7177TIP3   OH243021   0.684   2.383  15.049 -0.3587  0.0397 -0.1806
 7177TIP3    H143022   0.600   2.430  15.042  0.3830  1.3280 -0.7287
 7177TIP3    H243023   0.668   2.314  15.113 -2.2983 -0.7455 -1.4516
 7178TIP3   OH243024   5.673   3.557  17.184 -0.1272 -0.2956  0.2679
 7178TIP3    H143025   5.719   3.546  17.100 -1.2866 -0.1980 -0.3908
 7178TIP3    H243026   5.734   3.524  17.249  0.6839 -0.6245 -0.6456
 7179TIP3   OH243027   3.592   2.105  12.500  0.2361  0.0875  0.3131
 7179TIP3    H143028   3.608   2.031  12.441 -0.2519  0.0994  0.1667
 7179TIP3    H243029   3.669   2.160  12.490  0.1749  0.0727 -0.2926
 7180TIP3   OH243030   0.319   1.338  12.303  0.1906  0.0473  0.5186
 7180TIP3    H143031   0.311   1.391  12.382 -1.0777  2.2333 -1.0482
 7180TIP3    H243032   0.373   1.391  12.244 -0.2401 -0.8625 -0.7043
 7181TIP3   OH243033   5.628   3.419   1.247 -0.6236 -0.2050 -0.0146
 7181TIP3    H143034   5.561   3.416   1.178  0.5572 -2.0531 -1.1301
 7181TIP3    H243035   5.683   3.343   1.229  1.8438  1.3531  0.8169
 7182TIP3   OH243036   1.316   0.198   3.927  0.6522  0.7907 -0.1017
 7182TIP3    H143037   1.246   0.241   3.975  1.3561 -0.2633  1.9467
 7182TIP3    H243038   1.293   0.105   3.931  0.9133  0.6626 -1.5156
 7183TIP3   OH243039   0.416   6.488  14.156 -0.2966  0.4819  0.0243
 7183TIP3    H143040   0.388   6.420  14.217  2.5605 -2.2314 -1.5651
 7183TIP3    H243041   0.357   6.562  14.174 -3.9704 -2.5977  1.3122
 7184TIP3   OH243042   6.694   1.018  14.468  0.1095  0.4944 -0.0153
 7184TIP3    H143043   6.720   1.084  14.532 -0.1748 -0.2298  0.8538
 7184TIP3    H243044   6.771   0.962  14.459  0.7559  1.5832 -1.6079
 7185TIP3   OH243045   3.957   1.581  14.334 -0.2345 -0.1671 -0.1466
 7185TIP3    H143046   3.925   1.640  14.266  1.9211  0.2687 -0.7908
 7185TIP3    H243047   3.938   1.628  14.416  0.0981  0.7396 -0.5857
 7186TIP3   OH243048   3.650   0.759  13.754 -0.2460 -0.4516 -0.4880
 7186TIP3    H143049   3.694   0.840  13.778 -2.3467  0.5424  0.1473
 7186TIP3    H243050   3.638   0.765  13.659 -0.3432 -0.0504 -0.4496
 7187TIP3   OH243051   0.249   5.247   0.533 -0.4629 -0.0815  0.6901
 7187TIP3    H143052   0.156   5.235   0.514 -0.3825 -1.7585  1.2851
 7187TIP3    H243053   0.255   5.337   0.566 -1.9638 -0.1560  1.2224
 7188TIP3   OH243054   0.228   3.290   5.240 -0.1455  0.0401  0.3667
 7188TIP3    H143055   0.269   3.360   5.290 -0.6071  0.3861  0.2618
 7188TIP3    H243056   0.160   3.333   5.189  0.6283 -0.2395 -0.9218
 7189TIP3   OH243057   6.738   0.162   1.341  0.4092  0.1019 -0.2321
 7189TIP3    H143058   6.784   0.081   1.317 -0.3153 -0.0849 -1.0784
 7189TIP3    H243059   6.806   0.228   1.348  1.0411 -0.6548  0.7505
 7190TIP3   OH243060   4.723   0.788   3.313  0.1600 -0.3436 -0.1517
 7190TIP3    H143061   4.684   0.855   3.369  0.3454  1.7269 -2.3785
 7190TIP3    H243062   4.658   0.719   3.308 -0.6865  0.3563  0.9823
 7191TIP3   OH243063   3.254   6.606   1.791  1.0372  0.1709 -0.7062
 7191TIP3    H143064   3.295   6.668   1.731 -1.7071  2.9814  0.1841
 7191TIP3    H243065   3.173   6.580   1.748  0.8436 -0.6896  0.1495
 7192TIP3   OH243066   3.794   1.954   1.545 -0.3445 -0.1085 -0.3867
 7192TIP3    H143067   3.734   1.880   1.532 -1.2592  0.8797 -1.8820
 7192TIP3    H243068   3.749   2.010   1.607 -0.3377 -0.0569 -0.4288
 7193TIP3   OH243069   2.670   0.302  11.109  0.9542  0.1294  0.3197
 7193TIP3    H143070   2.720   0.383  11.101  1.2912 -0.0290  0.7450
 7193TIP3    H243071   2.629   0.290  11.024  3.4693 -0.9056 -0.8265
 7194TIP3   OH243072   4.340   5.491   3.343 -0.2612 -0.4140 -0.2281
 7194TIP3    H143073   4.407   5.557   3.328 -0.0992 -0.3794  0.6070
 7194TIP3    H243074   4.291   5.486   3.261 -1.4689  2.0896  0.2953
 7195TIP3   OH243075   3.914   2.101   2.179  0.6812 -0.4471 -0.0106
 7195TIP3    H143076   3.919   2.107   2.083 -0.7047 -0.8926 -0.1255
 7195TIP3    H243077   3.969   2.027   2.202  1.0911 -0.2829 -0.4567
 7196TIP3   OH243078   6.586   4.243  14.095  0.1882  0.0873 -0.0613
 7196TIP3    H143079   6.559   4.152  14.086  0.7965 -0.2721  1.5252
 7196TIP3    H243080   6.508   4.288  14.127 -0.5824  0.4581 -2.3642
 7197TIP3   OH243081   1.834   6.652  13.427 -0.3518 -0.2858  0.7503
 7197TIP3    H143082   1.892   6.668  13.502 -1.1316 -0.3791  1.3801
 7197TIP3    H243083   1.836   6.734  13.378  0.4040 -0.3285  0.7118
 7198TIP3   OH243084   4.753   4.374   1.179 -0.4756  0.7167 -0.1654
 7198TIP3    H143085   4.689   4.335   1.239 -0.0987 -0.3080 -0.4088
 7198TIP3    H243086   4.716   4.459   1.156 -0.4643  1.2459  1.7534
 7199TIP3   OH243087   5.892   3.743  14.201 -0.5602  1.3340 -0.2325
 7199TIP3    H143088   5.871   3.796  14.124 -0.0990 -0.0665 -1.3459
 7199TIP3    H243089   5.851   3.658  14.183  2.1445 -0.0090 -0.3719
 7200TIP3   OH243090   2.451   4.510  14.211  0.2415  0.4077  0.7749
 7200TIP3    H143091   2.410   4.595  14.227  2.9169  1.8500  0.3305
 7200TIP3    H243092   2.440   4.496  14.117  0.4452  0.6149  0.7202
 7201TIP3   OH243093   0.730   0.206  11.435  0.1198  0.2988  0.2521
 7201TIP3    H143094   0.779   0.226  11.515 -0.3152  0.5051  0.4674
 7201TIP3    H243095   0.643   0.181  11.465  0.4139 -1.1665 -0.0624
 7202TIP3   OH243096   5.376   1.316  13.267  0.3431 -0.0798 -0.5129
 7202TIP3    H143097   5.456   1.348  13.226  0.6675  1.1585  1.0437
 7202TIP3    H243098   5.396   1.225  13.290  1.2198  0.1425 -0.3733
 7203TIP3   OH243099   3.725   1.288   1.936 -0.0091  0.5556 -0.2508
 7203TIP3    H143100   3.751   1.229   1.866 -0.5263 -0.3446  0.3021
 7203TIP3    H243101   3.765   1.372   1.913  1.4989 -0.2301 -0.5718
 7204TIP3   OH243102   5.939   1.520   3.529  0.1772  0.0751 -0.3774
 7204TIP3    H143103   5.862   1.538   3.583  0.9618  0.1298  0.7347
 7204TIP3    H243104   6.013   1.536   3.587  1.0009 -1.6336 -0.9188
 7205TIP3   OH243105   2.546   3.684   1.742  0.5469  0.4922  0.1800
 7205TIP3    H143106   2.563   3.751   1.675  0.7898  1.4084  1.1434
 7205TIP3    H243107   2.604   3.707   1.814  0.0664 -0.3077  0.8313
 7206TIP3   OH243108   3.325   3.659   4.153  0.3162 -0.2208 -0.4672
 7206TIP3    H143109   3.398   3.623   4.102  0.1967  0.4906 -1.1643
 7206TIP3    H243110   3.364   3.733   4.200  0.3804 -0.7606  0.3310
 7207TIP3   OH243111   4.124   2.262   4.174 -0.1070 -0.1003 -0.6079
 7207TIP3    H143112   4.212   2.232   4.195  0.4665  1.7999 -0.2665
 7207TIP3    H243113   4.103   2.325   4.243 -1.2056  0.4512 -1.4345
 7208TIP3   OH243114   6.658   1.570   1.282  0.1419  0.4012  0.4937
 7208TIP3    H143115   6.676   1.564   1.188 -0.8646  0.2158  0.3076
 7208TIP3    H243116   6.684   1.659   1.306  1.5351  0.0687  0.2960
 7209TIP3   OH243117   4.443   0.555   2.076  0.0034  0.6768  0.0723
 7209TIP3    H143118   4.369   0.495   2.084 -0.1626  0.8547 -0.1154
 7209TIP3    H243119   4.404   0.636   2.043  0.4055  0.5001 -0.8548
 7210TIP3   OH243120   3.041   1.686  12.241  0.3525 -0.1392 -0.4214
 7210TIP3    H143121   2.958   1.716  12.278  0.9114 -0.4942  1.1665
 7210TIP3    H243122   3.069   1.615  12.299  1.3159 -0.6347 -1.4771
 7211TIP3   OH243123   4.602   0.290  15.888  0.2031 -0.0355 -0.0858
 7211TIP3    H143124   4.642   0.347  15.953 -0.5707 -0.8500  1.1066
 7211TIP3    H243125   4.673   0.273  15.825  0.3152  2.6444 -0.7792
 7212TIP3   OH243126   6.512   2.044  17.249 -0.6026  0.3430  0.1231
 7212TIP3    H143127   6.446   2.052  17.180 -0.1867  0.7100 -0.2396
 7212TIP3    H243128   6.586   2.096  17.218  0.2729 -0.9295  0.0283
 7213TIP3   OH243129   6.466   2.551   5.307 -0.1959  0.3868 -0.8280
 7213TIP3    H143130   6.374   2.525   5.318 -0.3284  0.2579 -2.2044
 7213TIP3    H243131   6.462   2.635   5.260  0.4279 -0.5626 -2.6330
 7214TIP3   OH243132   1.531   3.549  17.158  0.4514 -0.4037  0.3826
 7214TIP3    H143133   1.583   3.517  17.084 -0.3586  0.7959 -0.7408
 7214TIP3    H243134   1.466   3.480  17.173 -0.5951  0.1767 -1.3073
 7215TIP3   OH243135   0.285   2.159  16.292 -0.8623  0.1149  0.2703
 7215TIP3    H143136   0.278   2.254  16.303 -1.4967  0.2959 -1.5603
 7215TIP3    H243137   0.303   2.146  16.199 -0.9840 -1.5685  0.4603
 7216TIP3   OH243138   0.530   3.593   1.537  0.3392 -0.1871 -0.1418
 7216TIP3    H143139   0.580   3.572   1.616  0.8953 -1.0384 -0.7090
 7216TIP3    H243140   0.471   3.519   1.526  0.4949 -0.2268 -0.7110
 7217TIP3   OH243141   2.791   1.461  14.749  0.0164 -0.1350 -0.2623
 7217TIP3    H143142   2.832   1.483  14.833 -0.1055  0.4233 -0.3443
 7217TIP3    H243143   2.731   1.534  14.733 -1.2342 -1.1002  0.0016
 7218TIP3   OH243144   3.923   1.508   2.180 -0.2145  0.1594  0.2723
 7218TIP3    H143145   3.989   1.546   2.238 -0.9528 -0.1478  1.3373
 7218TIP3    H243146   3.966   1.433   2.139  0.2976  0.3442  0.4743
 7219TIP3   OH243147   3.488   2.622  15.072 -0.5987 -0.0256  0.2283
 7219TIP3    H143148   3.428   2.618  15.146  0.7931 -0.4007  1.3495
 7219TIP3    H243149   3.496   2.532  15.042 -1.2384  0.1384 -0.4579
 7220TIP3   OH243150   6.638   3.735  15.314 -0.2085 -0.2098 -0.0464
 7220TIP3    H143151   6.559   3.787  15.298 -1.2907 -1.4434  1.1116
 7220TIP3    H243152   6.606   3.657  15.359  1.8847 -0.0126  1.8405
 7221TIP3   OH243153   6.579   5.892   2.346  0.0587  0.4851  0.6428
 7221TIP3    H143154   6.521   5.959   2.311  0.0675 -0.6862 -1.6789
 7221TIP3    H243155   6.536   5.810   2.326  1.7701 -0.3373  0.2117
 7222TIP3   OH243156   3.398   2.314   1.009  0.1079  0.1948  0.3034
 7222TIP3    H143157   3.388   2.345   0.919  1.2135 -2.1163 -0.6541
 7222TIP3    H243158   3.483   2.347   1.036  0.6191 -0.7091 -0.1818
 7223TIP3   OH243159   0.702   3.078  14.750  0.6341  0.0225 -0.1398
 7223TIP3    H143160   0.621   3.036  14.780  0.8524  0.1478  0.6383
 7223TIP3    H243161   0.673   3.142  14.686 -0.2173  2.3126  2.4253
 7224TIP3   OH243162   0.987   1.882   4.573  0.4341 -0.1047  0.0262
 7224TIP3    H143163   0.952   1.795   4.553 -2.0109  0.7090  0.5429
 7224TIP3    H243164   0.985   1.887   4.668  0.2723  0.6273 -0.0137
 7225TIP3   OH243165   0.965   0.036   5.731  0.1426  0.2456 -0.2877
 7225TIP3    H143166   1.044   0.075   5.693  1.2412  0.0873  1.7574
 7225TIP3    H243167   0.997  -0.039   5.782 -1.4151 -0.2620 -0.0231
 7226TIP3   OH243168   4.114   0.798  10.772 -0.3781 -0.4238  0.3135
 7226TIP3    H143169   4.043   0.745  10.809 -0.3521 -0.3470  0.4734
 7226TIP3    H243170   4.074   0.883  10.755 -0.2838 -0.3261  0.5647
 7227TIP3   OH243171   3.023   6.049   3.817 -1.0179 -0.1500  0.3383
 7227TIP3    H143172   3.011   6.099   3.898 -1.3262  1.1007 -0.4748
 7227TIP3    H243173   2.945   5.994   3.812 -0.2219 -1.4481  1.7332
 7228TIP3   OH243174   1.270   4.120  14.247  0.3462 -0.3620 -0.1480
 7228TIP3    H143175   1.227   4.123  14.333  0.9795  0.2103  0.1597
 7228TIP3    H243176   1.307   4.031  14.243  1.5159  0.0522  0.7931
 7229TIP3   OH243177   4.592   3.867  11.703 -0.3629 -0.0244  0.6306
 7229TIP3    H143178   4.520   3.804  11.706  0.4136 -0.9167  0.8572
 7229TIP3    H243179   4.662   3.821  11.656 -0.5806  1.5050 -1.2842
 7230TIP3   OH243180   5.715   2.354  13.306 -0.2727  0.2414  0.2280
 7230TIP3    H143181   5.810   2.340  13.306 -0.2279 -0.1324  4.4978
 7230TIP3    H243182   5.705   2.449  13.314 -0.3215  0.3453 -0.8879
 7231TIP3   OH243183   4.906   0.939  16.565  0.5896 -0.2627 -0.2791
 7231TIP3    H143184   4.873   0.978  16.646  0.2600 -0.9816 -0.0644
 7231TIP3    H243185   4.836   0.953  16.501  0.6391 -0.1488 -0.3087
 7232TIP3   OH243186   4.693   6.683  13.862 -0.1162 -0.3632  0.0607
 7232TIP3    H143187   4.702   6.694  13.957 -1.0748 -2.4042  0.4145
 7232TIP3    H243188   4.738   6.758  13.825  0.8016  0.1453  2.1360
 7233TIP3   OH243189   3.807   6.714  12.380 -0.1760  0.1782  0.0901
 7233TIP3    H143190   3.789   6.753  12.466  2.3949  1.6696  0.0001
 7233TIP3    H243191   3.902   6.698  12.380 -0.2501 -0.4563 -2.2003
 7234TIP3   OH243192   1.266   0.746  13.661  0.0317  0.1585  0.9751
 7234TIP3    H143193   1.310   0.822  13.624  0.3775 -0.7873 -0.6188
 7234TIP3    H243194   1.309   0.671  13.619 -1.6282 -0.8470  1.0204
 7235TIP3   OH243195   1.845   3.190   6.253  0.1443  0.3129  0.2776
 7235TIP3    H143196   1.786   3.190   6.328  0.0899 -0.8149  0.2518
 7235TIP3    H243197   1.925   3.232   6.286 -0.5947  1.6547  0.3664
 7236TIP3   OH243198   3.625   2.186   5.647  0.1966  0.2659 -0.9649
 7236TIP3    H143199   3.600   2.268   5.689 -0.9348 -0.5786  0.0484
 7236TIP3    H243200   3.703   2.208   5.595  1.2413  1.4726  1.0691
 7237TIP3   OH243201   4.568   2.402   5.642  0.4918 -0.1142 -0.0073
 7237TIP3    H143202   4.618   2.323   5.625  1.8300  0.3358  1.7309
 7237TIP3    H243203   4.600   2.465   5.577  0.3011 -0.6127 -0.5901
 7238TIP3   OH243204   0.194   3.334  14.559  0.2341 -0.6952 -0.3224
 7238TIP3    H143205   0.137   3.401  14.522  2.2866  1.2292 -0.0636
 7238TIP3    H243206   0.134   3.273  14.603 -1.5394  2.1740  1.4022
 7239TIP3   OH243207   6.203   5.226  16.314  0.1659  0.3271 -0.0717
 7239TIP3    H143208   6.118   5.253  16.281  0.7190  0.6288 -1.2801
 7239TIP3    H243209   6.229   5.153  16.258  1.3646  1.2015 -0.6968
 7240TIP3   OH243210   5.566   4.979  12.033  0.4454  0.1081  0.7572
 7240TIP3    H143211   5.560   4.907  11.970 -1.9611 -0.3384  1.4168
 7240TIP3    H243212   5.593   4.937  12.115  0.9703  0.2676  0.6659
 7241TIP3   OH243213   2.959   0.432   5.637 -0.4792  0.4417  0.1719
 7241TIP3    H143214   2.897   0.359   5.641 -1.0620  0.8644 -1.1038
 7241TIP3    H243215   2.910   0.503   5.597 -0.2143  1.8580  2.2636
 7242TIP3   OH243216   6.537   5.397   3.870 -0.7359  0.1288  0.4456
 7242TIP3    H143217   6.597   5.384   3.797 -0.9228 -0.8197  0.4583
 7242TIP3    H243218   6.587   5.446   3.934  0.4939 -1.8613  1.0486
 7243TIP3   OH243219   4.525   6.365  15.157  0.6662  0.6386 -0.4907
 7243TIP3    H143220   4.529   6.270  15.149  1.3533  0.6685 -0.5574
 7243TIP3    H243221   4.617   6.392  15.166  0.3361  1.1176  1.5388
 7244TIP3   OH243222   2.497   6.172   4.118 -0.1783 -0.2001 -0.5904
 7244TIP3    H143223   2.574   6.198   4.168 -0.0181  0.1143 -0.9935
 7244TIP3    H243224   2.452   6.109   4.174 -0.5184  0.8611  0.3657
 7245TIP3   OH243225   0.125   3.875   3.926  0.1720 -0.2959  0.2518
 7245TIP3    H143226   0.213   3.845   3.905  0.3556  0.5752 -0.2326
 7245TIP3    H243227   0.070   3.797   3.918  0.6928 -0.5645 -0.7231
 7246TIP3   OH243228   4.136   6.411  12.150  0.4884  0.2933 -0.3307
 7246TIP3    H143229   4.155   6.431  12.242  0.2527 -1.8105  0.2090
 7246TIP3    H243230   4.041   6.419  12.143  0.5850  1.2294 -0.5932
 7247TIP3   OH243231   3.819   4.184   0.298 -0.9551 -0.1110 -0.2237
 7247TIP3    H143232   3.894   4.170   0.356  0.3873  1.0071 -1.6446
 7247TIP3    H243233   3.743   4.172   0.354  0.3016 -0.1854  1.5126
 7248TIP3   OH243234   1.566   0.804   0.563 -0.1349  0.7818  0.7668
 7248TIP3    H143235   1.603   0.878   0.611 -1.5822  1.2453  1.2118
 7248TIP3    H243236   1.485   0.783   0.611 -1.2893  0.8622 -1.1036
 7249TIP3   OH243237   3.523   4.437   3.348 -0.1759  0.4557  0.5823
 7249TIP3    H143238   3.560   4.496   3.283  0.3595 -0.8248 -0.2955
 7249TIP3    H243239   3.431   4.461   3.354  0.3467  2.3819  1.3592
 7250TIP3   OH243240   0.125   3.638  15.569 -0.0145  0.4410 -0.1578
 7250TIP3    H143241   0.189   3.580  15.528 -0.8972 -0.1723 -0.6747
 7250TIP3    H243242   0.082   3.584  15.636 -0.3041  0.7156 -0.1194
 7251TIP3   OH243243   2.285   3.456   6.464  0.8144  0.2726  0.3620
 7251TIP3    H143244   2.333   3.380   6.430  1.2072  0.2477  0.9526
 7251TIP3    H243245   2.238   3.422   6.540 -0.6379  0.1618 -0.5704
 7252TIP3   OH243246   5.693   4.428   4.476  0.1331  0.5986 -0.1237
 7252TIP3    H143247   5.683   4.483   4.399 -0.7609 -0.4999 -0.8129
 7252TIP3    H243248   5.655   4.344   4.450 -1.8157  0.7420  2.0594
 7253TIP3   OH243249   2.328   1.257   3.277 -0.1450 -0.3718  0.2029
 7253TIP3    H143250   2.330   1.346   3.244 -1.0556 -0.3058  0.2913
 7253TIP3    H243251   2.377   1.260   3.359  0.7129 -0.1829 -0.3120
 7254TIP3   OH243252   4.240   2.944  16.697 -0.6705 -0.5715  0.7241
 7254TIP3    H143253   4.297   3.019  16.715 -0.4796 -0.5865  0.2007
 7254TIP3    H243254   4.299   2.870  16.694 -0.6122 -0.4745 -0.6026
 7255TIP3   OH243255   4.670   4.729  13.683  0.4465 -0.1886  0.5954
 7255TIP3    H143256   4.596   4.693  13.732  0.1327  2.2275  1.9622
 7255TIP3    H243257   4.747   4.707  13.735  0.5663 -1.3949 -0.0685
 7256TIP3   OH243258   0.073   4.870   5.070 -0.0395  0.3172  0.2437
 7256TIP3    H143259   0.017   4.918   5.132 -0.3278  0.2615  0.0238
 7256TIP3    H243260   0.050   4.778   5.083  0.8717  0.1928  1.0221
 7257TIP3   OH243261   1.359   1.013   3.992 -0.5136 -0.3281  0.5537
 7257TIP3    H143262   1.429   1.069   3.958 -1.5077 -0.1801 -1.3043
 7257TIP3    H243263   1.376   0.927   3.954 -0.2584 -0.7682  1.6363
 7258TIP3   OH243264   3.696   0.619  14.411  0.7204 -0.3480 -0.4088
 7258TIP3    H143265   3.724   0.528  14.414  2.9611  0.2877 -1.0248
 7258TIP3    H243266   3.776   0.669  14.395 -0.0273  1.9991  2.7204
 7259TIP3   OH243267   5.493   2.453   5.440  0.1748 -0.1470 -0.0790
 7259TIP3    H143268   5.532   2.539   5.423  0.1866 -0.0624  0.3784
 7259TIP3    H243269   5.403   2.462   5.411  0.0402  0.1754  0.4298
 7260TIP3   OH243270   2.733   5.050  13.997 -0.2338 -0.0800  0.4383
 7260TIP3    H143271   2.799   5.118  14.011  1.0678 -1.3188  0.3807
 7260TIP3    H243272   2.742   5.025  13.905  0.5763 -1.6571  0.9381
 7261TIP3   OH243273   6.565   5.328  14.452  0.2927 -0.6858 -0.2236
 7261TIP3    H143274   6.619   5.280  14.514  1.1267 -3.3676 -2.9290
 7261TIP3    H243275   6.475   5.306  14.475  0.5279 -0.3365  1.0398
 7262TIP3   OH243276   4.927   3.047  16.800  0.0862 -0.0589 -0.0242
 7262TIP3    H143277   4.904   2.954  16.799  2.5296 -0.6941 -0.4466
 7262TIP3    H243278   4.875   3.084  16.872 -0.1151 -1.9684  0.8376
 7263TIP3   OH243279   4.096   5.886   2.586 -0.1407  0.2750  0.7587
 7263TIP3    H143280   4.007   5.909   2.615 -0.2062 -0.1032  0.8642
 7263TIP3    H243281   4.126   5.821   2.650  0.8748  1.6517  1.7218
 7264TIP3   OH243282   3.535   3.034  15.604  0.0541 -0.0732 -0.2452
 7264TIP3    H143283   3.540   2.945  15.640  0.0673 -0.1956 -0.5469
 7264TIP3    H243284   3.526   3.021  15.510 -0.1456  0.2438 -0.2719
 7265TIP3   OH243285   1.261   0.702  10.675  0.4680  0.3209  0.3565
 7265TIP3    H143286   1.275   0.775  10.736  2.5910  0.5338 -0.3679
 7265TIP3    H243287   1.346   0.658  10.670 -0.6666 -1.9472  0.4128
 7266TIP3   OH243288   1.070   0.397  14.507  0.1235  0.2757  0.2110
 7266TIP3    H143289   1.158   0.365  14.525 -1.0653 -2.2161  1.9266
 7266TIP3    H243290   1.024   0.322  14.469 -0.8037  2.0635 -2.3801
 7267TIP3   OH243291   1.711   3.312  14.615 -0.2059  0.0284 -0.2307
 7267TIP3    H143292   1.676   3.281  14.532 -0.6618  0.2046 -0.1033
 7267TIP3    H243293   1.650   3.279  14.681  0.5727 -0.7613  0.1006
 7268TIP3   OH243294   3.686   6.420   5.345  0.0784 -0.4210  0.0268
 7268TIP3    H143295   3.762   6.472   5.317 -1.2999  0.9568 -1.2189
 7268TIP3    H243296   3.724   6.335   5.369  2.1705  0.6517  0.6706
 7269TIP3   OH243297   2.567   4.416  11.645  0.2597  0.1455 -0.3795
 7269TIP3    H143298   2.626   4.372  11.584  1.8150  1.0744  0.4284
 7269TIP3    H243299   2.487   4.432  11.594  0.9192 -0.5586 -1.6642
 7270TIP3   OH243300   4.296   1.405  14.676  0.5136 -0.4728 -0.3177
 7270TIP3    H143301   4.334   1.458  14.607  0.6535 -0.8399 -0.5263
 7270TIP3    H243302   4.220   1.363  14.636 -1.1562  1.6033  0.5757
 7271TIP3   OH243303   6.008   2.089  15.237  0.5584  0.0464  0.3980
 7271TIP3    H143304   5.971   2.168  15.196  0.4744 -0.7545 -1.0746
 7271TIP3    H243305   5.998   2.105  15.331 -1.7865  0.7018  0.0682
 7272TIP3   OH243306   0.353   3.526   4.301 -0.0488  0.0366  0.2256
 7272TIP3    H143307   0.369   3.527   4.207 -1.0394 -2.2588 -0.0154
 7272TIP3    H243308   0.264   3.561   4.311  0.5627  1.5372  0.4382
 7273TIP3   OH243309   2.434   1.595   2.455  0.1680  0.8201 -0.5211
 7273TIP3    H143310   2.503   1.530   2.440 -0.1479  0.1641  0.7570
 7273TIP3    H243311   2.452   1.628   2.543 -0.8901  0.9683 -0.3611
 7274TIP3   OH243312   5.192   2.093  16.407 -0.7518 -0.3899 -0.0439
 7274TIP3    H143313   5.173   2.170  16.352  1.7369 -0.0464 -0.4891
 7274TIP3    H243314   5.126   2.029  16.382 -0.4982  0.2515 -2.4893
 7275TIP3   OH243315   5.869   5.784  13.259  0.1755 -0.0152 -0.1440
 7275TIP3    H143316   5.881   5.815  13.349  0.2555  0.8947 -0.4614
 7275TIP3    H243317   5.789   5.828  13.229 -0.7935 -1.6070  0.0376
 7276TIP3   OH243318   2.008   6.622   3.438 -0.7642 -0.1309  0.1528
 7276TIP3    H143319   1.967   6.677   3.371  0.9823 -0.3755 -1.1554
 7276TIP3    H243320   2.009   6.534   3.399  1.8158  0.0356 -0.2699
 7277TIP3   OH243321   5.322   1.139   0.142 -0.0908 -0.8463 -0.4833
 7277TIP3    H143322   5.414   1.164   0.152 -0.0388 -1.5884  0.9844
 7277TIP3    H243323   5.275   1.201   0.197 -0.4157 -0.8713 -0.7332
 7278TIP3   OH243324   1.248   1.096   2.106  0.2905 -0.0020  0.1012
 7278TIP3    H143325   1.170   1.093   2.161 -0.0700 -1.0565 -0.4450
 7278TIP3    H243326   1.312   1.145   2.157 -0.4457  0.1211  0.9157
 7279TIP3   OH243327   3.379   5.105   0.112  0.7699 -0.1275 -0.0247
 7279TIP3    H143328   3.374   5.013   0.136 -1.3467 -0.4960 -1.8337
 7279TIP3    H243329   3.357   5.152   0.193  0.7764 -1.1966  0.6061
 7280TIP3   OH243330   1.772   2.114   6.150 -0.4380  0.5092 -0.4270
 7280TIP3    H143331   1.841   2.155   6.203 -1.3098  2.1703 -0.5217
 7280TIP3    H243332   1.703   2.094   6.213 -0.4679  0.2197 -0.5552
 7281TIP3   OH243333   2.420   6.415  17.113 -0.1128 -0.0743  0.0914
 7281TIP3    H143334   2.355   6.435  17.046  2.3476  3.2488 -1.3953
 7281TIP3    H243335   2.408   6.482  17.180  3.2522  2.1125 -1.3481
 7282TIP3   OH243336   6.270   4.503  10.470  0.2290 -0.1305 -0.2251
 7282TIP3    H143337   6.224   4.466  10.545 -1.9048 -0.9137 -1.8667
 7282TIP3    H243338   6.308   4.427  10.425 -0.3217  0.1032 -1.1060
 7283TIP3   OH243339   1.095   0.624  14.376 -0.0697 -0.1088  0.2979
 7283TIP3    H143340   1.019   0.628  14.317  1.0826 -1.6945 -1.3519
 7283TIP3    H243341   1.087   0.539  14.420  1.1035 -0.5964 -0.4084
 7284TIP3   OH243342   3.506   3.266  17.119 -0.3726  0.5436 -0.3233
 7284TIP3    H143343   3.522   3.177  17.087 -1.9575  0.3638 -0.6314
 7284TIP3    H243344   3.575   3.280  17.184 -0.6596 -1.2612  0.4084
 7285TIP3   OH243345   5.946   4.710  12.297  0.2523  0.1038  0.1625
 7285TIP3    H143346   6.036   4.713  12.328  0.0974  0.9009  0.5478
 7285TIP3    H243347   5.951   4.732  12.204  0.7141 -2.2421 -0.3899
 7286TIP3   OH243348   5.235   2.772   3.202 -0.0625 -0.7377  0.1412
 7286TIP3    H143349   5.292   2.836   3.162 -0.3361  0.1322  1.1275
 7286TIP3    H243350   5.156   2.771   3.147 -1.3118  1.9795  1.8036
 7287TIP3   OH243351   4.317   0.658  13.380  0.0616  0.0064  0.4631
 7287TIP3    H143352   4.348   0.745  13.355  0.0922 -0.4295 -1.0497
 7287TIP3    H243353   4.232   0.674  13.420  0.0881  0.7368  0.2408
 7288TIP3   OH243354   5.428   3.583  14.417 -0.8884  0.0432 -0.5618
 7288TIP3    H143355   5.501   3.544  14.464 -4.1499 -2.4857  2.6502
 7288TIP3    H243356   5.435   3.548  14.328  0.8769 -1.3968  0.1249
 7289TIP3   OH243357   4.608   0.172  13.350 -0.3597  0.4263 -0.2611
 7289TIP3    H143358   4.683   0.226  13.326 -1.5636  1.8792 -0.8465
 7289TIP3    H243359   4.566   0.219  13.422 -0.5175 -0.5507  0.3009
 7290TIP3   OH243360   5.154   4.491   1.734 -0.1512 -0.0326  0.4903
 7290TIP3    H143361   5.062   4.514   1.723  0.3965  1.3827 -1.5993
 7290TIP3    H243362   5.195   4.570   1.767  0.6598  0.0436 -0.6449
 7291TIP3   OH243363   1.972   0.681   4.534  0.1666  0.2700  0.4818
 7291TIP3    H143364   1.986   0.707   4.443  1.7281 -0.5249  0.4768
 7291TIP3    H243365   1.901   0.617   4.530  2.2181 -2.0474 -0.6039
 7292TIP3   OH243366   4.783   6.590   5.912  0.0557 -0.0949  0.2233
 7292TIP3    H143367   4.848   6.615   5.847  1.6364 -1.9100  1.0551
 7292TIP3    H243368   4.834   6.557   5.986 -1.7970 -2.5360  0.4978
 7293TIP3   OH243369   6.714   3.639   3.554 -0.7342 -0.1679  0.1105
 7293TIP3    H143370   6.653   3.669   3.621 -0.2666 -1.1483  0.9956
 7293TIP3    H243371   6.760   3.566   3.595  1.2817  0.7852 -0.4279
 7294TIP3   OH243372   2.132   5.777   0.852  0.4641  0.1113 -0.1491
 7294TIP3    H143373   2.104   5.703   0.906 -0.7266 -0.1005 -1.0355
 7294TIP3    H243374   2.167   5.737   0.772 -0.6899  0.5069 -0.8648
 7295TIP3   OH243375   5.059   5.369  13.579 -0.2969  0.4501  0.2936
 7295TIP3    H143376   5.105   5.323  13.649 -0.5218 -1.1817 -0.6104
 7295TIP3    H243377   4.967   5.348  13.592 -0.3989  0.6060 -0.1532
 7296TIP3   OH243378   0.118   2.690   4.673 -0.7931 -0.2349 -1.1226
 7296TIP3    H143379   0.111   2.664   4.581  0.3031 -0.7377 -1.0724
 7296TIP3    H243380   0.154   2.779   4.670 -0.0037 -0.5502 -1.1667
 7297TIP3   OH243381   4.297   6.308  11.295  0.0563 -0.4711 -0.1584
 7297TIP3    H143382   4.207   6.279  11.279  0.0726  0.6605 -2.5131
 7297TIP3    H243383   4.288   6.401  11.316  0.5700 -0.6383  0.7972
 7298TIP3   OH243384   3.416   5.578  11.106  0.4265  0.8219 -0.3702
 7298TIP3    H143385   3.392   5.533  11.025  2.4111  1.2433 -1.2120
 7298TIP3    H243386   3.465   5.513  11.156 -1.2736  0.3790  0.7766
 7299TIP3   OH243387   4.243   4.092  17.286  0.3971 -0.0131 -0.0807
 7299TIP3    H143388   4.164   4.087  17.339  1.6227 -0.8144  1.7448
 7299TIP3    H243389   4.300   4.154  17.332  1.1621 -0.0846 -0.8989
 7300TIP3   OH243390   2.229   0.614  12.739 -0.0819  0.3554 -0.1532
 7300TIP3    H143391   2.261   0.672  12.808  1.0049 -1.2534  0.7295
 7300TIP3    H243392   2.303   0.556  12.720 -1.1127 -0.6948 -1.0740
 7301TIP3   OH243393   6.701   1.305   1.335 -0.1584 -0.7327  0.1483
 7301TIP3    H143394   6.674   1.397   1.335 -1.2919 -1.0549  0.4909
 7301TIP3    H243395   6.781   1.303   1.388 -0.9088 -0.1616  1.3163
 7302TIP3   OH243396   6.798   1.111  14.053 -0.2595  0.7464 -0.0937
 7302TIP3    H143397   6.778   1.154  14.136 -0.7088 -1.1757  0.8444
 7302TIP3    H243398   6.889   1.084  14.061 -0.0156  1.4138 -0.6221
 7303TIP3   OH243399   6.072   0.814  16.869 -0.0918  0.1625 -0.0646
 7303TIP3    H143400   6.025   0.743  16.913  0.0181  0.3285  0.3214
 7303TIP3    H243401   6.164   0.798  16.890  0.1239 -0.6792 -1.5621
 7304TIP3   OH243402   1.708   1.648  11.087  0.2303  0.0138  0.1808
 7304TIP3    H143403   1.769   1.651  11.014 -2.5009 -0.4578 -2.1956
 7304TIP3    H243404   1.707   1.737  11.123  0.5548  0.5856 -1.2285
 7305TIP3   OH243405   1.572   6.243  12.314 -0.2626  0.4303  0.3912
 7305TIP3    H143406   1.643   6.184  12.338 -0.6678 -0.2631 -0.0878
 7305TIP3    H243407   1.494   6.187  12.310 -1.1182  1.4384  2.3304
 7306TIP3   OH243408   3.840   6.820   2.088  0.0667 -0.2050  0.2125
 7306TIP3    H143409   3.879   6.787   2.170 -2.0941  1.7987  2.1135
 7306TIP3    H243410   3.867   6.912   2.084 -0.6134 -0.0498 -0.8429
 7307TIP3   OH243411   5.539   0.280   2.103  0.0712  0.2875 -0.1265
 7307TIP3    H143412   5.450   0.246   2.093  1.2409 -2.7751 -0.7081
 7307TIP3    H243413   5.529   0.356   2.160 -3.0006  0.4404 -0.7578
 7308TIP3   OH243414   2.400   4.996   0.653  0.3465 -1.1002 -0.0557
 7308TIP3    H143415   2.435   4.957   0.572  0.4746 -0.9419 -0.0769
 7308TIP3    H243416   2.311   4.962   0.659  0.9221 -2.4988  0.6567
 7309TIP3   OH243417   0.956   4.569   0.404 -0.5297  0.3873 -0.0961
 7309TIP3    H143418   1.032   4.625   0.421 -0.3094  0.0075  0.1745
 7309TIP3    H243419   0.896   4.588   0.477  0.5592 -1.4901  1.3349
 7310TIP3   OH243420   0.474   3.588   4.987  0.0155 -0.1487 -0.5212
 7310TIP3    H143421   0.424   3.539   4.921  0.4247 -0.5915 -0.5001
 7310TIP3    H243422   0.540   3.526   5.018 -0.6346 -0.1751  0.8321
 7311TIP3   OH243423   6.597   1.114  11.779 -0.2425 -0.2692 -0.5859
 7311TIP3    H143424   6.645   1.119  11.862 -0.3077  1.0205 -0.6060
 7311TIP3    H243425   6.665   1.120  11.712 -0.2100 -1.0731 -0.6252
 7312TIP3   OH243426   5.757   1.864  14.475  0.1101 -0.4933  0.4923
 7312TIP3    H143427   5.674   1.867  14.427  0.8612  1.2318 -0.7817
 7312TIP3    H243428   5.814   1.808  14.423  0.5926  0.5385 -0.1214
 7313TIP3   OH243429   1.182   3.309  10.937 -0.1304  0.3972 -0.2888
 7313TIP3    H143430   1.278   3.309  10.938 -0.1001 -2.4011 -0.6543
 7313TIP3    H243431   1.159   3.395  10.902  2.2501  0.5575 -1.5811
 7314TIP3   OH243432   1.305   4.776   2.297 -0.5929  0.2300 -0.3426
 7314TIP3    H143433   1.374   4.837   2.321 -0.4466  0.9310 -2.4164
 7314TIP3    H243434   1.335   4.691   2.329  0.3433  0.8421  0.4193
 7315TIP3   OH243435   4.737   2.328  16.213 -0.8246  0.4216  0.3379
 7315TIP3    H143436   4.667   2.333  16.148 -2.4219 -1.3752  1.8544
 7315TIP3    H243437   4.697   2.282  16.288  1.5941  0.5137  1.7336
 7316TIP3   OH243438   4.196   1.451   1.579 -0.2561 -0.0428 -0.6682
 7316TIP3    H143439   4.290   1.457   1.562 -0.3781 -1.3855 -1.8880
 7316TIP3    H243440   4.184   1.493   1.664  1.4835 -0.0812 -0.3915
 7317TIP3   OH243441   5.058   4.321   2.132 -0.6044 -0.3428 -0.4737
 7317TIP3    H143442   4.965   4.300   2.134 -0.8076  0.4581 -1.2316
 7317TIP3    H243443   5.077   4.339   2.039  0.3730 -0.8344 -0.3830
 7318TIP3   OH243444   0.435   0.330   5.292 -0.1002  0.3211 -0.1856
 7318TIP3    H143445   0.368   0.341   5.224  0.9961  1.7391 -1.0766
 7318TIP3    H243446   0.502   0.275   5.251  0.7318  1.4689 -0.4163
 7319TIP3   OH243447   4.215   5.845  16.804 -0.0653  0.1109 -0.0397
 7319TIP3    H143448   4.308   5.863  16.791 -0.2116 -0.1334 -1.5000
 7319TIP3    H243449   4.213   5.759  16.845  0.2896 -1.2010 -2.6256
 7320TIP3   OH243450   2.322   3.458   4.656  0.2040 -0.6327  0.4557
 7320TIP3    H143451   2.366   3.473   4.573 -0.3383  1.3342  0.5150
 7320TIP3    H243452   2.245   3.406   4.633 -1.2712  1.9348 -0.6499
 7321TIP3   OH243453   5.624   2.949  12.098  0.4375 -0.7917 -0.1567
 7321TIP3    H143454   5.628   2.857  12.071  0.1130 -0.7971 -0.1803
 7321TIP3    H243455   5.538   2.979  12.070  0.6579 -0.3942 -0.4237
 7322TIP3   OH243456   3.905   3.757  13.440 -0.3588 -0.4176  0.2364
 7322TIP3    H143457   3.975   3.752  13.374  1.3382 -2.6726  2.1463
 7322TIP3    H243458   3.930   3.832  13.495 -1.0608  0.6302 -0.8479
 7323TIP3   OH243459   0.635   3.097   0.686 -0.1866  0.2497  0.2213
 7323TIP3    H143460   0.649   3.015   0.734 -2.5548 -0.9359 -1.0392
 7323TIP3    H243461   0.606   3.159   0.753 -1.8224 -0.9328  0.6369
 7324TIP3   OH243462   3.814   3.155   4.839  0.0936 -0.4156  0.3647
 7324TIP3    H143463   3.812   3.244   4.875 -0.0828 -0.6557  0.9592
 7324TIP3    H243464   3.721   3.131   4.831  0.1475 -0.6943  0.5766
 7325TIP3   OH243465   6.371   6.513  13.911 -0.3532 -0.1132 -0.3253
 7325TIP3    H143466   6.464   6.507  13.931 -0.7557 -0.9060  1.3352
 7325TIP3    H243467   6.338   6.583  13.967 -0.9591 -0.5011 -0.1904
 7326TIP3   OH243468   3.300   3.880  14.840  0.1884 -0.4978  0.2589
 7326TIP3    H143469   3.373   3.826  14.810  0.0317 -2.2147  2.7929
 7326TIP3    H243470   3.224   3.822  14.835 -0.3829  0.1883  0.8467
 7327TIP3   OH243471   0.401   3.817  14.873 -0.5058  0.2595  0.4310
 7327TIP3    H143472   0.384   3.787  14.784 -0.3423  0.1802  0.4257
 7327TIP3    H243473   0.393   3.913  14.869 -0.5212  0.2538  0.3364
 7328TIP3   OH243474   2.961   2.044   5.804 -0.1778  0.3883  0.5427
 7328TIP3    H143475   2.929   1.954   5.812 -1.9941  1.1369  1.8013
 7328TIP3    H243476   2.885   2.094   5.774  0.8829  1.4734 -0.3815
 7329TIP3   OH243477   4.272   5.667  15.302 -0.1137  0.6992  0.0037
 7329TIP3    H143478   4.356   5.689  15.261  0.3486  1.1812  1.1851
 7329TIP3    H243479   4.208   5.675  15.231  1.0182 -1.1743 -1.3013
 7330TIP3   OH243480   3.107   2.518  11.237  0.1276  0.6375  0.3724
 7330TIP3    H143481   3.190   2.562  11.256 -0.6568  2.2929  0.0393
 7330TIP3    H243482   3.063   2.512  11.322  0.5545 -0.2020  0.5407
 7331TIP3   OH243483   6.140   1.303  11.441  0.2827 -0.0596 -0.4705
 7331TIP3    H143484   6.087   1.375  11.408  1.9569  1.7181  0.5495
 7331TIP3    H243485   6.096   1.276  11.522  1.0117  1.5331  0.4741
 7332TIP3   OH243486   0.301   5.117   1.315 -0.4160 -0.1608  0.0776
 7332TIP3    H143487   0.235   5.173   1.356 -0.1790  0.2801 -0.1400
 7332TIP3    H243488   0.325   5.055   1.384  1.1190  1.5562  1.1420
 7333TIP3   OH243489   3.664   4.276  14.941  0.5430  0.2838  0.1290
 7333TIP3    H143490   3.714   4.356  14.962  0.4994  0.1831  0.6411
 7333TIP3    H243491   3.723   4.225  14.886  1.0552  0.1200  0.8153
 7334TIP3   OH243492   5.330   4.567   1.413  0.0845 -0.0314 -0.5006
 7334TIP3    H143493   5.262   4.594   1.476 -0.3026  1.5927 -1.5822
 7334TIP3    H243494   5.395   4.637   1.417 -0.2036  0.3534 -2.2796
 7335TIP3   OH243495   2.461   0.017  12.120 -0.3009 -0.0356  0.4014
 7335TIP3    H143496   2.466  -0.077  12.139  0.5487 -0.2289 -0.7177
 7335TIP3    H243497   2.370   0.031  12.095  0.1184 -1.0403 -1.7635
 7336TIP3   OH243498   5.903   6.370  11.983  0.8926 -0.3508 -0.4046
 7336TIP3    H143499   5.948   6.289  12.008  1.7781  0.0571 -0.6709
 7336TIP3    H243500   5.856   6.348  11.903  0.5300 -0.8104 -0.0672
 7337TIP3   OH243501   3.892   2.615   1.793  0.2717  0.0294  0.0233
 7337TIP3    H143502   3.821   2.643   1.851 -1.1590 -1.7125 -0.8543
 7337TIP3    H243503   3.939   2.696   1.773 -0.8437  1.0529  1.4451
 7338TIP3   OH243504   0.079   4.774   3.484  0.1923  1.0460  0.4680
 7338TIP3    H143505   0.165   4.738   3.507  0.8799  2.4272  0.1275
 7338TIP3    H243506   0.037   4.792   3.569 -0.8985 -2.1750  0.6772
 7339TIP3   OH243507   4.225   5.126   2.728 -0.5152 -0.4633  0.2260
 7339TIP3    H143508   4.308   5.134   2.681 -0.6193 -0.8895 -0.0309
 7339TIP3    H243509   4.196   5.216   2.741 -0.2814 -0.3308 -0.1636
 7340TIP3   OH243510   0.745   4.006   2.298 -0.0056  0.0784 -0.4116
 7340TIP3    H143511   0.706   4.090   2.274 -0.1849  0.0169 -0.3342
 7340TIP3    H243512   0.763   3.964   2.214  1.1453  0.6812 -0.4723
 7341TIP3   OH243513   5.990   6.815   1.874  0.1616 -0.1038 -0.4014
 7341TIP3    H143514   5.924   6.883   1.858 -0.9596 -0.9886  0.4076
 7341TIP3    H243515   6.035   6.845   1.953 -2.1617 -1.6275  1.5798
 7342TIP3   OH243516   4.725   3.115   4.506  0.9743  0.1700  0.4969
 7342TIP3    H143517   4.792   3.051   4.485  0.1537 -0.7116  0.4975
 7342TIP3    H243518   4.692   3.088   4.592  0.2397  0.2557  0.2521
 7343TIP3   OH243519   3.626   5.963   2.466 -0.0819  0.6884  0.1593
 7343TIP3    H143520   3.579   5.990   2.545 -0.1420  0.9410  0.0365
 7343TIP3    H243521   3.560   5.916   2.414  0.1727 -0.2263  0.6408
 7344TIP3   OH243522   1.336   2.035  15.654  0.2459  0.4730  0.1142
 7344TIP3    H143523   1.257   2.090  15.653  0.4054  0.7055  0.2989
 7344TIP3    H243524   1.407   2.095  15.634  0.8405  1.0085  3.5455
 7345TIP3   OH243525   2.388   1.321   0.333  0.2390  0.2769 -0.3291
 7345TIP3    H143526   2.305   1.348   0.372 -0.6818 -1.6824 -0.8380
 7345TIP3    H243527   2.410   1.239   0.378  1.6289  0.5116 -0.5599
 7346TIP3   OH243528   1.793   5.554  16.551 -0.4565 -0.4114  0.1592
 7346TIP3    H143529   1.710   5.515  16.524  0.4262 -1.4883 -1.0300
 7346TIP3    H243530   1.856   5.482  16.548  1.1266  1.0023 -1.7309
 7347TIP3   OH243531   3.713   0.339   3.860  0.0796  0.0399 -0.1095
 7347TIP3    H143532   3.779   0.284   3.902  1.0832  0.0743 -1.6282
 7347TIP3    H243533   3.735   0.338   3.767 -2.2189 -0.1735 -0.6890
 7348TIP3   OH243534   2.526   2.587   5.313 -0.0771 -0.2254 -0.3445
 7348TIP3    H143535   2.575   2.572   5.393  1.3153 -0.4243 -1.2285
 7348TIP3    H243536   2.489   2.675   5.324  0.7910  0.0760  0.1521
 7349TIP3   OH243537   1.026   6.721  11.957 -0.1681 -0.3894  0.1291
 7349TIP3    H143538   0.953   6.739  11.897  1.1221 -0.5881 -1.5141
 7349TIP3    H243539   0.983   6.699  12.040 -1.9424  3.1254  0.2543
 7350TIP3   OH243540   1.219   6.059   1.522 -0.0401 -0.2123  0.0027
 7350TIP3    H143541   1.148   6.117   1.496  0.3403  0.9528  1.5171
 7350TIP3    H243542   1.205   6.043   1.615 -0.1298 -2.5560 -0.3888
 7351TIP3   OH243543   0.476   2.841  14.599  0.2963 -0.4238 -0.5542
 7351TIP3    H143544   0.516   2.764  14.639  1.2896  1.4005  2.1656
 7351TIP3    H243545   0.404   2.864  14.659  0.8384  1.4901 -0.6046
 7352TIP3   OH243546   0.174   1.982   2.076 -0.4798  0.3238 -0.2720
 7352TIP3    H143547   0.085   2.011   2.095  0.3501  2.3457  0.6415
 7352TIP3    H243548   0.189   2.009   1.985  0.1759  2.5904  0.4710
 7353TIP3   OH243549   4.133   5.336   4.946 -0.8855  0.2800 -0.7797
 7353TIP3    H143550   4.124   5.431   4.961 -2.1804 -0.1296  1.1335
 7353TIP3    H243551   4.193   5.307   5.014  0.8932 -0.0165 -2.4426
 7354TIP3   OH243552   2.162   3.234   6.183  0.7606 -0.2993  0.1620
 7354TIP3    H143553   2.191   3.147   6.154 -0.1121  0.2998 -2.7086
 7354TIP3    H243554   2.131   3.221   6.272 -0.1022 -3.0928 -0.5050
 7355TIP3   OH243555   2.051   0.890   3.910 -0.0285 -0.1851  0.4543
 7355TIP3    H143556   2.092   0.924   3.990 -1.7877 -0.1065  1.3476
 7355TIP3    H243557   1.997   0.963   3.878  1.8875  0.3265 -1.7050
 7356TIP3   OH243558   4.848   0.704   5.839  0.0608 -0.2886  0.6385
 7356TIP3    H143559   4.926   0.759   5.851  1.0558 -1.8169  1.3997
 7356TIP3    H243560   4.836   0.662   5.924 -1.1632 -0.6311  0.2942
 7357TIP3   OH243561   6.204   5.803   2.166  0.0670 -0.2040 -0.0510
 7357TIP3    H143562   6.213   5.782   2.073  1.1626  1.8008 -0.4249
 7357TIP3    H243563   6.190   5.719   2.209 -0.2852 -1.1649 -2.0105
 7358TIP3   OH243564   3.726   0.963   6.134 -0.2851 -0.1344 -0.3004
 7358TIP3    H143565   3.784   1.034   6.159 -1.2625  0.9727 -1.1434
 7358TIP3    H243566   3.773   0.916   6.066 -0.4066  0.8102 -1.0413
 7359TIP3   OH243567   1.246   1.769  12.853 -0.2560  0.0337 -0.1884
 7359TIP3    H143568   1.188   1.780  12.778  0.9071  3.5343 -0.6672
 7359TIP3    H243569   1.199   1.808  12.926 -0.3828 -1.2240  0.4169
 7360TIP3   OH243570   0.094   5.002   2.783  0.9371  0.1644 -0.2615
 7360TIP3    H143571   0.106   5.083   2.833 -0.2815 -1.0695  2.0898
 7360TIP3    H243572   0.166   4.946   2.811 -0.5734 -1.0692  1.2623
 7361TIP3   OH243573   1.838   3.929  14.593 -0.0110  0.3350 -0.2475
 7361TIP3    H143574   1.797   3.854  14.637  2.3356 -2.1136 -2.0690
 7361TIP3    H243575   1.921   3.941  14.638  0.5261  0.5272 -1.2685
 7362TIP3   OH243576   1.851   1.017   5.518 -0.5003  0.8042 -1.0030
 7362TIP3    H143577   1.873   1.072   5.593 -0.8218  2.9640 -2.4479
 7362TIP3    H243578   1.760   0.992   5.534  0.5210 -1.7754  1.1132
 7363TIP3   OH243579   6.268   4.682  12.447  0.3524  0.2919 -0.2049
 7363TIP3    H143580   6.236   4.642  12.528 -1.2732 -0.0473 -0.9951
 7363TIP3    H243581   6.339   4.624  12.418  0.2631 -0.1523  0.4544
 7364TIP3   OH243582   2.402   5.213   5.502 -0.0259 -0.6491  0.1125
 7364TIP3    H143583   2.440   5.147   5.444 -0.5830  0.3909 -1.4912
 7364TIP3    H243584   2.473   5.275   5.518 -0.1149 -0.4628 -0.2017
 7365TIP3   OH243585   2.359   0.144  14.835  0.1143  0.6488 -0.0780
 7365TIP3    H143586   2.273   0.170  14.868 -0.6280  0.6075 -1.9071
 7365TIP3    H243587   2.363   0.049  14.851  0.2481  0.8324  0.9596
 7366TIP3   OH243588   0.956   0.856  11.264  0.8383  0.2163  0.0516
 7366TIP3    H143589   0.884   0.901  11.309  1.8189  0.5753  1.2798
 7366TIP3    H243590   0.974   0.910  11.187  0.2174  0.4634  0.0731
 7367TIP3   OH243591   4.649   0.842   1.698 -0.4540 -0.0820 -0.5187
 7367TIP3    H143592   4.635   0.772   1.761  1.2198  1.5332  1.7460
 7367TIP3    H243593   4.679   0.798   1.618  0.4862 -1.9392  0.8329
 7368TIP3   OH243594   2.085   5.495   5.132 -0.6764 -0.4268 -0.0672
 7368TIP3    H143595   2.167   5.464   5.094 -1.4522 -2.0834 -0.3865
 7368TIP3    H243596   2.097   5.483   5.226 -0.2470  0.1173 -0.0430
 7369TIP3   OH243597   0.514   1.115   3.729  0.0461  0.0623  0.2311
 7369TIP3    H143598   0.597   1.156   3.707  1.0205 -1.2163  1.4575
 7369TIP3    H243599   0.475   1.094   3.644  1.6284 -0.6052 -0.3548
 7370TIP3   OH243600   0.056   1.230  12.262  0.1655 -0.3097 -0.0819
 7370TIP3    H143601   0.140   1.276  12.270  0.6933 -1.1313 -0.8355
 7370TIP3    H243602   0.028   1.216  12.352  0.4024  0.7634  0.1627
 7371TIP3   OH243603   5.567   5.275   3.130  0.2974  0.0944 -0.4345
 7371TIP3    H143604   5.594   5.367   3.121  0.7414 -0.0422 -0.4963
 7371TIP3    H243605   5.645   5.230   3.161 -0.8348  0.3012  2.9599
 7372TIP3   OH243606   1.900   0.047   2.883 -0.1452 -0.6992 -0.0854
 7372TIP3    H143607   1.816   0.001   2.895 -1.3067  1.1826 -0.7522
 7372TIP3    H243608   1.887   0.132   2.924  3.1217 -2.0994  4.1350
 7373TIP3   OH243609   1.929   2.866   5.953 -0.2151  0.4421  0.4396
 7373TIP3    H143610   1.994   2.826   6.011 -1.7830  0.2695  2.1431
 7373TIP3    H243611   1.864   2.796   5.940  0.3733  0.3160 -1.9600
 7374TIP3   OH243612   0.702   2.271  14.020 -0.2495  0.2574 -0.2353
 7374TIP3    H143613   0.687   2.249  13.928 -0.1917  1.3525 -0.5205
 7374TIP3    H243614   0.736   2.191  14.059 -0.4976 -0.2870 -1.1172
 7375TIP3   OH243615   6.277   3.084  12.382 -0.3967  0.3689 -0.2553
 7375TIP3    H143616   6.285   3.012  12.319  1.2129 -0.7438  1.1852
 7375TIP3    H243617   6.184   3.104  12.382 -0.7719 -1.2346 -1.2094
 7376TIP3   OH243618   4.015   2.770  13.517 -0.0401  0.4319 -0.2010
 7376TIP3    H143619   3.956   2.714  13.466 -0.6089  1.6228 -0.8870
 7376TIP3    H243620   4.065   2.818  13.451 -0.6025  1.8029  0.3641
 7377TIP3   OH243621   0.997   3.879  11.726  0.3938  0.1555 -0.5711
 7377TIP3    H143622   1.045   3.798  11.744  2.8266  1.2478 -1.8947
 7377TIP3    H243623   0.906   3.852  11.717  0.7284 -2.0149  1.8657
 7378TIP3   OH243624   3.364   0.068  15.746  0.5447 -0.1004 -0.2727
 7378TIP3    H143625   3.344   0.095  15.656 -0.5341  1.1563  0.3257
 7378TIP3    H243626   3.289   0.096  15.797  2.0025  0.9975  1.3492
 7379TIP3   OH243627   6.015   1.342   0.409 -0.4220 -0.2606 -0.7480
 7379TIP3    H143628   6.018   1.422   0.356  0.2960 -0.1956 -0.6158
 7379TIP3    H243629   6.006   1.373   0.499 -1.4849 -0.3676 -0.8117
 7380TIP3   OH243630   3.495   1.350   4.106  0.2174  0.3617  0.1872
 7380TIP3    H143631   3.554   1.348   4.031  0.8394 -0.4870  0.6993
 7380TIP3    H243632   3.418   1.399   4.075  0.7570  0.5894 -0.7856
 7381TIP3   OH243633   2.457   5.300   0.692 -0.5821  0.3975 -0.2466
 7381TIP3    H143634   2.541   5.288   0.738 -0.2636 -1.1243 -1.1836
 7381TIP3    H243635   2.428   5.211   0.672 -1.6845  0.9710 -1.2694
 7382TIP3   OH243636   5.297   0.820  13.166 -0.5425 -0.5366  0.1282
 7382TIP3    H143637   5.307   0.781  13.253 -0.0371 -0.5525  0.0660
 7382TIP3    H243638   5.335   0.755  13.106  1.4174  0.5700  0.1368
 7383TIP3   OH243639   0.325   0.422  12.314  0.3104 -0.0236  0.2601
 7383TIP3    H143640   0.419   0.424  12.299  0.2514 -0.6728 -0.2329
 7383TIP3    H243641   0.290   0.488  12.255  0.5056  0.5824  0.8227
 7384TIP3   OH243642   1.850   0.240   6.177  0.0085  0.2972  0.3916
 7384TIP3    H143643   1.830   0.333   6.166 -1.6538 -0.3058 -2.0289
 7384TIP3    H243644   1.942   0.232   6.149 -0.1521  1.0298 -0.3613
 7385TIP3   OH243645   3.543   0.598   4.401 -0.4407 -0.3034 -0.2048
 7385TIP3    H143646   3.540   0.602   4.497 -0.4326  1.0141 -0.2493
 7385TIP3    H243647   3.459   0.636   4.374  0.9634  2.5003 -0.7780
 7386TIP3   OH243648   1.900   1.491   0.012 -0.5156 -0.1724  0.4115
 7386TIP3    H143649   1.894   1.441   0.094  1.3285 -2.3505 -0.7459
 7386TIP3    H243650   1.900   1.425  -0.057  2.6263  1.3577 -1.1480
 7387TIP3   OH243651   6.015   4.724  12.027  0.1098  0.0897 -0.0576
 7387TIP3    H143652   6.012   4.779  11.949 -0.5583  0.0104 -0.0889
 7387TIP3    H243653   6.101   4.682  12.023  0.3121  0.5393 -0.4371
 7388TIP3   OH243654   4.939   1.084   3.236  0.7887 -0.3831 -0.5110
 7388TIP3    H143655   4.962   1.039   3.154 -1.8762 -0.6254 -1.1646
 7388TIP3    H243656   4.915   1.173   3.209  0.2008 -0.3698  0.0450
 7389TIP3   OH243657   5.458   3.854   5.676  0.0654 -0.1212  0.3143
 7389TIP3    H143658   5.491   3.883   5.761 -0.0793 -0.0027  0.3303
 7389TIP3    H243659   5.505   3.773   5.658 -1.1589 -1.0687  1.3146
 7390TIP3   OH243660   0.034   0.230  11.679 -0.0017  0.0586 -0.5032
 7390TIP3    H143661   0.030   0.264  11.768  0.5381 -1.8835  0.2805
 7390TIP3    H243662   0.091   0.292  11.632 -0.6770  1.3505  0.3652
 7391TIP3   OH243663   0.275   4.319  15.632 -0.2544  0.5149 -0.3629
 7391TIP3    H143664   0.306   4.383  15.695 -0.6536  0.1547  0.2112
 7391TIP3    H243665   0.179   4.328  15.633 -0.3888 -0.8302  0.5311
 7392TIP3   OH243666   0.526   3.190   6.140 -0.1454  0.2530 -0.3465
 7392TIP3    H143667   0.552   3.221   6.227  0.8373  0.1427 -0.5965
 7392TIP3    H243668   0.545   3.097   6.141 -1.6263 -0.0577 -0.1406
 7393TIP3   OH243669   3.331   4.457   0.791 -0.0692  0.1767 -0.4676
 7393TIP3    H143670   3.253   4.470   0.844  0.0373  0.8031 -0.4610
 7393TIP3    H243671   3.349   4.363   0.797 -1.1315 -0.0612 -0.9051
 7394TIP3   OH243672   2.982   1.933   0.863  0.2227 -0.4033  0.3365
 7394TIP3    H143673   3.027   1.921   0.779  0.3556 -0.6451  0.4411
 7394TIP3    H243674   2.984   1.846   0.904 -1.2403 -0.6516 -0.0995
 7395TIP3   OH243675   0.843   1.859  15.446  0.5917  0.0995  0.3798
 7395TIP3    H143676   0.794   1.851  15.528  0.4505  0.2673  0.3121
 7395TIP3    H243677   0.852   1.953  15.433  0.1567  0.0820 -0.0704
 7396TIP3   OH243678   2.361   3.990   2.203 -0.3057 -0.5355 -0.1578
 7396TIP3    H143679   2.349   4.010   2.295 -0.7326 -0.2270 -0.2784
 7396TIP3    H243680   2.361   3.894   2.199 -0.4410 -0.5486  0.1436
 7397TIP3   OH243681   6.776   1.567  16.886  0.1285 -0.3640 -0.4437
 7397TIP3    H143682   6.709   1.544  16.950  0.1696 -2.1928 -0.9992
 7397TIP3    H243683   6.739   1.640  16.837 -0.9857 -0.6199  0.0048
 7398TIP3   OH243684   3.771   3.101   1.074  0.5670  0.4625 -0.5019
 7398TIP3    H143685   3.676   3.101   1.064  0.2580  3.4570  1.7171
 7398TIP3    H243686   3.790   3.028   1.133 -0.4944  0.6700  0.0947
 7399TIP3   OH243687   3.545   2.698   1.324  0.2776  0.4086 -0.1974
 7399TIP3    H143688   3.451   2.685   1.309  0.7555 -2.8508 -0.7318
 7399TIP3    H243689   3.551   2.715   1.418 -0.8072  0.0837 -0.0560
 7400TIP3   OH243690   3.109   3.866  12.389 -0.2641  0.0676 -0.2324
 7400TIP3    H143691   3.081   3.913  12.467 -0.1743  1.3126 -0.9458
 7400TIP3    H243692   3.039   3.880  12.325  2.0320  3.4469 -2.1187
 7401TIP3   OH243693   3.970   3.743  12.767 -0.4662 -0.2670  0.0590
 7401TIP3    H143694   3.995   3.834  12.779  0.1302 -0.1410 -1.9063
 7401TIP3    H243695   3.929   3.741  12.680 -1.2226 -1.7178  0.4279
 7402TIP3   OH243696   6.169   0.267  16.680  0.7101 -0.5277  0.7982
 7402TIP3    H143697   6.155   0.180  16.643  2.4453  0.0706 -1.3999
 7402TIP3    H243698   6.263   0.269  16.701  0.6506  0.7460  0.9818
 7403TIP3   OH243699   0.748   0.780  12.339  0.2046 -0.0467 -0.2693
 7403TIP3    H143700   0.778   0.825  12.259 -0.9112 -1.5415 -1.5440
 7403TIP3    H243701   0.662   0.819  12.357  1.1473  1.4434  1.1573
 7404TIP3   OH243702   5.247   6.535  12.413 -0.1905 -0.7373  0.0602
 7404TIP3    H143703   5.335   6.552  12.380 -0.9253  3.8779  0.2299
 7404TIP3    H243704   5.202   6.494  12.339  1.4116 -1.1027 -0.7476
 7405TIP3   OH243705   4.908   1.293   0.867 -0.2003  0.0823 -0.5159
 7405TIP3    H143706   4.853   1.256   0.937  3.3310 -1.5788  1.5086
 7405TIP3    H243707   4.882   1.245   0.789 -0.2425 -2.1754  0.8221
 7406TIP3   OH243708   2.171   2.794   2.055 -0.0300 -0.6761  0.2705
 7406TIP3    H143709   2.241   2.804   2.119 -0.6848 -0.4526  0.9527
 7406TIP3    H243710   2.196   2.718   2.003  1.4510  0.2544 -0.4250
 7407TIP3   OH243711   3.998   4.176  16.358  0.2389  0.2060  0.1096
 7407TIP3    H143712   4.070   4.239  16.359  0.1682  0.2988 -0.8367
 7407TIP3    H243713   3.973   4.168  16.266 -0.1055 -0.8100  0.2819
 7408TIP3   OH243714   5.491   2.931   1.733 -0.3779  0.3126 -0.1113
 7408TIP3    H143715   5.501   2.902   1.824 -0.1525 -0.4571 -0.3771
 7408TIP3    H243716   5.435   3.008   1.739  0.9870  1.2526  0.8405
 7409TIP3   OH243717   5.547   1.110   2.561  0.4620 -0.0119 -0.9306
 7409TIP3    H143718   5.522   1.026   2.523 -1.5174  0.0560  0.1801
 7409TIP3    H243719   5.537   1.173   2.490  2.1010 -0.7190 -1.8116
 7410TIP3   OH243720   1.113   1.653  13.451  0.0177 -0.3611 -0.2971
 7410TIP3    H143721   1.104   1.712  13.526  3.1638 -0.6945  0.4198
 7410TIP3    H243722   1.047   1.683  13.389 -1.5563  0.9539  1.9217
 7411TIP3   OH243723   6.346   1.030  11.420  0.0214  0.1670 -0.0069
 7411TIP3    H143724   6.358   1.099  11.355 -1.8578 -1.2482 -1.9047
 7411TIP3    H243725   6.331   0.951  11.369 -1.2060 -1.0418  2.1598
 7412TIP3   OH243726   4.622   1.130   2.773  0.8344 -0.3339  0.0568
 7412TIP3    H143727   4.587   1.062   2.831  1.4053  0.6130  1.5244
 7412TIP3    H243728   4.564   1.129   2.697 -1.1701 -0.1526  1.5703
 7413TIP3   OH243729   0.112   3.962  10.319  0.9155  0.0755 -0.0593
 7413TIP3    H143730   0.066   3.990  10.239  2.4439  1.6303 -0.4312
 7413TIP3    H243731   0.051   3.984  10.390 -1.0501 -2.6277 -0.8554
 7414TIP3   OH243732   1.396   5.970  17.265  0.0629 -0.3873  0.0749
 7414TIP3    H143733   1.316   6.001  17.224  0.9262 -0.7886 -1.9994
 7414TIP3    H243734   1.409   5.882  17.229  2.5704  0.5164 -1.3287
 7415TIP3   OH243735   3.729   0.013  16.241  0.2986  0.0048 -0.1488
 7415TIP3    H143736   3.712  -0.060  16.182  2.2838 -1.2031  0.6993
 7415TIP3    H243737   3.718   0.091  16.188 -1.5478 -0.9291 -1.1593
 7416TIP3   OH243738   0.798   2.907   0.388 -0.6548  0.1450 -0.0604
 7416TIP3    H143739   0.869   2.919   0.325 -0.2482  0.3931  0.4386
 7416TIP3    H243740   0.827   2.834   0.443 -0.4042  0.7868  0.6667
 7417TIP3   OH243741   5.096   0.172   3.514 -0.1852  0.6414  0.0466
 7417TIP3    H143742   5.012   0.207   3.485 -0.0065  1.6598  0.7354
 7417TIP3    H243743   5.126   0.117   3.442 -0.4532  1.9363 -1.0613
 7418TIP3   OH243744   6.426   2.127  12.784 -0.4718  0.1918  0.3405
 7418TIP3    H143745   6.492   2.059  12.786 -0.2714  0.4096  1.2309
 7418TIP3    H243746   6.347   2.085  12.817 -0.3614  0.3732  0.8393
 7419TIP3   OH243747   0.950   0.738  17.021 -0.4437  0.1050 -0.5963
 7419TIP3    H143748   0.952   0.751  16.926 -1.2780 -1.4270 -0.8550
 7419TIP3    H243749   1.002   0.659  17.035  0.1693  0.6587  0.2983
 7420TIP3   OH243750   5.208   2.397  15.863  0.4707  0.2686  0.0472
 7420TIP3    H143751   5.279   2.389  15.926  0.6844 -2.4891 -0.5072
 7420TIP3    H243752   5.129   2.373  15.912  0.6119 -1.6866 -0.6681
 7421TIP3   OH243753   4.566   4.855  15.453  0.2836  0.1132 -0.1069
 7421TIP3    H143754   4.492   4.869  15.513  1.0717  1.6576  0.5245
 7421TIP3    H243755   4.530   4.799  15.384 -1.3270  0.3568  0.5040
 7422TIP3   OH243756   5.823   3.557  15.191 -0.2425  0.2526 -0.6825
 7422TIP3    H143757   5.741   3.509  15.191 -0.0149 -0.3140  3.0073
 7422TIP3    H243758   5.888   3.492  15.218  0.7835  1.5595  0.0603
 7423TIP3   OH243759   3.734   2.087   3.182  0.1946 -0.2405  0.0272
 7423TIP3    H143760   3.683   2.106   3.103 -1.8230 -2.1325  0.8170
 7423TIP3    H243761   3.787   2.010   3.158 -0.0216 -0.4894  0.3496
 7424TIP3   OH243762   6.332   0.689  11.750 -0.0328  0.4109 -0.0097
 7424TIP3    H143763   6.272   0.749  11.707 -2.3382 -2.0709 -0.3717
 7424TIP3    H243764   6.303   0.686  11.841  0.8908  0.8213  0.3080
 7425TIP3   OH243765   4.828   3.802   5.399  0.0453 -0.2013  0.2372
 7425TIP3    H143766   4.847   3.896   5.401 -1.3674  0.1094 -0.1531
 7425TIP3    H243767   4.871   3.770   5.320  1.3839 -0.0822  0.9126
 7426TIP3   OH243768   6.515   5.558   1.265 -0.0359 -0.1675  0.2895
 7426TIP3    H143769   6.588   5.507   1.229  0.0566 -1.6466  2.4742
 7426TIP3    H243770   6.541   5.649   1.251  0.8298 -0.6866 -1.6720
 7427TIP3   OH243771   3.319   3.113   3.425 -0.3700  0.3314 -0.5048
 7427TIP3    H143772   3.236   3.076   3.456 -0.1574  1.7647  1.9699
 7427TIP3    H243773   3.331   3.076   3.338 -3.8535  0.4885 -1.1262
 7428TIP3   OH243774   3.939   1.846  13.628 -0.1385  0.0727 -0.0052
 7428TIP3    H143775   3.855   1.886  13.651 -0.7564 -0.8433 -0.6142
 7428TIP3    H243776   4.005   1.910  13.654 -0.9347  0.0852  2.0813
 7429TIP3   OH243777   0.635   1.284  12.384 -0.0339 -0.2035 -0.5233
 7429TIP3    H143778   0.597   1.196  12.390  4.6279 -2.2954  0.4521
 7429TIP3    H243779   0.641   1.313  12.474 -0.0238  0.4338 -0.7303
 7430TIP3   OH243780   5.032   5.172  11.199 -0.5406  0.7067 -0.1917
 7430TIP3    H143781   4.944   5.185  11.164 -0.5005  2.2239  0.2389
 7430TIP3    H243782   5.062   5.091  11.159 -1.3407  1.2679 -1.9554
 7431TIP3   OH243783   5.352   1.476  11.707  0.0304 -0.4361  0.3391
 7431TIP3    H143784   5.260   1.485  11.684  0.4841  1.6106 -0.8098
 7431TIP3    H243785   5.381   1.565  11.726  2.1124 -0.8500 -0.7251
 7432TIP3   OH243786   4.746   4.524   2.884 -0.1610 -0.0846 -0.2524
 7432TIP3    H143787   4.668   4.473   2.861 -0.4016  0.8765 -1.6526
 7432TIP3    H243788   4.714   4.612   2.901  0.5151  0.1105  0.0485
 7433TIP3   OH243789   6.579   1.596   2.975 -0.0606  0.1953  0.2898
 7433TIP3    H143790   6.529   1.667   2.934  1.3671  0.7792 -0.4885
 7433TIP3    H243791   6.654   1.640   3.015  1.4531 -0.9808 -1.2012
 7434TIP3   OH243792   1.404   0.268  10.607 -0.1769 -0.4494  0.4386
 7434TIP3    H143793   1.311   0.249  10.590 -0.4101  1.3184 -0.3515
 7434TIP3    H243794   1.417   0.357  10.575  2.0943 -1.0900 -0.5423
 7435TIP3   OH243795   4.181   1.254  11.813 -0.5160 -0.2349  0.3897
 7435TIP3    H143796   4.260   1.212  11.848  1.3682  1.2023 -1.9489
 7435TIP3    H243797   4.128   1.273  11.890  0.9656 -2.1182  1.9406
 7436TIP3   OH243798   6.794   4.653  12.761  0.9094  0.4040 -0.1374
 7436TIP3    H143799   6.734   4.674  12.688 -1.1698  0.6388  1.5807
 7436TIP3    H243800   6.798   4.557  12.761 -1.3142  0.2579  1.0980
 7437TIP3   OH243801   2.620   5.028  12.311  0.3090  0.0694 -0.2377
 7437TIP3    H143802   2.635   4.973  12.234  1.1865  0.2753 -0.2141
 7437TIP3    H243803   2.638   5.117  12.280  0.1722  0.2062  0.0776
 7438TIP3   OH243804   2.254   3.231   4.435  0.2598  0.4930  0.1569
 7438TIP3    H143805   2.293   3.148   4.405 -0.6367  0.1872 -0.1753
 7438TIP3    H243806   2.251   3.285   4.356  1.2590  1.0064  0.4697
 7439TIP3   OH243807   4.333   5.570   2.355 -0.2661 -0.2677 -0.6013
 7439TIP3    H143808   4.374   5.656   2.355 -0.5166 -0.1433  0.2896
 7439TIP3    H243809   4.406   5.508   2.355 -0.0351 -0.0511  1.5917
 7440TIP3   OH243810   3.103   3.754  16.994  0.2730  0.2345  0.7191
 7440TIP3    H143811   3.163   3.680  16.985 -0.0511  0.1822 -1.2113
 7440TIP3    H243812   3.023   3.717  17.031  1.2557  0.2339  2.9181
 7441TIP3   OH243813   2.481   4.318  15.754  0.3094  0.0729 -0.7378
 7441TIP3    H143814   2.482   4.237  15.805  0.6565 -0.2639 -1.2772
 7441TIP3    H243815   2.388   4.338  15.744  0.1367 -1.4836 -2.5207
 7442TIP3   OH243816   1.951   5.693  13.582 -0.0428 -0.1047 -0.2419
 7442TIP3    H143817   1.984   5.783  13.579  0.6144 -0.3741 -1.4150
 7442TIP3    H243818   2.024   5.643  13.618  0.0607 -0.3541 -0.7868
 7443TIP3   OH243819   2.651   3.980  16.482  0.1379  0.4754  0.3392
 7443TIP3    H143820   2.626   3.925  16.408  1.6226 -0.4109  0.4694
 7443TIP3    H243821   2.587   3.961  16.550  1.2647 -1.9296  0.7646
 7444TIP3   OH243822   0.751   1.324   0.316  0.1727  0.3386 -0.0948
 7444TIP3    H143823   0.799   1.328   0.233 -0.5534  1.4219 -0.4647
 7444TIP3    H243824   0.759   1.412   0.353 -0.4418  0.1613  0.4687
 7445TIP3   OH243825   1.702   0.693  15.047 -0.7385  0.4496 -0.0214
 7445TIP3    H143826   1.758   0.771  15.055 -1.3363  0.7958  0.9136
 7445TIP3    H243827   1.750   0.635  14.989 -0.5035  1.7142 -1.1142
 7446TIP3   OH243828   2.932   0.083   1.191 -0.1790 -0.5216  0.5641
 7446TIP3    H143829   2.912   0.126   1.108  1.9807  2.9091  1.7481
 7446TIP3    H243830   2.993   0.013   1.168  0.7916  0.7278 -0.7156
 7447TIP3   OH243831   0.811   3.418  17.093  0.0079 -0.1004 -0.2397
 7447TIP3    H143832   0.770   3.409  17.007 -1.2083 -0.2076  0.3307
 7447TIP3    H243833   0.896   3.375  17.084  0.5808  1.3215 -1.8373
 7448TIP3   OH243834   4.835   4.361  11.545 -0.0685 -0.2440  0.1397
 7448TIP3    H143835   4.804   4.376  11.456  1.9947 -1.2570 -0.7962
 7448TIP3    H243836   4.847   4.266  11.550  0.9671 -0.0725  1.0938
 7449TIP3   OH243837   6.747   4.984  16.066 -0.5251  0.5852  0.6060
 7449TIP3    H143838   6.719   4.893  16.056  1.4207  0.0498 -0.3215
 7449TIP3    H243839   6.709   5.030  15.992  1.5533 -0.2738 -1.0277
 7450TIP3   OH243840   4.527   0.107  10.702 -0.6992 -0.7455 -0.4886
 7450TIP3    H143841   4.447   0.056  10.689 -0.7480 -0.6303 -0.6457
 7450TIP3    H243842   4.578   0.093  10.622 -1.1366  0.2094 -0.9499
 7451TIP3   OH243843   2.223   6.712  14.813  0.6058  0.2433 -0.2785
 7451TIP3    H143844   2.205   6.623  14.782  1.1237 -1.1461  3.1785
 7451TIP3    H243845   2.138   6.757  14.806  0.4623 -0.3217 -2.5347
 7452TIP3   OH243846   4.574   5.755  14.554  0.0355  0.3272 -0.2430
 7452TIP3    H143847   4.612   5.668  14.555  0.6670  0.6157  0.9887
 7452TIP3    H243848   4.648   5.814  14.537 -0.1288  0.7564  0.5276
 7453TIP3   OH243849   1.001   4.304  16.670  0.5736 -0.0555  0.4763
 7453TIP3    H143850   0.941   4.377  16.661  0.1444  0.1172  3.9620
 7453TIP3    H243851   0.951   4.227  16.642 -0.4686  0.4073  1.0463
 7454TIP3   OH243852   4.796   0.681  14.382  0.0967 -0.1461  0.2980
 7454TIP3    H143853   4.743   0.685  14.303  0.3919 -1.3108  0.0281
 7454TIP3    H243854   4.839   0.766  14.387 -0.4330  0.1679 -0.4277
 7455TIP3   OH243855   2.452   1.068   2.861  0.7985  0.0996 -0.2935
 7455TIP3    H143856   2.484   1.157   2.850  0.0252  0.6109  1.5463
 7455TIP3    H243857   2.528   1.018   2.890  1.0168  0.3452 -0.4422
 7456TIP3   OH243858   3.220   3.544  11.681 -0.4112  0.0682 -0.6515
 7456TIP3    H143859   3.310   3.518  11.699 -1.0233 -1.3495  0.4861
 7456TIP3    H243860   3.210   3.533  11.587  1.3095  2.5967 -1.1761
 7457TIP3   OH243861   2.267   4.473   2.555  0.2290 -0.6812  0.4085
 7457TIP3    H143862   2.294   4.444   2.468  1.0278 -1.3366  0.8679
 7457TIP3    H243863   2.218   4.399   2.591 -0.2539 -0.3461  0.4555
 7458TIP3   OH243864   2.733   2.385   2.041  0.3386  0.8081  0.0611
 7458TIP3    H143865   2.771   2.467   2.011 -0.2159  0.6948 -0.9911
 7458TIP3    H243866   2.666   2.365   1.976  0.3685 -0.3987  0.3869
 7459TIP3   OH243867   5.272   0.738   0.403 -0.0948  0.1031  0.2442
 7459TIP3    H143868   5.344   0.687   0.364  0.2837 -0.0570  1.1345
 7459TIP3    H243869   5.307   0.766   0.488 -0.7274  0.8735  0.2530
 7460TIP3   OH243870   4.801   4.016   3.826 -0.1480  0.4936  0.3780
 7460TIP3    H143871   4.780   4.008   3.919 -2.1819 -1.0999 -0.1960
 7460TIP3    H243872   4.812   4.110   3.812 -1.9032  0.9317  1.7976
 7461TIP3   OH243873   5.919   4.359  16.523 -0.0052  0.4081  0.6156
 7461TIP3    H143874   6.009   4.339  16.549 -0.1364  0.2767  0.9641
 7461TIP3    H243875   5.927   4.385  16.431  0.1001 -1.8353 -0.0439
 7462TIP3   OH243876   3.114   6.247  14.228  0.1281 -0.2989 -0.1446
 7462TIP3    H143877   3.049   6.308  14.262  0.3685  0.4080 -0.9222
 7462TIP3    H243878   3.198   6.284  14.253  0.2815 -0.2229 -0.7686
 7463TIP3   OH243879   1.348   2.681   4.170  0.3014  0.2115 -0.2306
 7463TIP3    H143880   1.388   2.690   4.083  0.4783 -0.7250 -0.2529
 7463TIP3    H243881   1.302   2.597   4.167  0.5315  0.0453  0.6684
 7464TIP3   OH243882   0.288   4.947  14.436 -0.0029  0.5296 -0.4851
 7464TIP3    H143883   0.260   4.988  14.517 -0.7378 -0.5776 -0.1743
 7464TIP3    H243884   0.290   4.853  14.456  1.2639  0.3673 -1.3026
 7465TIP3   OH243885   3.565   3.446   4.744  0.2383 -0.5358  0.7846
 7465TIP3    H143886   3.558   3.448   4.840  2.3075 -0.9477  0.9657
 7465TIP3    H243887   3.625   3.517   4.723 -1.3885  0.5157 -0.3473
 7466TIP3   OH243888   5.240   1.630   0.279 -0.4230  0.3466  0.3608
 7466TIP3    H143889   5.265   1.719   0.256  1.2623  0.1753  1.4543
 7466TIP3    H243890   5.286   1.574   0.216 -0.4009  0.1868  0.5166
 7467TIP3   OH243891   2.257   3.063   4.699  0.1835  0.3115  0.3863
 7467TIP3    H143892   2.205   3.105   4.768 -0.1776  0.7914 -0.1747
 7467TIP3    H243893   2.262   3.129   4.630  2.6385  0.7682  0.9575
 7468TIP3   OH243894   5.004   4.396  13.119 -0.2479 -0.4760  0.5320
 7468TIP3    H143895   5.081   4.434  13.161  0.4828 -1.0360 -0.3110
 7468TIP3    H243896   4.968   4.467  13.066  0.6383 -0.7031 -0.3826
 7469TIP3   OH243897   4.083   6.638   2.105  0.0555 -0.4617  0.2715
 7469TIP3    H143898   4.060   6.723   2.066  0.3401 -0.0287  1.0358
 7469TIP3    H243899   4.032   6.574   2.055  0.1302  0.1246 -0.5616
 7470TIP3   OH243900   5.381   5.071  15.384  0.4801  0.0498 -0.4748
 7470TIP3    H143901   5.456   5.127  15.404  0.1250 -0.1058  1.3621
 7470TIP3    H243902   5.308   5.132  15.374  0.7580  0.1695 -1.8836
 7471TIP3   OH243903   1.438   4.716   0.183 -0.3835  0.1916 -0.1670
 7471TIP3    H143904   1.413   4.659   0.256  0.8627 -0.6522 -0.3966
 7471TIP3    H243905   1.354   4.745   0.147 -1.0245 -0.4312  0.7742
 7472TIP3   OH243906   4.016   6.401   0.590  0.5762 -0.3775  0.5335
 7472TIP3    H143907   3.981   6.314   0.569  0.2686 -0.5730  1.8079
 7472TIP3    H243908   4.040   6.438   0.505  2.6511 -2.5214  0.1278
 7473TIP3   OH243909   5.145   1.969  16.978  0.9448 -0.6016 -0.6879
 7473TIP3    H143910   5.239   1.987  16.981  0.6094  0.9784  0.9226
 7473TIP3    H243911   5.124   1.935  17.065 -0.0515 -0.5732 -0.9075
 7474TIP3   OH243912   2.900   6.617  15.724  0.6503  0.2153 -0.0659
 7474TIP3    H143913   2.917   6.527  15.753  2.0630  0.8649  1.2471
 7474TIP3    H243914   2.929   6.671  15.798 -0.4852  1.7315 -0.7113
 7475TIP3   OH243915   2.429   0.064   0.561 -0.0888  0.1362 -0.0724
 7475TIP3    H143916   2.382   0.124   0.619 -1.3967 -0.6936 -0.2309
 7475TIP3    H243917   2.380   0.069   0.478  1.1340  0.5299 -0.7761
 7476TIP3   OH243918   5.677   1.190   0.807  0.0137  0.0911 -0.0508
 7476TIP3    H143919   5.607   1.169   0.868  0.5364 -0.8710  0.2313
 7476TIP3    H243920   5.755   1.202   0.861  0.5281 -0.9853 -0.5091
 7477TIP3   OH243921   5.464   5.507   0.738  0.4965 -0.7055 -0.6038
 7477TIP3    H143922   5.369   5.511   0.750  0.4625  0.4205 -1.2292
 7477TIP3    H243923   5.497   5.481   0.824 -0.2550  0.6373  0.1180
 7478TIP3   OH243924   4.974   1.184  14.666  0.4092  0.2935 -0.2642
 7478TIP3    H143925   4.924   1.103  14.662  0.9741 -0.0401 -0.5825
 7478TIP3    H243926   4.928   1.244  14.607  0.6383 -0.1510 -0.8898
 7479TIP3   OH243927   3.295   2.168   3.622 -0.3900 -0.2596 -0.4630
 7479TIP3    H143928   3.344   2.217   3.687 -0.9505 -0.5009  0.1440
 7479TIP3    H243929   3.350   2.171   3.543  0.5798 -0.5036  0.1968
 7480TIP3   OH243930   5.800   4.541   0.511  0.3157 -0.0483  0.2283
 7480TIP3    H143931   5.750   4.622   0.512 -0.3167 -0.4551  2.3079
 7480TIP3    H243932   5.736   4.473   0.489  0.6682 -0.1296 -0.5975
 7481TIP3   OH243933   0.956   6.056  17.026  0.1592  0.5280 -0.0650
 7481TIP3    H143934   0.882   5.999  17.005  1.0622 -0.8710  0.4957
 7481TIP3    H243935   0.956   6.122  16.957 -1.2817  0.2259 -0.3714
 7482TIP3   OH243936   6.283   0.577   5.638  0.4667  0.5450 -0.4498
 7482TIP3    H143937   6.294   0.576   5.733 -0.6790  0.5275 -0.3020
 7482TIP3    H243938   6.311   0.490   5.610  0.6673  0.4987 -0.1052
 7483TIP3   OH243939   6.547   6.034  14.039  0.5741  0.1168 -0.4167
 7483TIP3    H143940   6.505   5.955  14.004  0.2003 -0.0565  0.3991
 7483TIP3    H243941   6.558   6.015  14.132 -1.0071  1.6523  0.1159
 7484TIP3   OH243942   2.164   1.315  10.688 -1.1147  0.1395 -0.1121
 7484TIP3    H143943   2.125   1.366  10.759 -0.9787  0.8177 -0.5135
 7484TIP3    H243944   2.127   1.228  10.698 -0.5403  0.0389  1.2166
 7485TIP3   OH243945   3.794   0.178  11.934 -0.1089 -0.5132 -0.1153
 7485TIP3    H143946   3.715   0.218  11.970 -1.4411 -0.8841 -2.5328
 7485TIP3    H243947   3.849   0.252  11.909  0.5213 -0.2540  1.9820
 7486TIP3   OH243948   1.300   0.302  12.615 -0.1154 -0.2188 -0.3129
 7486TIP3    H143949   1.234   0.262  12.558 -1.1036  2.0451 -0.8184
 7486TIP3    H243950   1.252   0.371  12.661  0.5844 -2.1402  3.4923
 7487TIP3   OH243951   3.739   3.332   0.302  0.5644 -0.4200 -0.1271
 7487TIP3    H143952   3.830   3.358   0.294  0.3504  1.2533  2.3662
 7487TIP3    H243953   3.738   3.273   0.378 -0.1473 -1.9925 -1.3150
 7488TIP3   OH243954   4.938   2.754   5.088  0.0975  0.3054  0.2436
 7488TIP3    H143955   5.025   2.740   5.050  0.5140 -1.8034  1.8547
 7488TIP3    H243956   4.955   2.777   5.179 -0.9724  2.4058 -0.0729
 7489TIP3   OH243957   3.333   4.811  12.194  0.0231  0.0623  0.8406
 7489TIP3    H143958   3.375   4.735  12.154 -0.6103 -0.0458  0.3790
 7489TIP3    H243959   3.342   4.881  12.130 -0.4941  0.0380  0.7344
 7490TIP3   OH243960   6.540   0.855  10.911 -0.2045  0.2904  0.3712
 7490TIP3    H143961   6.484   0.778  10.902 -0.1565 -0.2698  3.9168
 7490TIP3    H243962   6.623   0.820  10.943  0.9512  1.4883 -1.2915
 7491TIP3   OH243963   0.018   3.437  16.434  0.0906  0.6283 -0.4097
 7491TIP3    H143964   0.019   3.467  16.525 -1.1749 -0.0939 -0.1418
 7491TIP3    H243965   0.110   3.421  16.413  0.1939 -1.9002  1.6990
 7492TIP3   OH243966   4.387   5.101   1.735  0.2523 -0.3471 -0.5190
 7492TIP3    H143967   4.408   5.008   1.741  1.5868 -0.0885 -0.9300
 7492TIP3    H243968   4.359   5.125   1.823  1.0109 -0.8798 -0.1250
 7493TIP3   OH243969   6.511   1.384  13.049 -0.3145 -0.8710  0.1819
 7493TIP3    H143970   6.470   1.437  13.118  0.2248  0.9093 -0.8471
 7493TIP3    H243971   6.584   1.340  13.092 -0.4364 -0.3455  0.9306
 7494TIP3   OH243972   0.588   6.337   0.470 -0.0362  0.2120 -0.7093
 7494TIP3    H143973   0.670   6.348   0.421  0.1961 -0.3782 -0.4510
 7494TIP3    H243974   0.573   6.243   0.471 -2.1315  0.4720 -3.0700
 7495TIP3   OH243975   3.972   2.722  12.481 -0.8214 -0.7581  0.1340
 7495TIP3    H143976   3.910   2.672  12.535 -1.6448 -0.5934 -0.6426
 7495TIP3    H243977   4.043   2.661  12.464 -2.3720 -2.1101 -1.8015
 7496TIP3   OH243978   2.402   2.632   6.277  0.0273 -0.0582 -0.7266
 7496TIP3    H143979   2.384   2.698   6.344 -1.5357 -1.0056 -0.1797
 7496TIP3    H243980   2.427   2.554   6.326 -0.4073 -0.5426 -1.2687
 7497TIP3   OH243981   6.719   6.193  13.218 -0.7642 -0.4105 -0.4035
 7497TIP3    H143982   6.660   6.268  13.210  1.3890  1.4408  0.4689
 7497TIP3    H243983   6.713   6.167  13.310  0.1976  0.1660 -0.1682
 7498TIP3   OH243984   3.039   5.324   0.205 -0.5068  0.1421  0.0439
 7498TIP3    H143985   3.033   5.284   0.292 -3.7541  0.1128 -0.1367
 7498TIP3    H243986   2.973   5.393   0.206 -0.7618 -0.0291 -2.4823
 7499TIP3   OH243987   2.121   1.114  13.977 -0.1411 -0.4088 -0.3505
 7499TIP3    H143988   2.212   1.143  13.978  0.0912 -1.1190  0.1873
 7499TIP3    H243989   2.081   1.157  14.052 -0.8847  1.8076 -1.9702
 7500TIP3   OH243990   1.665   5.716   1.075  0.0103 -0.8415  0.4239
 7500TIP3    H143991   1.628   5.643   1.124  1.2010 -0.5246  1.8408
 7500TIP3    H243992   1.692   5.778   1.142 -1.5262  1.1934 -0.7661
 7501TIP3   OH243993   6.192   1.164   2.140  0.6615 -0.2808 -0.7014
 7501TIP3    H143994   6.269   1.167   2.083  1.4160 -3.2121  0.0779
 7501TIP3    H243995   6.221   1.204   2.222  1.3431 -1.2253 -0.4670
 7502TIP3   OH243996   0.187   2.811   1.325 -0.2222 -0.0574 -0.6351
 7502TIP3    H143997   0.163   2.732   1.277  1.8712 -1.9193  1.2667
 7502TIP3    H243998   0.263   2.846   1.279  0.6427 -0.8089  0.1966
 7503TIP3   OH243999   6.374   0.821  13.619  0.0796 -0.2807 -0.4003
 7503TIP3    H144000   6.412   0.790  13.537 -1.1069 -3.7119  0.2879
 7503TIP3    H244001   6.436   0.793  13.687 -0.1269  0.4342  0.0902
 7504TIP3   OH244002   1.741   3.557  11.514 -0.1471 -0.4408  0.1378
 7504TIP3    H144003   1.696   3.610  11.580  3.3268 -0.0625  2.3325
 7504TIP3    H244004   1.701   3.470  11.521 -1.3551  0.1844  1.1624
 7505TIP3   OH244005   3.621   6.117  11.856  0.1220 -0.0609  0.3486
 7505TIP3    H144006   3.619   6.212  11.840  0.0928 -0.3934 -1.7207
 7505TIP3    H244007   3.533   6.087  11.836  0.2256 -0.5914  0.6805
 7506TIP3   OH244008   3.836   5.943   2.666  0.4621  0.2372  0.3376
 7506TIP3    H144009   3.757   5.959   2.614 -0.0137  0.1874  1.0407
 7506TIP3    H244010   3.830   6.004   2.739 -0.1894 -1.4564  1.7493
 7507TIP3   OH244011   5.851   4.039  10.730 -0.5252 -0.5596  0.1275
 7507TIP3    H144012   5.838   4.001  10.817 -1.9247 -0.8962 -0.2236
 7507TIP3    H244013   5.920   3.987  10.691  0.6784  0.0906  1.3317
 7508TIP3   OH244014   5.055   2.214  11.000 -0.1915 -0.0765 -0.0807
 7508TIP3    H144015   5.145   2.195  11.028 -0.3866  0.2607  0.7723
 7508TIP3    H244016   5.065   2.272  10.925  0.2610  1.5651  1.2312
 7509TIP3   OH244017   0.341   2.563  12.380  0.0205  0.4634  0.3326
 7509TIP3    H144018   0.427   2.544  12.417  0.8977  1.3514 -1.1839
 7509TIP3    H244019   0.282   2.501  12.423  1.0260  1.2942  2.9895
 7510TIP3   OH244020   5.653   5.663   1.309  0.1756 -0.0982 -0.0508
 7510TIP3    H144021   5.601   5.653   1.229  0.9466  0.3008 -0.6158
 7510TIP3    H244022   5.628   5.589   1.364  0.7798 -1.2525 -1.3052
 7511TIP3   OH244023   5.151   3.697  14.332  0.0075 -0.8971  0.3569
 7511TIP3    H144024   5.069   3.744  14.317  0.4743 -0.5820 -1.2430
 7511TIP3    H244025   5.151   3.625  14.269  1.8155  0.2336 -1.0000
 7512TIP3   OH244026   0.624   0.242  13.668  0.2110  0.0858 -0.3551
 7512TIP3    H144027   0.696   0.263  13.728  0.1331  0.2326 -0.3140
 7512TIP3    H244028   0.569   0.320  13.668 -2.3954 -1.5713  3.0845
 7513TIP3   OH244029   2.237   3.020  16.727 -0.1747 -0.2263 -0.9309
 7513TIP3    H144030   2.142   3.028  16.719 -0.4934  1.6897  3.3283
 7513TIP3    H244031   2.272   3.090  16.672 -1.2731 -0.3541 -1.8053
 7514TIP3   OH244032   4.186   6.805   0.533  0.3747  0.2119 -0.0168
 7514TIP3    H144033   4.146   6.845   0.456 -0.1245  0.4850  0.3761
 7514TIP3    H244034   4.116   6.750   0.570  1.0092 -0.9119 -0.4678
 7515TIP3   OH244035   0.687   3.152   1.018 -0.3772  0.7861  0.0574
 7515TIP3    H144036   0.760   3.186   1.070 -0.3157 -1.8069  1.7364
 7515TIP3    H244037   0.722   3.073   0.976 -1.7420  0.4191 -0.4243
 7516TIP3   OH244038   2.607   5.568  16.740 -0.7760  0.4700  0.0394
 7516TIP3    H144039   2.669   5.522  16.796 -1.3191 -1.1539 -0.6745
 7516TIP3    H244040   2.540   5.601  16.800 -1.2410 -1.0808  0.4052
 7517TIP3   OH244041   3.196   3.827  10.704  0.7860  0.0509  0.5121
 7517TIP3    H144042   3.107   3.815  10.672  1.1557  1.7154 -1.2047
 7517TIP3    H244043   3.220   3.741  10.739 -1.3847 -0.4865  0.7393
 7518TIP3   OH244044   6.762   6.138   5.669 -0.2817  0.5253 -0.0486
 7518TIP3    H144045   6.778   6.173   5.757 -2.1731  0.9967  0.1182
 7518TIP3    H244046   6.673   6.164   5.648  0.7734  2.0363 -2.8847
 7519TIP3   OH244047   2.736   0.035   4.173  0.1893 -0.3520  0.1859
 7519TIP3    H144048   2.658  -0.019   4.189  0.3316 -0.9064 -0.9316
 7519TIP3    H244049   2.780   0.040   4.257 -0.5424 -0.8491  0.6016
 7520TIP3   OH244050   3.479   5.258  15.827 -0.4925 -0.1558 -0.3793
 7520TIP3    H144051   3.504   5.186  15.885  0.2005 -0.0071 -0.4949
 7520TIP3    H244052   3.454   5.215  15.745  0.3325 -0.2428 -0.5939
 7521TIP3   OH244053   0.320   5.704  11.216 -0.5128 -0.5602  0.9763
 7521TIP3    H144054   0.388   5.762  11.182  0.2150 -0.9455  1.7721
 7521TIP3    H244055   0.367   5.641  11.271 -1.3611 -1.5653  0.5744
 7522TIP3   OH244056   0.550   2.437  15.348  0.2003 -0.2142  0.7788
 7522TIP3    H144057   0.566   2.350  15.314  2.2366  0.1972  0.6507
 7522TIP3    H244058   0.458   2.435  15.376 -0.1865 -1.9288 -0.5387
 7523TIP3   OH244059   1.484   4.048   0.148 -0.3447  0.2373 -0.0347
 7523TIP3    H144060   1.533   3.982   0.197  0.5764  1.0303  0.1341
 7523TIP3    H244061   1.539   4.066   0.071 -1.5279 -0.6250 -1.1087
 7524TIP3   OH244062   4.378   5.623   4.525  0.1450 -0.0422 -0.0909
 7524TIP3    H144063   4.451   5.648   4.581  0.6285  0.1485 -0.8058
 7524TIP3    H244064   4.342   5.706   4.493 -1.0272 -0.0796  1.0526
 7525TIP3   OH244065   1.972   2.166   0.720  0.0290 -0.5117 -0.2346
 7525TIP3    H144066   2.047   2.153   0.778 -0.7429 -1.4395  0.5660
 7525TIP3    H244067   1.996   2.120   0.640  0.8063  0.1963 -0.4200
 7526TIP3   OH244068   5.802   1.348  14.159  0.8717 -0.4618 -0.5494
 7526TIP3    H144069   5.746   1.275  14.132 -1.4220  0.8571  0.4858
 7526TIP3    H244070   5.836   1.383  14.077 -0.8797 -0.4834 -1.3099
 7527TIP3   OH244071   3.941   2.821  15.595  0.7762  0.5760 -0.0869
 7527TIP3    H144072   3.867   2.881  15.588  2.5851  2.9717  0.7597
 7527TIP3    H244073   3.913   2.757  15.661 -1.1409  0.4550 -0.9512
 7528TIP3   OH244074   5.598   1.884  14.946  0.9653 -0.0912 -0.8463
 7528TIP3    H144075   5.627   1.797  14.973 -0.5230 -0.4140 -0.2118
 7528TIP3    H244076   5.605   1.938  15.025  0.7526  0.0548 -0.9245
 7529TIP3   OH244077   2.218   5.509  14.754 -0.0684 -0.3351  0.1766
 7529TIP3    H144078   2.253   5.466  14.832  3.2795 -0.0425 -1.0896
 7529TIP3    H244079   2.233   5.602  14.768  1.1424 -0.3278 -1.0678
 7530TIP3   OH244080   2.413   2.575   4.460 -0.6496 -0.4128  0.3576
 7530TIP3    H144081   2.351   2.596   4.390 -0.9491 -2.8237 -0.1656
 7530TIP3    H244082   2.418   2.479   4.459  0.5824 -0.4063  2.5729
 7531TIP3   OH244083   5.133   6.640   3.935  0.0529 -0.1891  0.3447
 7531TIP3    H144084   5.153   6.695   4.011  1.4803  2.2018 -1.6739
 7531TIP3    H244085   5.191   6.565   3.944  0.9611  0.5773  1.0803
 7532TIP3   OH244086   0.546   3.136  10.800 -0.0549 -0.0335 -0.5537
 7532TIP3    H144087   0.467   3.088  10.775 -0.3060  0.0589  0.0478
 7532TIP3    H244088   0.524   3.227  10.784 -0.1086  0.0006 -0.2884
 7533TIP3   OH244089   3.091   3.961  14.628  0.1674 -0.1288  0.2697
 7533TIP3    H144090   3.062   3.870  14.628 -0.5244  0.0845 -0.8112
 7533TIP3    H244091   3.176   3.959  14.672 -0.5045 -1.0728  1.5364
 7534TIP3   OH244092   6.116   2.033   4.046 -0.0074 -0.0012  0.3129
 7534TIP3    H144093   6.082   1.961   3.994 -0.5665  1.0499 -0.7841
 7534TIP3    H244094   6.053   2.104   4.034  0.9153  0.9190  0.8041
 7535TIP3   OH244095   1.261   1.679  12.267 -0.4713 -0.4259 -0.2617
 7535TIP3    H144096   1.173   1.697  12.301 -0.4513  0.5446 -0.7021
 7535TIP3    H244097   1.310   1.760  12.284  0.4061 -1.0496  0.2061
 7536TIP3   OH244098   6.362   2.194  15.213 -0.2193 -0.5600 -0.0149
 7536TIP3    H144099   6.372   2.289  15.211 -0.3252 -0.5573 -0.4293
 7536TIP3    H244100   6.334   2.174  15.302  1.5500 -0.3728  0.5936
 7537TIP3   OH244101   5.087   2.524  17.223 -0.4402  0.5249  0.1077
 7537TIP3    H144102   5.142   2.598  17.199  0.1301 -0.3409 -1.3296
 7537TIP3    H244103   5.135   2.447  17.192 -1.8718 -0.3236 -0.0594
 7538TIP3   OH244104   1.290   5.136  14.855  0.0233 -0.8873 -0.5852
 7538TIP3    H144105   1.311   5.222  14.891 -0.0340 -0.7876 -0.7906
 7538TIP3    H244106   1.271   5.152  14.763  0.1469 -1.1391 -0.6559
 7539TIP3   OH244107   5.509   5.173  11.827 -0.2701 -0.4468 -0.1937
 7539TIP3    H144108   5.488   5.108  11.894  3.4666 -3.1389 -1.4635
 7539TIP3    H244109   5.531   5.252  11.876 -0.8350 -1.3477  1.5682
 7540TIP3   OH244110   2.306   5.277   2.403  0.2215 -0.0435  0.2700
 7540TIP3    H144111   2.350   5.291   2.319 -1.4131 -0.1901 -0.6286
 7540TIP3    H244112   2.250   5.201   2.388  0.1467 -0.2513  1.5879
 7541TIP3   OH244113   0.730   2.369   0.443  0.0671 -0.2072  0.0664
 7541TIP3    H144114   0.709   2.340   0.354 -1.5027 -1.5823  0.8551
 7541TIP3    H244115   0.645   2.372   0.487  0.7818  0.9571  1.3876
 7542TIP3   OH244116   3.898   1.382   5.585 -0.3835  0.5532  0.1737
 7542TIP3    H144117   3.966   1.442   5.554 -1.0384  1.9081  1.3379
 7542TIP3    H244118   3.817   1.432   5.581 -0.7978  0.1006  2.0953
 7543TIP3   OH244119   0.087   2.972   4.257 -0.0452 -0.3442 -0.3311
 7543TIP3    H144120   0.164   2.989   4.311 -0.3753  1.9824 -0.5574
 7543TIP3    H244121   0.122   2.940   4.174  0.7693  1.8400 -0.8601
 7544TIP3   OH244122   3.246   1.877  14.907 -0.0047  0.5225 -0.0222
 7544TIP3    H144123   3.337   1.877  14.877  0.5887  1.8967  1.7040
 7544TIP3    H244124   3.236   1.794  14.953  0.0843 -0.0515 -1.0120
 7545TIP3   OH244125   5.001   1.499   0.680 -0.6179 -0.1719 -0.0748
 7545TIP3    H144126   4.945   1.568   0.715 -0.1959  1.1544 -1.9368
 7545TIP3    H244127   5.002   1.432   0.748 -1.4393  1.4288  1.5527
 7546TIP3   OH244128   6.003   2.873   4.215  0.7465  0.0286 -0.0924
 7546TIP3    H144129   6.002   2.777   4.212  0.9563  0.0247 -0.0316
 7546TIP3    H244130   5.911   2.898   4.207  0.5923 -0.2094  0.8793
 7547TIP3   OH244131   1.792   5.708  15.148 -0.7075  0.3479  0.7824
 7547TIP3    H144132   1.789   5.752  15.063  1.5217 -0.4702  0.2483
 7547TIP3    H244133   1.724   5.641  15.142  0.2304 -0.4846 -0.8061
 7548TIP3   OH244134   0.604   3.357   5.038  0.0620 -0.2390  0.2573
 7548TIP3    H144135   0.668   3.366   5.108  2.1596 -0.7500 -1.5427
 7548TIP3    H244136   0.559   3.274   5.057  0.4274 -0.2445  1.1113
 7549TIP3   OH244137   2.011   5.451  10.285  0.5235 -0.3612  0.0618
 7549TIP3    H144138   2.077   5.384  10.301  0.7457 -1.1666 -3.6990
 7549TIP3    H244139   1.936   5.425  10.339  1.3511 -2.4524  0.2502
 7550TIP3   OH244140   5.771   4.480   3.729 -0.0942 -0.0370 -0.3300
 7550TIP3    H144141   5.772   4.575   3.738  0.8795 -0.0142 -0.6182
 7550TIP3    H244142   5.736   4.465   3.641  1.6465  0.1328 -1.0759
 7551TIP3   OH244143   3.599   4.916   3.535  0.5813  0.8122 -0.5545
 7551TIP3    H144144   3.676   4.970   3.520  2.7058 -1.2443  2.4426
 7551TIP3    H244145   3.592   4.863   3.455  0.9145  2.6016 -1.7879
 7552TIP3   OH244146   0.424   5.197  17.017  0.6282  0.0498 -0.7908
 7552TIP3    H144147   0.443   5.108  16.989 -0.6015  0.7082 -3.9961
 7552TIP3    H244148   0.328   5.201  17.020  0.6765  0.4202  2.4392
 7553TIP3   OH244149   5.927   6.544  14.074 -0.3471 -0.2672 -0.0380
 7553TIP3    H144150   5.953   6.610  14.010 -2.3812 -0.5758 -1.2136
 7553TIP3    H244151   5.971   6.464  14.045  1.9935  0.4976  1.2984
 7554TIP3   OH244152   6.783   3.742   0.114 -0.0210  0.2456  0.2655
 7554TIP3    H144153   6.861   3.797   0.119  0.1411  0.1410 -0.8924
 7554TIP3    H244154   6.795   3.676   0.182  1.0533  0.0314 -0.1274
 7555TIP3   OH244155   3.459   1.517   0.898 -0.5262  0.6411 -0.4179
 7555TIP3    H144156   3.514   1.583   0.941  0.8079 -0.4281 -0.4656
 7555TIP3    H244157   3.397   1.490   0.965  0.7677 -0.1320  0.4975
 7556TIP3   OH244158   2.394   2.070   4.246  0.6163  0.2559  0.6187
 7556TIP3    H144159   2.359   1.985   4.274  0.7498  0.2340  0.7172
 7556TIP3    H244160   2.464   2.048   4.185  2.2845  0.2415  2.4892
 7557TIP3   OH244161   2.883   5.909  16.703 -0.1258 -0.3407 -0.0364
 7557TIP3    H144162   2.917   5.857  16.776 -1.0176 -1.8711 -0.6856
 7557TIP3    H244163   2.797   5.938  16.733 -0.2786 -0.5412 -0.2783
 7558TIP3   OH244164   6.532   6.568  10.702 -0.0922 -0.4564  0.1602
 7558TIP3    H144165   6.616   6.529  10.678 -0.6423 -0.6607 -1.5582
 7558TIP3    H244166   6.502   6.516  10.777  1.0334 -0.7556  0.4101
 7559TIP3   OH244167   6.717   3.100   5.667 -0.2228 -0.3371  0.2098
 7559TIP3    H144168   6.660   3.069   5.596 -0.3502  1.6318 -0.5737
 7559TIP3    H244169   6.709   3.033   5.735 -0.6195 -1.9299 -1.3610
 7560TIP3   OH244170   5.001   6.365   3.434 -0.6501 -0.2113  0.7668
 7560TIP3    H144171   5.074   6.365   3.372 -3.7745 -0.3038 -3.1547
 7560TIP3    H244172   4.966   6.276   3.430  0.0512 -0.6891  3.9743
 7561TIP3   OH244173   1.576   3.548  13.464  0.3903  0.2842 -0.4250
 7561TIP3    H144174   1.609   3.606  13.396  0.2418 -2.6184 -3.1234
 7561TIP3    H244175   1.641   3.478  13.469  0.8837  0.9015  3.1692
 7562TIP3   OH244176   1.543   2.061   0.387 -0.4995 -0.1786 -0.3341
 7562TIP3    H144177   1.463   2.110   0.366 -1.2275  0.3644  3.3268
 7562TIP3    H244178   1.614   2.123   0.370 -1.0944  0.5178 -0.3275
 7563TIP3   OH244179   6.252   3.101  11.841  0.1154 -0.4260  0.3277
 7563TIP3    H144180   6.305   3.171  11.803  0.3550  0.3041  1.9795
 7563TIP3    H244181   6.308   3.061  11.907  0.0373 -2.2956 -0.6909
 7564TIP3   OH244182   2.215   2.958   6.166  0.2856  0.2617 -0.0026
 7564TIP3    H144183   2.173   2.873   6.149  2.4005 -0.4534 -1.9817
 7564TIP3    H244184   2.265   2.944   6.246 -0.4290  0.0453  0.4081
 7565TIP3   OH244185   0.465   6.679   5.956  0.3187  0.3802 -0.2818
 7565TIP3    H144186   0.410   6.660   5.880 -0.9090 -0.5117  0.8117
 7565TIP3    H244187   0.425   6.630   6.028  1.1907  1.5726  1.0511
 7566TIP3   OH244188   4.298   2.519  14.032  1.0940  0.4078 -0.0270
 7566TIP3    H144189   4.391   2.511  14.013  1.1661  2.0529 -0.3898
 7566TIP3    H244190   4.291   2.596  14.089 -0.1353  0.7916 -0.6758
 7567TIP3   OH244191   4.144   6.209  11.942 -0.3090 -0.2025  0.1926
 7567TIP3    H144192   4.161   6.300  11.966  1.2694 -1.1399  2.7915
 7567TIP3    H244193   4.216   6.186  11.884 -0.3469 -0.0093  0.0679
 7568TIP3   OH244194   5.711   4.646   1.201  0.7022 -0.5580  0.4906
 7568TIP3    H144195   5.615   4.654   1.203  0.8204  0.5139  2.0671
 7568TIP3    H244196   5.741   4.729   1.165  1.0601 -0.7762  0.2836
 7569TIP3   OH244197   0.415   5.078  12.202  0.0563  0.3885  0.1671
 7569TIP3    H144198   0.502   5.118  12.206 -0.3489  1.2447  0.5799
 7569TIP3    H244199   0.430   4.986  12.224  1.2416 -0.0941 -2.3877
 7570TIP3   OH244200   3.389   5.498   0.537 -0.4719 -0.0054 -0.2199
 7570TIP3    H144201   3.428   5.582   0.513 -0.6658  0.3418  0.6632
 7570TIP3    H244202   3.449   5.462   0.602 -1.0833  0.0651  0.3873
 7571TIP3   OH244203   1.466   4.339  11.655  0.0729  0.2461 -0.5388
 7571TIP3    H144204   1.459   4.273  11.724 -0.1387 -0.0875 -0.8808
 7571TIP3    H244205   1.488   4.290  11.576 -1.9079  0.3593 -1.1922
 7572TIP3   OH244206   0.028   6.405  16.223 -0.0885 -0.3494  0.1374
 7572TIP3    H144207   0.071   6.342  16.281  0.0962 -0.2092  0.1561
 7572TIP3    H244208   0.099   6.443  16.172  0.0725  1.2184  1.4576
 7573TIP3   OH244209   2.388   4.698  13.398  0.3788 -0.0169  0.2484
 7573TIP3    H144210   2.343   4.781  13.417 -0.7815 -0.9322  1.6015
 7573TIP3    H244211   2.480   4.722  13.391 -0.0448  1.5229 -0.1603
 7574TIP3   OH244212   1.342   2.626   4.766 -0.2981 -0.0628 -0.2840
 7574TIP3    H144213   1.276   2.668   4.821 -1.3612 -2.0170  0.0011
 7574TIP3    H244214   1.416   2.610   4.825 -0.7803 -0.6231  0.1770
 7575TIP3   OH244215   5.584   3.217  11.432 -0.5853  0.6520 -0.0672
 7575TIP3    H144216   5.676   3.202  11.455 -0.6200  1.3286  0.5205
 7575TIP3    H244217   5.569   3.310  11.451 -1.3834  0.5498 -0.1844
 7576TIP3   OH244218   5.822   4.865   3.151 -0.8924  0.2837  0.3200
 7576TIP3    H144219   5.790   4.868   3.061 -1.6430  1.2415  0.6140
 7576TIP3    H244220   5.906   4.820   3.145 -2.8954 -3.4941 -0.2648
 7577TIP3   OH244221   1.827   6.676  16.849  0.3295 -0.1591 -0.1357
 7577TIP3    H144222   1.886   6.749  16.828  0.5095  0.2025  1.5268
 7577TIP3    H244223   1.797   6.695  16.938 -3.0095  0.1471 -1.2639
 7578TIP3   OH244224   5.947   6.174  14.021  0.1060 -0.2670  0.1478
 7578TIP3    H144225   6.014   6.229  13.979 -0.5453  0.4347  0.0135
 7578TIP3    H244226   5.942   6.096  13.967  0.8610 -0.3458  0.1886
 7579TIP3   OH244227   6.575   6.359   0.582 -0.6585 -0.1098  0.1877
 7579TIP3    H144228   6.578   6.424   0.511  1.1191  0.8752  1.1284
 7579TIP3    H244229   6.513   6.293   0.552 -2.6797  2.1332 -0.7275
 7580TIP3   OH244230   0.176   5.344   1.405  0.1727 -0.5563  0.5704
 7580TIP3    H144231   0.182   5.390   1.322 -0.8633  0.1115  0.8547
 7580TIP3    H244232   0.129   5.405   1.463  0.4804 -1.1927  1.5027
 7581TIP3   OH244233   2.875   3.842  14.062 -1.1127  0.5650  0.2790
 7581TIP3    H144234   2.901   3.925  14.103 -1.2285 -0.0877  1.6880
 7581TIP3    H244235   2.909   3.774  14.121  0.9637 -0.4799 -1.9990
 7582TIP3   OH244236   6.004   5.988   1.787  0.4233 -0.2115 -0.9325
 7582TIP3    H144237   5.920   5.999   1.744 -0.4589  1.0924  1.0276
 7582TIP3    H244238   5.982   5.970   1.878  2.2470  0.1798 -0.3909
 7583TIP3   OH244239   1.291   5.262  12.753 -0.8430  0.1059 -0.3145
 7583TIP3    H144240   1.205   5.289  12.724 -0.6172  0.9208 -0.2323
 7583TIP3    H244241   1.283   5.255  12.849 -0.2871  2.1790 -0.0811
 7584TIP3   OH244242   4.391   1.162   4.069  0.2502  0.4220 -0.0756
 7584TIP3    H144243   4.457   1.126   4.129 -0.5429 -1.9420 -0.5761
 7584TIP3    H244244   4.339   1.221   4.123  1.5154  0.7383  0.8171
 7585TIP3   OH244245   6.448   0.844  12.970  0.0957 -0.5432  0.0518
 7585TIP3    H144246   6.388   0.906  13.011  0.5794 -0.9342  1.3924
 7585TIP3    H244247   6.413   0.758  12.994  0.8292 -0.7717  0.3309
 7586TIP3   OH244248   5.497   0.910   2.387  0.0348  0.4937  0.6736
 7586TIP3    H144249   5.504   0.822   2.425 -0.2648 -0.1376 -0.6685
 7586TIP3    H244250   5.443   0.897   2.309  1.6566  1.5079 -0.6437
 7587TIP3   OH244251   4.215   0.080   1.913 -0.2544 -0.1970  0.2501
 7587TIP3    H144252   4.267   0.093   1.833  2.9659 -2.4402  1.8320
 7587TIP3    H244253   4.136   0.036   1.884  0.0776  0.5651 -1.8976
 7588TIP3   OH244254   4.704   4.994  12.570  0.8227 -0.4522  0.0374
 7588TIP3    H144255   4.707   5.087  12.550 -0.0223 -0.6392 -1.0037
 7588TIP3    H244256   4.611   4.975  12.582  0.6812 -1.7783 -2.7964
 7589TIP3   OH244257   5.194   0.336   1.523 -0.1520  0.2501 -0.4438
 7589TIP3    H144258   5.164   0.426   1.508  1.4551  0.7845 -0.5594
 7589TIP3    H244259   5.287   0.339   1.504 -0.1181 -1.5010 -0.6160
 7590TIP3   OH244260   0.502   1.694   2.048 -0.2593  0.0416  0.1252
 7590TIP3    H144261   0.488   1.774   2.099 -1.1737 -0.0446  0.0146
 7590TIP3    H244262   0.429   1.637   2.071  0.5409 -0.8790  0.4165
 7591TIP3   OH244263   6.592   4.876  11.320 -0.5046  0.2436 -0.7041
 7591TIP3    H144264   6.623   4.938  11.387 -0.7229 -0.8810  0.4541
 7591TIP3    H244265   6.502   4.857  11.345  0.7193 -3.4706  1.2031
 7592TIP3   OH244266   2.527   4.124   0.806  0.4809  0.5148  0.3424
 7592TIP3    H144267   2.572   4.081   0.878  2.7211 -1.1500 -1.9701
 7592TIP3    H244268   2.592   4.182   0.767 -0.4503  0.8201 -0.8241
 7593TIP3   OH244269   0.550   2.840   4.247  0.2222  0.3842  0.3479
 7593TIP3    H144270   0.474   2.796   4.285  0.9810 -0.0634  1.3672
 7593TIP3    H244271   0.625   2.793   4.283  0.9956  1.1314 -0.2781
 7594TIP3   OH244272   1.596   0.521  15.556  0.5176 -0.2678 -0.6028
 7594TIP3    H144273   1.538   0.454  15.592 -0.1347  0.7542  0.2971
 7594TIP3    H244274   1.581   0.518  15.462  1.5240 -2.3162 -0.7199
 7595TIP3   OH244275   6.438   0.945   0.721 -0.0956  0.2200 -0.3784
 7595TIP3    H144276   6.457   0.962   0.629  2.0614 -1.4889 -0.3160
 7595TIP3    H244277   6.383   0.867   0.720 -2.2598  1.7065 -0.2932
 7596TIP3   OH244278   6.268   0.072   2.608  0.1062  0.0114 -0.3706
 7596TIP3    H144279   6.247   0.081   2.701 -0.0943 -1.5234 -0.2475
 7596TIP3    H244280   6.314   0.153   2.586  0.3099  0.3202  1.1105
 7597TIP3   OH244281   1.149   2.994   4.520  0.0775 -0.1654 -0.7966
 7597TIP3    H144282   1.178   3.016   4.609 -0.5294 -1.3321 -0.2934
 7597TIP3    H244283   1.114   3.075   4.484  0.7002  0.4093 -0.1195
 7598TIP3   OH244284   0.153   6.395   2.721  0.3451 -0.1505 -0.2690
 7598TIP3    H144285   0.155   6.303   2.749  0.3510 -0.0397  0.1019
 7598TIP3    H244286   0.238   6.430   2.749  0.0116  0.1841  0.3385
 7599TIP3   OH244287   5.064   4.291   3.533 -0.7498  0.0451  0.9579
 7599TIP3    H144288   5.041   4.268   3.443 -1.1860  3.2506  0.1900
 7599TIP3    H244289   5.038   4.215   3.585  0.6079 -2.3447 -1.7507
 7600TIP3   OH244290   1.073   5.801   2.195 -0.3434  0.5086  0.2618
 7600TIP3    H144291   1.111   5.762   2.273 -1.0165  0.9737  0.8328
 7600TIP3    H244292   1.084   5.735   2.127  2.6746  1.1512  0.0642
 7601TIP3   OH244293   1.028   5.551   3.207 -0.5647  0.4486  0.0191
 7601TIP3    H144294   0.950   5.564   3.154 -1.1019 -0.7026  0.5010
 7601TIP3    H244295   1.090   5.617   3.176 -0.7496 -0.4048 -2.2554
 7602TIP3   OH244296   2.645   6.622  14.752  0.0367 -0.4390  0.5039
 7602TIP3    H144297   2.702   6.677  14.807 -1.3016  1.3150  0.1728
 7602TIP3    H244298   2.703   6.553  14.720  1.7811  0.8039  0.8945
 7603TIP3   OH244299   3.960   2.463   0.748  0.1474 -0.4142  0.2119
 7603TIP3    H144300   3.964   2.454   0.843 -0.1421  0.9881  0.3639
 7603TIP3    H244301   3.867   2.473   0.729 -0.0040 -2.7489 -0.4322
 7604TIP3   OH244302   6.140   1.066   3.069 -0.6064 -0.8655 -0.3556
 7604TIP3    H144303   6.058   1.071   3.118  0.4183  0.0152  1.3120
 7604TIP3    H244304   6.208   1.079   3.135  0.8177  0.2380 -2.0051
 7605TIP3   OH244305   3.764   6.582   2.728 -0.2330  0.1734 -0.1003
 7605TIP3    H144306   3.769   6.658   2.669 -0.4591  0.0786 -0.2432
 7605TIP3    H244307   3.671   6.574   2.748 -0.3804 -0.9008 -1.1797
 7606TIP3   OH244308   3.247   6.720  12.438 -0.5463 -0.4015 -0.0346
 7606TIP3    H144309   3.228   6.709  12.345  2.2746 -0.4974 -0.6440
 7606TIP3    H244310   3.338   6.749  12.440 -0.4835 -0.7080  2.7258
 7607TIP3   OH244311   6.286   4.720   4.289  0.2556  0.3428 -0.2070
 7607TIP3    H144312   6.244   4.761   4.213  0.9361  0.3275 -0.6029
 7607TIP3    H244313   6.378   4.712   4.263  0.2496 -0.8497  0.1182
 7608TIP3   OH244314   3.987   6.418  17.057  0.1486  0.4143  0.1128
 7608TIP3    H144315   3.901   6.406  17.016 -0.2227  0.3020  0.9209
 7608TIP3    H244316   4.049   6.383  16.993 -0.3574  1.0473 -0.7329
 7609TIP3   OH244317   5.126   4.982   0.928  0.4232 -0.1905  0.4634
 7609TIP3    H144318   5.099   4.904   0.975  0.6706 -0.2515  0.5063
 7609TIP3    H244319   5.096   4.968   0.839  0.7077 -0.4565  0.4084
 7610TIP3   OH244320   5.435   6.508   0.832 -0.1062  0.1879  0.1035
 7610TIP3    H144321   5.528   6.491   0.813 -0.2190 -2.2207  1.4359
 7610TIP3    H244322   5.391   6.498   0.747  0.7230  0.3540 -0.3533
 7611TIP3   OH244323   5.322   1.367  15.903  0.5460  0.0047 -0.0239
 7611TIP3    H144324   5.371   1.449  15.908 -0.4625  0.5316  1.7566
 7611TIP3    H244325   5.248   1.386  15.845  1.4481 -0.2831 -1.3019
 7612TIP3   OH244326   1.832   6.258   2.820  0.3760 -0.1108 -0.0681
 7612TIP3    H144327   1.852   6.269   2.913 -4.1777  0.0144  1.0182
 7612TIP3    H244328   1.831   6.163   2.807  0.7022 -0.1330  0.0539
 7613TIP3   OH244329   0.930   2.064  11.106 -0.2888 -0.2608  0.0082
 7613TIP3    H144330   0.958   2.128  11.040 -0.2785 -0.5879 -0.3011
 7613TIP3    H244331   1.011   2.039  11.151  0.1161 -2.2304 -1.7818
 7614TIP3   OH244332   3.048   1.625  11.761 -0.2346  0.0217  0.2430
 7614TIP3    H144333   3.013   1.705  11.722  1.2635  0.6182  0.0929
 7614TIP3    H244334   3.029   1.633  11.855 -2.5410 -0.7422 -0.1275
 7615TIP3   OH244335   3.486   4.647  16.847 -0.1656  0.0732  0.8230
 7615TIP3    H144336   3.486   4.640  16.751 -0.3517  0.5510  0.7899
 7615TIP3    H244337   3.578   4.641  16.871 -0.1867 -1.0659  0.6918
 7616TIP3   OH244338   4.052   0.045   6.194  0.8893  0.1842 -0.4235
 7616TIP3    H144339   4.051  -0.047   6.167  1.2101 -0.0408  0.3303
 7616TIP3    H244340   4.123   0.083   6.142  0.9417 -0.0513 -0.5277
 7617TIP3   OH244341   4.715   2.740  14.806 -0.6304  0.2862 -0.0127
 7617TIP3    H144342   4.666   2.680  14.862 -0.7283  0.4937  0.1248
 7617TIP3    H244343   4.793   2.691  14.780  0.4073  0.9083  1.9073
 7618TIP3   OH244344   2.428   5.302   2.165  0.0983  0.8030 -0.0830
 7618TIP3    H144345   2.515   5.333   2.142  1.6231 -3.3062 -0.1861
 7618TIP3    H244346   2.391   5.270   2.082  0.0985 -1.1281  0.6385
 7619TIP3   OH244347   0.394   3.539   0.024 -0.0615 -1.0835  0.1080
 7619TIP3    H144348   0.308   3.531  -0.019 -0.7634 -1.8745  1.6292
 7619TIP3    H244349   0.455   3.555  -0.048 -1.5882  0.3324 -0.9223
 7620TIP3   OH244350   0.521   2.071   3.263 -0.6248  0.7427 -0.4607
 7620TIP3    H144351   0.507   2.006   3.332 -0.4245  1.6634  0.4782
 7620TIP3    H244352   0.467   2.145   3.289  0.3328  1.5373 -0.6798
 7621TIP3   OH244353   1.338   2.395   2.602  0.3096 -0.2363 -0.1931
 7621TIP3    H144354   1.256   2.436   2.628  0.5776  0.2095 -0.0403
 7621TIP3    H244355   1.334   2.307   2.638  0.5604  0.2897  1.1420
 7622TIP3   OH244356   1.304   0.438  13.637 -0.1660  0.0753  0.6394
 7622TIP3    H144357   1.219   0.400  13.658 -0.3940  0.1449 -0.1547
 7622TIP3    H244358   1.330   0.396  13.555 -0.4695  1.6886 -0.3093
 7623TIP3   OH244359   1.469   4.405  12.005 -0.4018 -0.3920  0.3613
 7623TIP3    H144360   1.504   4.387  12.092 -0.2919  4.6031  1.5022
 7623TIP3    H244361   1.546   4.412  11.949 -0.5089 -4.3570 -0.3901
 7624TIP3   OH244362   1.038   3.845   1.074  0.4291  0.5297 -0.2906
 7624TIP3    H144363   1.037   3.774   1.010 -2.2738 -0.7571  1.0636
 7624TIP3    H244364   1.085   3.809   1.149  1.7669  1.3055 -0.7304
 7625TIP3   OH244365   0.951   5.518  11.794  0.4845  0.2579 -0.1170
 7625TIP3    H144366   1.037   5.539  11.755  0.3707  0.6184 -0.1796
 7625TIP3    H244367   0.891   5.579  11.751  0.5800  1.5857  1.6154
 7626TIP3   OH244368   1.431   2.244  12.943  0.6988  0.3174 -0.6301
 7626TIP3    H144369   1.368   2.316  12.938 -0.1229 -0.3057  0.3968
 7626TIP3    H244370   1.492   2.270  13.012  0.2157 -0.1005 -0.0380
 7627TIP3   OH244371   0.594   4.859  17.179 -0.0657 -0.1328  0.1506
 7627TIP3    H144372   0.662   4.914  17.139 -0.7167 -0.4701 -1.4411
 7627TIP3    H244373   0.608   4.869  17.273  0.0950  2.4305 -0.1110
 7628TIP3   OH244374   2.863   5.434  11.621 -0.1210  0.2040  0.2969
 7628TIP3    H144375   2.851   5.387  11.704  0.4350  1.7033  1.2682
 7628TIP3    H244376   2.787   5.410  11.568  1.2379 -3.4631 -0.0957
 7629TIP3   OH244377   4.778   1.355   4.127 -0.8294  0.1225 -0.3581
 7629TIP3    H144378   4.762   1.346   4.221 -1.8703 -1.9130 -0.7116
 7629TIP3    H244379   4.867   1.324   4.114 -0.0321  2.0978  0.1881
 7630TIP3   OH244380   6.014   1.192   2.801 -0.2916 -0.2589 -0.4363
 7630TIP3    H144381   5.928   1.188   2.759 -0.1046  0.0186 -0.8515
 7630TIP3    H244382   6.045   1.280   2.781  0.2658 -0.5023 -0.6347
 7631TIP3   OH244383   4.127   3.482   4.634 -0.5675 -0.0134 -0.5410
 7631TIP3    H144384   4.171   3.507   4.715 -0.3036  1.7027 -1.1979
 7631TIP3    H244385   4.197   3.452   4.576 -0.8351 -1.9525  0.0935
 7632TIP3   OH244386   6.240   3.210   6.113  0.0481  0.0875  0.3751
 7632TIP3    H144387   6.303   3.140   6.129  0.5899  1.0541  2.6056
 7632TIP3    H244388   6.182   3.209   6.189  0.0177  1.9916  0.4153
 7633TIP3   OH244389   6.316   1.316  14.363 -0.3253  0.0895 -0.2207
 7633TIP3    H144390   6.345   1.293  14.274  0.0205  2.4200 -0.7526
 7633TIP3    H244391   6.360   1.253  14.420  2.2000  0.6866 -1.4318
 7634TIP3   OH244392   5.098   1.321  16.112  0.0039  0.6272  0.3450
 7634TIP3    H144393   5.012   1.318  16.154 -1.9480  1.4248 -3.4241
 7634TIP3    H244394   5.125   1.413  16.119 -0.0499  0.6385  0.4069
 7635TIP3   OH244395   1.287   3.053  16.819  0.1400 -0.2689 -0.1708
 7635TIP3    H144396   1.319   3.070  16.730 -0.9404  0.1342 -0.4940
 7635TIP3    H244397   1.192   3.066  16.813  0.1146  0.2084  1.1501
 7636TIP3   OH244398   3.118   2.966   5.768 -0.7249  0.4890 -0.3471
 7636TIP3    H144399   3.137   2.877   5.739 -0.7509  1.2236 -2.7210
 7636TIP3    H244400   3.197   3.015   5.747 -0.0124  0.6934  2.6069
 7637TIP3   OH244401   3.664   5.506  16.988  0.0600 -0.4298  0.0388
 7637TIP3    H144402   3.622   5.509  17.074  0.2220  0.9880  0.0869
 7637TIP3    H244403   3.673   5.598  16.963  1.2673 -0.7835 -0.8827
 7638TIP3   OH244404   3.438   4.435  17.041  0.2668  0.6980  0.4413
 7638TIP3    H144405   3.450   4.514  16.989  0.2909 -0.0157 -0.6366
 7638TIP3    H244406   3.350   4.405  17.021  0.7080 -0.2507 -0.1385
 7639TIP3   OH244407   1.428   2.620  15.085 -0.5054  0.0713  0.2711
 7639TIP3    H144408   1.485   2.683  15.130  0.2082 -0.0836 -0.3992
 7639TIP3    H244409   1.422   2.652  14.995  0.7333 -1.3808 -0.3488
 7640TIP3   OH244410   0.747   2.865   6.286 -0.5683 -0.5480 -0.3555
 7640TIP3    H144411   0.793   2.906   6.360  1.0221  0.6370 -1.9416
 7640TIP3    H244412   0.699   2.792   6.324  2.2315 -1.5085  1.4763
 7641TIP3   OH244413   1.580   3.101  15.470 -0.2577 -0.0683  0.1369
 7641TIP3    H144414   1.497   3.148  15.464 -0.4387 -0.4723 -0.6198
 7641TIP3    H244415   1.644   3.167  15.494 -0.2030  0.9135 -2.5286
 7642TIP3   OH244416   2.159   6.713  13.351  0.0010 -0.3059 -0.1748
 7642TIP3    H144417   2.190   6.622  13.353 -1.7407 -0.9820 -1.7116
 7642TIP3    H244418   2.093   6.717  13.421  2.7299  0.8639  2.4420
 7643TIP3   OH244419   0.010   4.253   2.821 -0.4878  0.6117 -0.5167
 7643TIP3    H144420   0.014   4.329   2.879 -0.7273  0.6738 -0.5828
 7643TIP3    H244421   0.011   4.290   2.733  0.9447  0.4753 -0.5743
 7644TIP3   OH244422   5.279   4.148  16.134 -0.2833  0.5031  0.5858
 7644TIP3    H144423   5.278   4.160  16.229  0.8275 -1.1913  0.8415
 7644TIP3    H244424   5.255   4.056  16.121  0.6963  0.4150 -0.7068
 7645TIP3   OH244425   4.993   5.440  14.959  0.3230 -0.0737  0.3370
 7645TIP3    H144426   4.906   5.480  14.954 -0.0482 -0.8634  0.4184
 7645TIP3    H244427   5.053   5.510  14.934 -0.3499  0.4371  0.1419
 7646TIP3   OH244428   4.589   6.357   4.110 -0.1817  0.6261  0.4257
 7646TIP3    H144429   4.565   6.446   4.083  0.3294  0.9268  0.9530
 7646TIP3    H244430   4.651   6.370   4.182  1.4353 -0.1523 -0.8305
 7647TIP3   OH244431   6.705   2.126   2.867 -0.2323  0.0874 -0.3466
 7647TIP3    H144432   6.756   2.094   2.942 -0.3191 -0.2599 -0.4362
 7647TIP3    H244433   6.715   2.058   2.801 -0.9992 -0.0799 -0.2868
 7648TIP3   OH244434   0.278   4.680   0.474  0.7403 -0.2691 -0.3336
 7648TIP3    H144435   0.189   4.687   0.442  0.4045 -0.0127  0.6354
 7648TIP3    H244436   0.332   4.721   0.406  0.0532  0.2145 -0.5862
 7649TIP3   OH244437   3.400   6.818  14.670  0.1822  0.4154 -0.0337
 7649TIP3    H144438   3.445   6.901  14.655  1.3309 -0.4530 -1.5690
 7649TIP3    H244439   3.402   6.774  14.585  0.0878 -1.4216  0.8875
 7650TIP3   OH244440   5.497   0.767   3.867 -0.9698  0.0909 -0.6650
 7650TIP3    H144441   5.515   0.858   3.890  0.8229 -0.3617 -0.2565
 7650TIP3    H244442   5.481   0.724   3.951  0.7989 -0.5288 -0.6337
 7651TIP3   OH244443   0.576   0.123   0.115 -0.5085 -1.0973 -0.6864
 7651TIP3    H144444   0.616   0.086   0.193  0.0157  1.5377  0.3513
 7651TIP3    H244445   0.504   0.177   0.148 -0.2215  0.1150 -1.9878
 7652TIP3   OH244446   5.571   0.860  11.100  0.4198 -0.2980 -0.3401
 7652TIP3    H144447   5.653   0.823  11.066  0.3693 -0.0720 -0.7077
 7652TIP3    H244448   5.525   0.890  11.022  0.3164  0.2539 -0.0681
 7653TIP3   OH244449   3.368   5.125  13.952  0.3794  0.1410 -0.1128
 7653TIP3    H144450   3.296   5.184  13.930 -0.4254 -0.4740  0.8572
 7653TIP3    H244451   3.346   5.090  14.038  1.3553 -0.8012 -0.2310
 7654TIP3   OH244452   3.840   3.104   1.413 -0.4064 -0.1626 -0.5415
 7654TIP3    H144453   3.926   3.136   1.387 -0.3729  1.5919  1.5991
 7654TIP3    H244454   3.786   3.183   1.422 -1.2493 -0.9239  1.5698
 7655TIP3   OH244455   3.267   6.616  13.624  0.0396  0.2316 -0.6229
 7655TIP3    H144456   3.296   6.526  13.609  2.2217  0.6893  0.6325
 7655TIP3    H244457   3.204   6.609  13.696  0.4439 -0.2524 -0.3141
 7656TIP3   OH244458   1.228   5.509  13.730 -0.5475  0.9262 -0.1423
 7656TIP3    H144459   1.164   5.459  13.782  2.1976 -0.5178  1.9968
 7656TIP3    H244460   1.221   5.599  13.764 -0.3351  0.4460  1.2171
 7657TIP3   OH244461   3.842   4.445  16.807 -0.5451  0.6346 -0.3195
 7657TIP3    H144462   3.790   4.404  16.738  1.4324  0.7830 -1.9503
 7657TIP3    H244463   3.844   4.538  16.783  1.4415  0.4507 -0.9660
 7658TIP3   OH244464   5.362   4.660   4.994 -0.2305  0.6186 -0.0849
 7658TIP3    H144465   5.357   4.592   4.926 -2.2106  0.1299  0.5232
 7658TIP3    H244466   5.404   4.616   5.068  2.1747  1.2258 -1.0392
 7659TIP3   OH244467   3.942   3.211   0.892 -0.1695  0.3446 -0.0078
 7659TIP3    H144468   3.883   3.146   0.854  0.5868 -0.0265 -0.5606
 7659TIP3    H244469   3.931   3.200   0.987 -0.5958 -0.0825 -0.1038
 7660TIP3   OH244470   4.225   3.193  14.700  0.1695 -0.5344 -0.0151
 7660TIP3    H144471   4.219   3.237  14.615 -1.6727 -0.1853  0.2688
 7660TIP3    H244472   4.319   3.195  14.721  0.2819  2.2870 -0.5352
 7661TIP3   OH244473   0.924   6.686  12.923 -0.0152 -0.7067  0.6446
 7661TIP3    H144474   0.984   6.622  12.885  0.9566 -0.1543  1.2309
 7661TIP3    H244475   0.939   6.766  12.873 -0.7115 -0.7348  0.3862
 7662TIP3   OH244476   0.190   1.598   1.586 -0.6457 -0.7427 -0.3573
 7662TIP3    H144477   0.263   1.653   1.558 -0.2775 -0.4345  1.1513
 7662TIP3    H244478   0.112   1.653   1.576 -0.5435 -0.7201 -0.9977
 7663TIP3   OH244479   1.173   1.498   2.150 -0.6164  0.2118  0.0704
 7663TIP3    H144480   1.253   1.452   2.175 -0.9749 -0.5162 -0.1015
 7663TIP3    H244481   1.103   1.434   2.166 -1.0820  0.5809 -0.4904
 7664TIP3   OH244482   1.761   6.251   2.086  0.3498  0.1041 -0.3148
 7664TIP3    H144483   1.747   6.231   1.994  1.6702 -1.7909 -0.1373
 7664TIP3    H244484   1.798   6.339   2.087 -1.4707  0.8926 -1.4507
 7665TIP3   OH244485   3.638   5.795  11.377  0.2490 -0.4335 -0.2088
 7665TIP3    H144486   3.710   5.839  11.331 -0.5709  0.8385 -0.3161
 7665TIP3    H244487   3.671   5.708  11.398  1.7723  0.1094 -0.3583
 7666TIP3   OH244488   2.191   2.847   1.582  0.1129  0.2926  0.4682
 7666TIP3    H144489   2.280   2.827   1.612  0.2361  0.2500  0.0830
 7666TIP3    H244490   2.197   2.841   1.486 -0.2367  0.5765  0.4298
 7667TIP3   OH244491   1.205   4.862  14.650  0.1903 -0.4453 -0.3717
 7667TIP3    H144492   1.237   4.861  14.740  1.9069 -1.9553 -0.9741
 7667TIP3    H244493   1.278   4.895  14.599 -0.3993 -0.6450 -1.3506
 7668TIP3   OH244494   6.672   5.771   3.018  0.1378 -0.4775  0.4060
 7668TIP3    H144495   6.598   5.821   2.982  3.8118  4.7021 -0.5829
 7668TIP3    H244496   6.665   5.784   3.112 -0.1688  0.1220  0.3085
 7669TIP3   OH244497   2.235   5.221  11.634  0.3530 -0.3222 -0.3982
 7669TIP3    H144498   2.172   5.285  11.668 -0.1770  0.0334 -2.0015
 7669TIP3    H244499   2.313   5.272  11.615 -0.2119 -0.0519 -2.0751
 7670TIP3   OH244500   2.598   6.702  15.956 -0.3157 -0.8794  0.4392
 7670TIP3    H144501   2.589   6.609  15.935 -1.1573 -0.8046  0.4287
 7670TIP3    H244502   2.570   6.708  16.048 -0.3244 -0.6253  0.4197
 7671TIP3   OH244503   4.828   6.195  15.431 -0.4593 -0.3595  0.1936
 7671TIP3    H144504   4.882   6.264  15.470 -1.6472  0.9279 -0.3963
 7671TIP3    H244505   4.870   6.114  15.458  0.8753  0.5871  1.0386
 7672TIP3   OH244506   6.313   4.178  15.184  0.0766 -0.0039  0.1966
 7672TIP3    H144507   6.330   4.269  15.209  0.0943  0.0029  0.1603
 7672TIP3    H244508   6.229   4.157  15.227 -1.1186  0.7812 -1.7115
 7673TIP3   OH244509   0.759   3.953  14.393 -0.1036 -0.1924  0.4675
 7673TIP3    H144510   0.843   3.908  14.406 -0.7822 -1.2775  1.1891
 7673TIP3    H244511   0.695   3.883  14.391 -0.8279  0.5006 -1.7659
 7674TIP3   OH244512   1.655   3.228   6.432  0.8736 -0.0825 -0.0751
 7674TIP3    H144513   1.638   3.160   6.498  1.2093  0.1438  0.2473
 7674TIP3    H244514   1.717   3.287   6.474  0.9350  0.1755 -0.5237
 7675TIP3   OH244515   0.930   4.410  13.663 -0.0085 -0.1053  0.4152
 7675TIP3    H144516   0.992   4.480  13.641 -0.1835 -0.0031  0.2464
 7675TIP3    H244517   0.846   4.454  13.673  0.1689 -0.0725  1.8538
 7676TIP3   OH244518   3.819   1.759  17.041 -0.2091  0.6250 -0.5175
 7676TIP3    H144519   3.818   1.830  16.977 -0.4912  0.8763 -0.2375
 7676TIP3    H244520   3.875   1.791  17.112 -0.7805  0.8022 -0.1377
 7677TIP3   OH244521   3.627   6.455   4.619  0.0935  0.3926 -0.1355
 7677TIP3    H144522   3.587   6.497   4.543 -1.0101 -0.0899  0.1739
 7677TIP3    H244523   3.719   6.445   4.594  0.2521  2.4113 -0.4481
 7678TIP3   OH244524   4.423   3.643  11.733 -0.5258  0.2442  0.3990
 7678TIP3    H144525   4.334   3.644  11.698 -0.0555  1.5273 -0.7915
 7678TIP3    H244526   4.463   3.564  11.697 -0.0236  1.5808 -2.1021
 7679TIP3   OH244527   1.303   2.687   1.714 -0.0358  0.2647 -0.2967
 7679TIP3    H144528   1.312   2.683   1.619  1.8950 -1.3766 -0.0867
 7679TIP3    H244529   1.259   2.770   1.731  1.1232  1.3703 -2.5200
 7680TIP3   OH244530   3.531   0.202   0.017  0.2824 -0.3888  0.1003
 7680TIP3    H144531   3.572   0.151  -0.053 -0.0469 -1.1832  0.4690
 7680TIP3    H244532   3.438   0.186   0.006  0.3621 -2.6967  2.3177
 7681TIP3   OH244533   4.814   6.200  11.237 -0.2693  0.0515  0.2129
 7681TIP3    H144534   4.803   6.293  11.256  0.2942  0.3486 -0.8612
 7681TIP3    H244535   4.909   6.189  11.227 -0.2364 -0.8496  1.3483
 7682TIP3   OH244536   3.460   4.081  11.986  0.6541  0.3287  0.0448
 7682TIP3    H144537   3.394   4.150  12.000  1.7724  2.0047 -2.5256
 7682TIP3    H244538   3.442   4.017  12.055 -2.0749  1.9354  0.9384
 7683TIP3   OH244539   5.410   3.406  17.169  0.3187 -0.2073 -0.1519
 7683TIP3    H144540   5.490   3.455  17.150 -0.4561  0.4859 -1.7336
 7683TIP3    H244541   5.431   3.316  17.144  0.6520 -0.0584 -0.4213
 7684TIP3   OH244542   2.184   1.434   0.466  0.1164 -0.2442 -0.1335
 7684TIP3    H144543   2.118   1.495   0.434  0.6242  0.2423 -0.2471
 7684TIP3    H244544   2.137   1.379   0.529 -0.3772  0.1406 -0.1625
 7685TIP3   OH244545   3.415   0.869   0.934 -0.2446  0.0154  0.1551
 7685TIP3    H144546   3.443   0.779   0.923  0.1160  0.0207  1.0071
 7685TIP3    H244547   3.473   0.920   0.878  0.5179 -0.1284  0.8086
 7686TIP3   OH244548   1.498   1.293   4.310  0.4535 -0.1107  0.2984
 7686TIP3    H144549   1.442   1.296   4.388  1.6255 -0.3389  1.1586
 7686TIP3    H244550   1.520   1.201   4.300  1.3325  0.0835  0.4383
 7687TIP3   OH244551   3.761   6.287  16.920  0.1728 -0.1273 -0.0098
 7687TIP3    H144552   3.781   6.194  16.916 -0.3546 -0.2787  0.7891
 7687TIP3    H244553   3.677   6.292  16.965 -1.5489  0.4957 -3.1765
 7688TIP3   OH244554   0.503   5.615  14.380  0.4961 -0.2408 -0.6385
 7688TIP3    H144555   0.466   5.670  14.311  1.0940  0.7490 -0.1840
 7688TIP3    H244556   0.429   5.564  14.413 -0.5985  2.0293  0.5587
 7689TIP3   OH244557   3.481   3.217  11.830  0.0806 -0.1127 -0.0794
 7689TIP3    H144558   3.464   3.216  11.924 -0.0248  1.1941 -0.0655
 7689TIP3    H244559   3.421   3.153  11.793 -1.1567  0.6562  0.5595
 7690TIP3   OH244560   3.294   2.747   3.474  0.9416 -0.0035  0.1216
 7690TIP3    H144561   3.251   2.832   3.472  1.3112  0.3905  4.2017
 7690TIP3    H244562   3.230   2.686   3.438 -1.5841  1.1599  2.4786
 7691TIP3   OH244563   4.598   0.859  12.177 -0.3478  0.2767 -0.1334
 7691TIP3    H144564   4.652   0.824  12.107  0.1042 -0.4818  0.5948
 7691TIP3    H244565   4.513   0.818  12.165 -0.5349  0.8316 -0.7696
 7692TIP3   OH244566   3.570   3.086   0.798  0.1411 -0.6789 -0.1447
 7692TIP3    H144567   3.568   3.181   0.785  0.4215 -0.7801 -0.9344
 7692TIP3    H244568   3.490   3.054   0.758  0.9809 -0.9812 -1.6418
 7693TIP3   OH244569   4.003   1.264  14.894 -0.4370 -0.1121  0.3729
 7693TIP3    H144570   4.024   1.276  14.986 -1.3234  2.8902  0.2201
 7693TIP3    H244571   3.996   1.352  14.859 -3.7123 -1.1499 -1.7641
 7694TIP3   OH244572   6.544   5.581   6.321 -0.4391  0.5499 -0.0957
 7694TIP3    H144573   6.619   5.604   6.377 -0.7372 -0.5469  0.7658
 7694TIP3    H244574   6.559   5.489   6.299 -1.4418  0.3805 -0.0681
 7695TIP3   OH244575   0.430   0.179  12.831  0.2263  0.2943  0.5549
 7695TIP3    H144576   0.477   0.245  12.781 -1.3926 -0.7730 -2.4629
 7695TIP3    H244577   0.356   0.226  12.870  0.3899  0.7124  0.3574
 7696TIP3   OH244578   2.114   2.512   0.402 -0.4883  0.4452 -0.0044
 7696TIP3    H144579   2.083   2.425   0.427  0.3851  0.1388  0.0321
 7696TIP3    H244580   2.203   2.498   0.369  0.5261  1.5985  2.1263
 7697TIP3   OH244581   2.855   6.296  16.465  0.4324  0.6392  0.0724
 7697TIP3    H144582   2.883   6.383  16.437 -0.1217  0.3247 -1.4533
 7697TIP3    H244583   2.928   6.264  16.518  0.8401  1.8372  0.2439
 7698TIP3   OH244584   1.935   1.652  13.824  0.1143 -0.2889  0.1032
 7698TIP3    H144585   2.017   1.666  13.775 -1.3537  1.5177 -1.9827
 7698TIP3    H244586   1.939   1.561  13.853  1.5246 -1.1377 -2.5628
 7699TIP3   OH244587   6.691   4.690  17.090  0.0613 -0.0296 -0.1782
 7699TIP3    H144588   6.758   4.626  17.115 -0.9567 -0.6676  0.9450
 7699TIP3    H244589   6.708   4.766  17.147 -1.0657 -0.7512  1.1406
 7700TIP3   OH244590   0.364   5.799  14.703  0.0245  0.1712  0.1602
 7700TIP3    H144591   0.401   5.754  14.779  0.5525  0.7466  0.2450
 7700TIP3    H244592   0.275   5.764  14.696  0.4002 -0.8327  0.2639
 7701TIP3   OH244593   3.895   3.905  10.930 -0.5691  0.5550  0.3425
 7701TIP3    H144594   3.828   3.937  10.871  0.0070  1.5961  0.2460
 7701TIP3    H244595   3.919   3.819  10.895  0.3368  1.5011 -1.4013
 7702TIP3   OH244596   1.745   3.865  14.055  0.6615 -0.0700  0.2062
 7702TIP3    H144597   1.774   3.866  14.147  0.5203  0.3071  0.2485
 7702TIP3    H244598   1.810   3.918  14.009  1.8926 -1.9322 -0.2754
 7703TIP3   OH244599   2.615   6.108   3.158 -0.1368 -0.1781 -0.5559
 7703TIP3    H144600   2.688   6.079   3.212 -0.9411 -0.8351  0.2086
 7703TIP3    H244601   2.584   6.188   3.200 -1.1790 -1.0475  0.3567
 7704TIP3   OH244602   4.489   3.075  14.771 -0.6223  0.1689 -0.4359
 7704TIP3    H144603   4.500   3.052  14.863 -2.4744 -0.3870 -0.3375
 7704TIP3    H244604   4.473   2.991  14.727  0.6800  0.3734 -1.3404
 7705TIP3   OH244605   1.339   2.462   5.397 -0.1729 -0.9297 -0.0179
 7705TIP3    H144606   1.420   2.509   5.416 -0.2620 -0.7766 -0.0165
 7705TIP3    H244607   1.366   2.389   5.340  0.4675 -2.8372  2.6395
 7706TIP3   OH244608   6.097   4.057   1.389  0.2358  0.1835  0.6694
 7706TIP3    H144609   6.081   4.062   1.483  0.8970 -0.1648  0.8067
 7706TIP3    H244610   6.080   3.966   1.366 -0.0802  0.3013  0.4152
 7707TIP3   OH244611   4.372   5.202   5.801 -0.1610  0.4143  0.7151
 7707TIP3    H144612   4.322   5.140   5.855  1.2218  0.2227  1.8245
 7707TIP3    H244613   4.424   5.252   5.865  1.4101  0.2798 -0.4457
 7708TIP3   OH244614   4.102   2.523  10.999 -0.3944 -0.1640 -0.3490
 7708TIP3    H144615   4.060   2.499  10.916  1.3602  1.1070 -1.6415
 7708TIP3    H244616   4.176   2.578  10.973  0.4706 -0.1597  2.0441
 7709TIP3   OH244617   0.276   4.805   5.431  0.1893  0.5828 -0.0336
 7709TIP3    H144618   0.343   4.860   5.472  0.2075  0.4069  0.1727
 7709TIP3    H244619   0.325   4.731   5.396  0.5239  1.9342 -2.5623
 7710TIP3   OH244620   1.225   5.933  10.766 -0.0960  0.0615 -0.1584
 7710TIP3    H144621   1.206   5.885  10.686 -0.6477  0.6783 -0.4061
 7710TIP3    H244622   1.191   6.022  10.750 -0.1627  0.2070  0.7282
 7711TIP3   OH244623   0.490   2.459  13.105  0.0567  0.1190  0.0608
 7711TIP3    H144624   0.524   2.420  13.185  1.2821  0.0502 -0.4865
 7711TIP3    H244625   0.454   2.385  13.056  0.1759  0.0288  0.1089
 7712TIP3   OH244626   6.547   1.585  15.156  0.3051  0.3751 -0.0993
 7712TIP3    H144627   6.563   1.539  15.238 -0.7148  0.3634  0.0948
 7712TIP3    H244628   6.541   1.516  15.090  2.3849  0.4534 -0.4063
 7713TIP3   OH244629   1.731   6.517  10.667 -0.4518 -0.1194 -0.1459
 7713TIP3    H144630   1.677   6.595  10.670 -0.6237 -0.1339 -2.2832
 7713TIP3    H244631   1.809   6.540  10.717 -1.3172  0.7555  0.8288
 7714TIP3   OH244632   5.181   3.873   3.340  0.5131  0.3763  0.2527
 7714TIP3    H144633   5.246   3.926   3.388 -1.3662  1.3281  1.8502
 7714TIP3    H244634   5.219   3.786   3.336  2.0909  1.0182  0.7747
 7715TIP3   OH244635   3.365   2.541   5.148 -0.4559 -0.3432  0.2710
 7715TIP3    H144636   3.357   2.451   5.115  0.2743 -0.4708  0.4294
 7715TIP3    H244637   3.391   2.592   5.071 -0.4691 -0.3429  0.2672
 7716TIP3   OH244638   1.112   2.299   5.504 -0.6404  0.1848  0.7356
 7716TIP3    H144639   1.027   2.342   5.517 -0.1833  0.9839  1.1624
 7716TIP3    H244640   1.174   2.372   5.500 -0.2076 -0.2790 -1.6000
 7717TIP3   OH244641   1.483   1.954   3.231  0.7202 -0.1469 -0.0192
 7717TIP3    H144642   1.423   1.932   3.160  0.4180  0.3036  0.0954
 7717TIP3    H244643   1.505   1.870   3.271  1.1647 -0.4354 -0.8657
 7718TIP3   OH244644   4.693   2.539  15.716  0.0488  0.7783  1.1006
 7718TIP3    H144645   4.745   2.541  15.796 -2.4301 -0.8248  2.8303
 7718TIP3    H244646   4.625   2.474  15.733  0.4541 -0.8662 -2.9770
 7719TIP3   OH244647   3.176   1.131  16.678 -0.3441 -0.5393  0.1596
 7719TIP3    H144648   3.270   1.136  16.662 -0.4337  0.4151 -0.1213
 7719TIP3    H244649   3.167   1.075  16.755  0.2803 -2.8950 -1.4431
 7720TIP3   OH244650   2.150   4.539   1.768  0.1695  0.1342 -0.2124
 7720TIP3    H144651   2.063   4.578   1.769  0.4455  0.7737 -0.6158
 7720TIP3    H244652   2.160   4.500   1.855 -1.6341 -2.4394 -1.1038
 7721TIP3   OH244653   0.728   2.598   2.551  0.1946  0.5478 -0.6044
 7721TIP3    H144654   0.734   2.507   2.520  0.9987  0.1427  0.6979
 7721TIP3    H244655   0.764   2.650   2.479  0.6527 -0.2488 -0.9583
 7722TIP3   OH244656   0.563   5.645   3.115  0.1524 -0.0398  0.1298
 7722TIP3    H144657   0.546   5.705   3.188  0.5591  0.3058 -0.0634
 7722TIP3    H244658   0.512   5.680   3.042 -0.7851 -0.7553  0.4234
 7723TIP3   OH244659   6.328   3.516   4.474  0.5944 -0.3975  0.3087
 7723TIP3    H144660   6.296   3.594   4.521 -0.0066  0.0275 -0.7747
 7723TIP3    H244661   6.383   3.551   4.405  3.1789 -1.1234  1.9446
 7724TIP3   OH244662   4.740   6.100   1.754  0.0205  0.1206  0.0106
 7724TIP3    H144663   4.786   6.136   1.830 -0.0481 -2.1480  1.1974
 7724TIP3    H244664   4.654   6.077   1.787  0.0517 -1.0600 -0.6991
 7725TIP3   OH244665   4.090   4.707   3.573 -0.6182  0.0427 -0.3314
 7725TIP3    H144666   4.157   4.730   3.508 -0.7640  1.3975 -0.0201
 7725TIP3    H244667   4.009   4.701   3.523 -0.5331 -0.0530 -0.4577
 7726TIP3   OH244668   5.227   6.128   1.374 -0.1963  0.3518  0.5159
 7726TIP3    H144669   5.161   6.066   1.344  0.5216 -0.0976 -0.1117
 7726TIP3    H244670   5.310   6.080   1.371  0.3505  1.3135  0.0943
 7727TIP3   OH244671   0.839   0.960  13.186  0.3433  0.5940 -0.0820
 7727TIP3    H144672   0.862   1.022  13.255  1.1138  0.0008  0.1985
 7727TIP3    H244673   0.754   0.923  13.213 -0.1718  1.6025 -0.3106
 7728TIP3   OH244674   5.744   3.806   3.773  0.7268 -0.1925  0.6520
 7728TIP3    H144675   5.685   3.772   3.706 -0.9316  2.1862  0.8269
 7728TIP3    H244676   5.794   3.730   3.803  1.3243 -1.3511 -3.0712
 7729TIP3   OH244677   5.299   1.236   5.090  0.7358 -0.2948 -0.0761
 7729TIP3    H144678   5.260   1.244   5.003  0.1488 -1.1537  0.1068
 7729TIP3    H244679   5.279   1.320   5.132  0.0496 -0.3010 -0.3754
 7730TIP3   OH244680   2.616   6.429   3.934  0.0645 -0.1468 -0.4417
 7730TIP3    H144681   2.677   6.382   3.877  0.7426  0.8431 -0.5265
 7730TIP3    H244682   2.629   6.521   3.913  0.5211  0.2516  1.4943
 7731TIP3   OH244683   6.547   0.769  15.793  0.0806  0.5027  0.5613
 7731TIP3    H144684   6.489   0.707  15.749 -0.2449  2.0592 -1.2309
 7731TIP3    H244685   6.491   0.817  15.854  0.3212 -0.8577  1.9116
 7732TIP3   OH244686   5.688   1.689   6.002 -0.0313  0.2913  0.1484
 7732TIP3    H144687   5.752   1.631   6.042  1.0191  1.0311 -0.4267
 7732TIP3    H244688   5.662   1.748   6.072 -0.6900 -0.5239  0.5919
 7733TIP3   OH244689   0.772   4.292  16.055  0.3804 -0.1584  0.5140
 7733TIP3    H144690   0.804   4.202  16.051  2.1966  0.5526 -1.8102
 7733TIP3    H244691   0.850   4.345  16.073 -0.6658  0.9884  1.8714
 7734TIP3   OH244692   1.237   4.126  13.024 -0.3496  0.2777 -0.1314
 7734TIP3    H144693   1.277   4.213  13.024  1.4008 -0.5141 -1.0590
 7734TIP3    H244694   1.258   4.090  13.110 -0.2208  0.3831 -0.1195
 7735TIP3   OH244695   0.022   5.711  11.183 -0.3647 -0.1137  0.7009
 7735TIP3    H144696   0.107   5.716  11.226 -0.2697 -0.2156  0.5254
 7735TIP3    H244697   0.042   5.713  11.089 -0.6067  0.7469  0.6658
 7736TIP3   OH244698   1.441   2.942   3.392 -0.2082 -0.0951 -0.4569
 7736TIP3    H144699   1.520   2.995   3.402  0.3279 -0.9556 -0.0790
 7736TIP3    H244700   1.376   3.002   3.355  0.0344  1.1373  1.0846
 7737TIP3   OH244701   2.207   1.412   0.108  0.8882 -0.4253  0.1339
 7737TIP3    H144702   2.290   1.438   0.149  0.2411 -0.0278  1.2233
 7737TIP3    H244703   2.187   1.327   0.146  0.9726 -0.6824 -0.3970
 7738TIP3   OH244704   5.938   3.210   3.976  0.2558  0.0862 -0.3956
 7738TIP3    H144705   5.951   3.187   3.884  0.8039  0.7842 -0.4905
 7738TIP3    H244706   6.020   3.184   4.019  0.3090  0.5031 -0.2451
 7739TIP3   OH244707   1.119   4.510  17.046  0.1867  0.3093 -0.1237
 7739TIP3    H144708   1.143   4.491  17.137 -1.7196  0.6813  0.4913
 7739TIP3    H244709   1.141   4.602  17.034 -1.3784  0.8144  0.6286
 7740TIP3   OH244710   2.127   3.058   2.108 -0.4888 -0.0526 -0.2436
 7740TIP3    H144711   2.202   2.999   2.098  0.2963  1.0509 -0.9614
 7740TIP3    H244712   2.054   3.010   2.068  0.4189 -0.0145 -1.9894
 7741TIP3   OH244713   1.927   1.613  14.605 -0.2524  0.3950 -0.4243
 7741TIP3    H144714   2.014   1.600  14.569  1.0085 -0.1112  2.6374
 7741TIP3    H244715   1.882   1.669  14.542  1.8368 -0.4220 -2.6696
 7742TIP3   OH244716   4.728   3.467   4.187  0.5019 -0.4894 -0.3951
 7742TIP3    H144717   4.689   3.400   4.244  2.4392 -0.2622  1.2519
 7742TIP3    H244718   4.822   3.446   4.187  0.8213  0.8937 -1.6788
 7743TIP3   OH244719   3.505   0.656  17.007  0.3680  0.0544 -0.0662
 7743TIP3    H144720   3.487   0.717  17.079  0.0080 -0.1391  0.0108
 7743TIP3    H244721   3.561   0.589  17.046 -1.2609 -1.0120  0.5160
 7744TIP3   OH244722   2.925   2.689  14.914 -0.1642  0.2302  0.0198
 7744TIP3    H144723   2.898   2.683  15.006 -1.3244  1.6712 -0.2135
 7744TIP3    H244724   3.020   2.696  14.918 -0.2626  1.1329  1.1662
 7745TIP3   OH244725   0.677   2.920  11.180 -0.0493  0.2005  0.0053
 7745TIP3    H144726   0.716   2.870  11.109 -3.4947 -0.0922 -1.7800
 7745TIP3    H244727   0.668   3.009  11.145 -1.6274  0.0943  0.1459
 7746TIP3   OH244728   5.749   5.692  14.406 -0.3301  0.5316 -1.0851
 7746TIP3    H144729   5.666   5.731  14.379 -1.0557 -0.2705 -0.0466
 7746TIP3    H244730   5.808   5.766  14.421 -1.2275  1.1489 -0.6261
 7747TIP3   OH244731   5.488   3.619   5.887  0.1380 -0.0980 -0.1856
 7747TIP3    H144732   5.393   3.613   5.879  0.2002  0.4318 -1.2932
 7747TIP3    H244733   5.505   3.713   5.896  0.3784 -0.3423  2.3576
 7748TIP3   OH244734   3.757   4.664   1.676 -0.3655  0.5808  0.0433
 7748TIP3    H144735   3.850   4.674   1.697 -0.5426  0.2950  0.9550
 7748TIP3    H244736   3.713   4.658   1.761 -1.0038 -1.2069 -0.4073
 7749TIP3   OH244737   3.274   2.058   1.989  0.8700  0.4179  0.1418
 7749TIP3    H144738   3.262   2.122   2.058  3.4714  0.1634  0.8756
 7749TIP3    H244739   3.349   2.090   1.938  0.2909 -0.4567 -1.3062
 7750TIP3   OH244740   0.943   4.446   4.181 -0.7110  0.1166 -0.0316
 7750TIP3    H144741   1.023   4.396   4.163  0.0080  0.3952  2.3205
 7750TIP3    H244742   0.872   4.385   4.161  0.1302 -1.0016  0.3315
 7751TIP3   OH244743   5.242   2.760  12.564 -0.0063 -0.9364  0.5236
 7751TIP3    H144744   5.242   2.666  12.545  1.5291 -1.3680  2.4684
 7751TIP3    H244745   5.185   2.770  12.641 -0.0929 -0.2934  0.3812
 7752TIP3   OH244746   0.158   5.572   2.162 -0.2069 -0.2377 -0.0975
 7752TIP3    H144747   0.146   5.490   2.209 -0.6187  0.6921  1.4366
 7752TIP3    H244748   0.179   5.545   2.072 -4.0205 -2.0479 -0.5783
 7753TIP3   OH244749   0.692   6.119  11.638  0.0442  0.1903  0.0733
 7753TIP3    H144750   0.635   6.043  11.641  0.2465  0.0750  0.9169
 7753TIP3    H244751   0.730   6.125  11.725  1.8792 -0.1660 -0.6807
 7754TIP3   OH244752   4.372   1.331   5.491 -0.0128  0.1009  0.3195
 7754TIP3    H144753   4.318   1.278   5.550  0.2912  0.0771  0.5779
 7754TIP3    H244754   4.451   1.279   5.477 -0.4964 -0.3152 -0.8719
 7755TIP3   OH244755   1.592   2.385   0.847 -0.1487  0.2049  0.1670
 7755TIP3    H144756   1.681   2.357   0.867  0.1518  1.0228  0.0015
 7755TIP3    H244757   1.576   2.353   0.758  0.0533  0.2284  0.1231
 7756TIP3   OH244758   1.492   0.503  17.166  0.3975  0.2646 -0.3428
 7756TIP3    H144759   1.558   0.552  17.115  1.4021  0.6881  1.3326
 7756TIP3    H244760   1.412   0.512  17.114  1.6978 -0.5083 -2.5695
 7757TIP3   OH244761   0.446   6.233  11.239 -0.3559  0.4846  0.0653
 7757TIP3    H144762   0.482   6.317  11.268  0.8001 -0.4472  1.4316
 7757TIP3    H244763   0.505   6.168  11.278 -1.5281 -0.9648 -0.5605
 7758TIP3   OH244764   2.520   2.213  16.046  0.3509  0.3262 -0.3538
 7758TIP3    H144765   2.612   2.227  16.022 -0.2436  0.9076 -2.3551
 7758TIP3    H244766   2.504   2.121  16.028  0.4321  0.3118 -0.3521
 7759TIP3   OH244767   4.474   5.969  13.589 -0.7437  0.4046 -0.5580
 7759TIP3    H144768   4.472   5.945  13.496  0.2919  2.9283 -1.2673
 7759TIP3    H244769   4.385   6.003  13.606 -0.4899  1.3364 -1.0392
 7760TIP3   OH244770   0.751   2.744  12.782 -0.2010  0.5787 -0.3532
 7760TIP3    H144771   0.685   2.813  12.774  0.5149  1.4102  0.6497
 7760TIP3    H244772   0.747   2.718  12.874  1.5573  1.3804 -0.0215
 7761TIP3   OH244773   6.219   0.628  14.786  0.1919 -0.2946  0.2485
 7761TIP3    H144774   6.303   0.648  14.828 -0.2338 -0.7162  1.3158
 7761TIP3    H244775   6.238   0.556  14.726  0.8733  0.5441 -0.5643
 7762TIP3   OH244776   5.794   4.713   5.040 -0.3014 -0.1190  0.1308
 7762TIP3    H144777   5.888   4.723   5.020 -0.2087  0.5390  0.8888
 7762TIP3    H244778   5.751   4.718   4.954  0.4307 -1.4067 -0.3302
 7763TIP3   OH244779   2.767   5.583  14.979  0.4593  0.4260 -0.0758
 7763TIP3    H144780   2.749   5.640  14.904  0.5703  0.8327  0.2049
 7763TIP3    H244781   2.862   5.573  14.979  0.4552  0.3906 -0.0137
 7764TIP3   OH244782   4.894   2.951   3.712  0.5678 -0.5410 -0.3805
 7764TIP3    H144783   4.886   2.856   3.718  0.7729 -0.4759  1.1015
 7764TIP3    H244784   4.986   2.968   3.734  0.3016  0.0690  0.2594
 7765TIP3   OH244785   0.860   4.886  13.766 -0.2151 -0.2501 -0.2287
 7765TIP3    H144786   0.912   4.904  13.688  2.0204  0.2252  1.3258
 7765TIP3    H244787   0.874   4.793  13.784  0.3822 -0.0407  0.3963
 7766TIP3   OH244788   4.525   2.501  13.084 -0.2210 -0.0254 -0.8775
 7766TIP3    H144789   4.538   2.596  13.080 -0.9039  0.0139 -2.4874
 7766TIP3    H244790   4.611   2.464  13.067  0.1891  0.2897  0.4186
 7767TIP3   OH244791   5.017   2.748   3.049 -0.0900 -0.4454 -0.2364
 7767TIP3    H144792   4.951   2.817   3.059 -1.2498 -1.4953 -0.5877
 7767TIP3    H244793   4.983   2.692   2.980  1.1265 -1.0597 -0.3448
 7768TIP3   OH244794   2.814   4.601  14.713  0.1466  0.6913  0.3394
 7768TIP3    H144795   2.823   4.640  14.626 -1.0913 -2.2719 -1.2142
 7768TIP3    H244796   2.794   4.674  14.770 -0.6540  2.5113 -2.1804
 7769TIP3   OH244797   3.113   2.146  14.342 -0.7987 -0.5887 -0.0903
 7769TIP3    H144798   3.034   2.199  14.343  0.0105  0.6394  0.3032
 7769TIP3    H244799   3.098   2.081  14.273 -1.7778  0.1868 -0.6176
 7770TIP3   OH244800   0.943   0.608   5.528  0.0930  0.0660  0.5842
 7770TIP3    H144801   1.012   0.645   5.473  2.0928 -3.2230  0.7919
 7770TIP3    H244802   0.956   0.514   5.523 -2.4366 -0.4730  3.1838
 7771TIP3   OH244803   2.007   1.880  12.390 -0.1098  0.3371  0.0475
 7771TIP3    H144804   1.952   1.950  12.353 -0.0540  1.0604  1.3031
 7771TIP3    H244805   1.950   1.835  12.453  0.9916  1.7168  2.0797
 7772TIP3   OH244806   5.886   5.381  13.081 -0.2042  0.7931  0.0952
 7772TIP3    H144807   5.895   5.329  13.161 -1.1634 -0.0194 -0.3231
 7772TIP3    H244808   5.931   5.463  13.101  2.6445 -0.7356  0.2445
 7773TIP3   OH244809   1.099   4.189   5.644 -0.2878 -0.3415  0.3212
 7773TIP3    H144810   1.102   4.262   5.706  0.3805  1.1397 -1.4033
 7773TIP3    H244811   1.045   4.221   5.572 -0.3098 -1.7006 -0.2788
 7774TIP3   OH244812   0.150   4.111  11.770  0.5152 -0.4365  0.1749
 7774TIP3    H144813   0.064   4.139  11.800  0.1749  0.2571 -1.3813
 7774TIP3    H244814   0.204   4.190  11.775  0.7788 -0.6151  0.1439
 7775TIP3   OH244815   3.251   3.001  17.092  0.3867 -0.3555 -0.1820
 7775TIP3    H144816   3.322   2.943  17.062  0.3491 -0.1748 -0.6268
 7775TIP3    H244817   3.277   3.027  17.180  0.6481 -0.6569 -0.1670
 7776TIP3   OH244818   4.258   4.252  10.166 -0.1333  0.0742  0.2639
 7776TIP3    H144819   4.324   4.243  10.234 -0.0482 -0.0432  0.1677
 7776TIP3    H244820   4.190   4.189  10.191  0.4878 -0.8948 -0.4419
 7777TIP3   OH244821   1.937   5.266   2.700 -0.0334 -0.7590 -0.2012
 7777TIP3    H144822   1.985   5.225   2.628 -1.6148 -1.4155 -0.9268
 7777TIP3    H244823   1.903   5.192   2.750  1.4475 -0.3065  1.5122
 7778TIP3   OH244824   3.713   5.696   5.347 -0.0979  0.1855  0.1737
 7778TIP3    H144825   3.700   5.615   5.396 -0.4752 -0.0668 -0.3454
 7778TIP3    H244826   3.687   5.675   5.257 -1.5434  1.2531  0.3146
 7779TIP3   OH244827   2.849   2.096   4.163 -0.4641  0.2401 -0.4147
 7779TIP3    H144828   2.854   2.162   4.093  0.7507  1.0879  0.4677
 7779TIP3    H244829   2.813   2.144   4.238  1.3651  0.1560  0.5285
 7780TIP3   OH244830   0.327   2.658   0.322 -0.0210  0.1684 -0.3669
 7780TIP3    H144831   0.417   2.652   0.355 -0.7317 -0.6089  1.5425
 7780TIP3    H244832   0.300   2.747   0.342  0.6969  0.7584 -1.9826
 7781TIP3   OH244833   6.352   1.034   5.196  0.3451  0.6687 -0.1948
 7781TIP3    H144834   6.408   1.110   5.213  1.4279 -0.0234 -0.6264
 7781TIP3    H244835   6.413   0.961   5.182 -0.6820 -0.6221  1.7472
 7782TIP3   OH244836   4.919   4.353   5.341 -0.2311 -0.7147 -0.6529
 7782TIP3    H144837   4.863   4.394   5.275 -0.0547 -0.6545 -0.7670
 7782TIP3    H244838   4.991   4.316   5.291 -0.1003 -0.6762 -0.4939
 7783TIP3   OH244839   2.914   2.476   1.413 -0.0296  0.4371  0.2295
 7783TIP3    H144840   2.847   2.513   1.471 -0.6706 -1.6298  0.8618
 7783TIP3    H244841   2.866   2.417   1.356  1.1598 -0.5521  0.2316
 7784TIP3   OH244842   2.614   3.587   1.326  0.1672  0.1605 -0.0287
 7784TIP3    H144843   2.576   3.592   1.238  0.3431  0.9154 -0.0609
 7784TIP3    H244844   2.538   3.581   1.384  0.0634 -2.1260 -0.3267
 7785TIP3   OH244845   4.522   1.321  13.545  0.8500  0.0520  0.0526
 7785TIP3    H144846   4.446   1.303  13.490 -0.8124  1.9206  1.6678
 7785TIP3    H244847   4.541   1.413  13.531  2.8688 -0.4133 -0.3726
 7786TIP3   OH244848   0.884   1.677   2.760 -0.3015 -0.1037 -0.4244
 7786TIP3    H144849   0.960   1.633   2.798 -1.8434 -2.0942  0.4641
 7786TIP3    H244850   0.878   1.760   2.807  1.2831  0.0686 -0.4975
 7787TIP3   OH244851   1.958   5.170  15.950 -0.3138 -0.0119 -0.4535
 7787TIP3    H144852   1.987   5.121  16.027 -0.3046  0.3134 -0.2505
 7787TIP3    H244853   1.963   5.262  15.976 -0.5517  0.0885 -0.7554
 7788TIP3   OH244854   2.255   0.203  12.923 -0.0610  0.4359  0.2208
 7788TIP3    H144855   2.298   0.288  12.910  0.6806 -0.0082 -0.3147
 7788TIP3    H244856   2.264   0.159  12.838 -1.6279  0.3474  0.0798
 7789TIP3   OH244857   2.936   6.334  11.252 -0.2745  0.8693 -0.0861
 7789TIP3    H144858   2.946   6.364  11.161 -0.8070 -1.5007 -0.9614
 7789TIP3    H244859   2.971   6.245  11.252 -0.9361  0.5902  1.8839
 7790TIP3   OH244860   3.266   6.000   1.723 -0.5086  0.6240 -0.5655
 7790TIP3    H144861   3.316   5.923   1.751  0.0768  1.8005  1.7929
 7790TIP3    H244862   3.200   5.966   1.663  0.0149 -1.6509  0.1216
 7791TIP3   OH244863   6.247   2.554   6.116 -0.1488 -0.1851 -0.1200
 7791TIP3    H144864   6.317   2.495   6.090 -1.8344 -1.3824 -2.0892
 7791TIP3    H244865   6.172   2.526   6.064 -3.0322 -1.0660  4.2622
 7792TIP3   OH244866   1.596   3.353   0.579  0.8136  0.2518  0.4585
 7792TIP3    H144867   1.645   3.426   0.542  0.6760  0.4084  0.5874
 7792TIP3    H244868   1.517   3.347   0.525  0.6220  0.4685  0.7164
 7793TIP3   OH244869   5.098   2.078  15.810 -0.9592  0.9035 -0.1961
 7793TIP3    H144870   5.086   2.097  15.717 -1.9809  1.4406  0.0383
 7793TIP3    H244871   5.155   2.147  15.842  1.1744 -0.4879 -0.8712
 7794TIP3   OH244872   6.222   2.426  13.441 -0.3496  0.3660 -0.6305
 7794TIP3    H144873   6.201   2.489  13.511 -1.3147  0.1403 -0.7076
 7794TIP3    H244874   6.274   2.358  13.484 -0.3892  0.5600 -0.2759
 7795TIP3   OH244875   5.205   4.985   6.150 -0.2356  0.0664  0.0921
 7795TIP3    H144876   5.275   4.954   6.093 -1.1170 -0.6665 -0.6040
 7795TIP3    H244877   5.189   4.914   6.212  1.1443  1.0955  1.6943
 7796TIP3   OH244878   5.031   6.493   5.316 -0.0899 -0.8733  0.1399
 7796TIP3    H144879   5.027   6.457   5.405 -0.3599 -1.7122 -0.2023
 7796TIP3    H244880   5.103   6.445   5.274 -0.4520 -1.0234 -0.3232
 7797TIP3   OH244881   1.035   0.993   0.554 -0.2755 -0.2438  0.4953
 7797TIP3    H144882   0.948   1.033   0.562  0.0148  0.3196  0.8778
 7797TIP3    H244883   1.087   1.059   0.508  0.7043  0.6184  2.7719
 7798TIP3   OH244884   1.138   1.673   1.431  0.6595  0.1554  0.7738
 7798TIP3    H144885   1.089   1.623   1.496 -0.1090 -0.1559 -0.0502
 7798TIP3    H244886   1.151   1.759   1.473 -1.3699  0.5548  0.6429
 7799TIP3   OH244887   0.072   0.436   3.276  0.0320 -0.7380  0.7582
 7799TIP3    H144888   0.043   0.390   3.354  0.7079  1.7928  2.5469
 7799TIP3    H244889   0.162   0.462   3.295 -0.2700  1.1436 -0.2772
 7800TIP3   OH244890   0.838   6.044  16.460  0.0449 -0.6314  0.3396
 7800TIP3    H144891   0.913   6.019  16.406  0.6250 -0.1079  0.8991
 7800TIP3    H244892   0.787   6.102  16.403  0.9159  0.3258  0.5026
 7801TIP3   OH244893   2.749   2.294  14.811  0.1954 -0.9054 -0.1479
 7801TIP3    H144894   2.721   2.352  14.882  0.3024 -2.3025  1.0619
 7801TIP3    H244895   2.669   2.278  14.760 -0.4653 -1.9379  1.1626
 7802TIP3   OH244896   0.429   2.567   2.772  0.1705 -0.2892 -0.0489
 7802TIP3    H144897   0.458   2.653   2.743 -2.0050  0.6869  0.5890
 7802TIP3    H244898   0.410   2.520   2.691  0.5164  0.1319 -0.3751
 7803TIP3   OH244899   2.267   0.312  12.152  0.0522  0.5265 -0.8988
 7803TIP3    H144900   2.360   0.328  12.169  0.0248  1.4059 -1.5211
 7803TIP3    H244901   2.229   0.297  12.239  0.3668  2.4488 -0.3997
 7804TIP3   OH244902   3.718   5.144   4.128  0.6892 -0.0718 -0.2311
 7804TIP3    H144903   3.807   5.179   4.117  0.1656  1.4450  0.2387
 7804TIP3    H244904   3.698   5.102   4.044  1.4811  0.4228 -0.6726
 7805TIP3   OH244905   6.116   1.447   6.232 -0.2549 -0.2434 -0.3580
 7805TIP3    H144906   6.056   1.430   6.305 -1.4644 -0.9495 -1.4818
 7805TIP3    H244907   6.203   1.443   6.270 -0.8619 -0.9828  0.9682
 7806TIP3   OH244908   1.364   3.540   4.157  0.4062  0.2859  0.0533
 7806TIP3    H144909   1.291   3.601   4.158  0.7244  0.6904 -0.8099
 7806TIP3    H244910   1.330   3.462   4.113  0.4135  0.3753 -0.1115
 7807TIP3   OH244911   3.327   2.400   5.703 -0.2253 -0.3238  0.3861
 7807TIP3    H144912   3.324   2.454   5.782 -0.4311  1.0729 -0.5717
 7807TIP3    H244913   3.291   2.316   5.731 -0.7775  0.3108  1.6520
 7808TIP3   OH244914   0.718   2.576   4.120  0.1193 -1.1202  0.0338
 7808TIP3    H144915   0.758   2.489   4.111  0.0848 -1.2532  1.0744
 7808TIP3    H244916   0.726   2.615   4.033 -0.0275 -2.2378 -0.4972
 7809TIP3   OH244917   6.098   0.022  12.340 -0.6234  0.3338 -0.0048
 7809TIP3    H144918   6.020   0.074  12.357  0.0825  1.3644  0.1164
 7809TIP3    H244919   6.146   0.071  12.273 -0.1495 -0.3662 -0.1862
 7810TIP3   OH244920   1.908   4.185   3.677  0.1024 -0.5778 -0.5683
 7810TIP3    H144921   1.843   4.116   3.691 -1.6483  1.2956  0.7043
 7810TIP3    H244922   1.862   4.266   3.696  2.9731  0.7726  0.9850
 7811TIP3   OH244923   1.417   2.267  14.423 -0.0518  0.1247  0.5625
 7811TIP3    H144924   1.393   2.300  14.510 -0.4139 -0.3656  0.6590
 7811TIP3    H244925   1.389   2.335  14.362 -1.0019 -0.0961  0.7370
 7812TIP3   OH244926   1.393   1.777  13.413  0.1607  0.4383 -0.0274
 7812TIP3    H144927   1.431   1.853  13.457  0.7375 -0.4105  0.9743
 7812TIP3    H244928   1.309   1.764  13.455  0.3006  0.1994  0.1819
 7813TIP3   OH244929   1.307   5.828  14.251 -0.8243  0.3293 -0.1889
 7813TIP3    H144930   1.361   5.880  14.192 -1.6676  1.8135  0.3154
 7813TIP3    H244931   1.284   5.889  14.322 -1.0478 -1.0015  0.9066
 7814TIP3   OH244932   5.428   3.894   0.198 -0.3984 -0.2027 -0.2171
 7814TIP3    H144933   5.360   3.830   0.220 -1.0763  0.2090 -1.0666
 7814TIP3    H244934   5.469   3.859   0.119  1.6889 -1.4225  1.3312
 7815TIP3   OH244935   1.017   3.697   4.241  0.0247  0.1689  0.1111
 7815TIP3    H144936   1.063   3.672   4.321  1.3587  2.0412 -0.0252
 7815TIP3    H244937   1.087   3.726   4.182 -1.0017 -0.5304 -1.4943
 7816TIP3   OH244938   3.707   1.466  14.317  0.5777 -0.1803 -0.0267
 7816TIP3    H144939   3.655   1.500  14.245  0.1694 -1.1217 -0.1926
 7816TIP3    H244940   3.785   1.522  14.320 -0.8678  1.8454  0.8345
 7817TIP3   OH244941   3.285   1.160   3.321 -0.2126  0.6532 -0.4955
 7817TIP3    H144942   3.377   1.149   3.299 -0.1742 -1.7694  0.7522
 7817TIP3    H244943   3.285   1.190   3.412 -0.6486  0.6888 -0.5053
 7818TIP3   OH244944   5.724   6.555   6.355 -0.5714  0.4606 -0.5003
 7818TIP3    H144945   5.701   6.471   6.313  1.9064  0.0994 -1.1736
 7818TIP3    H244946   5.745   6.531   6.445  0.5455  0.3028 -0.8046
 7819TIP3   OH244947   4.041   3.922   2.975  0.2020  0.0708  0.0973
 7819TIP3    H144948   3.967   3.949   2.921  0.3623 -0.8836 -0.6155
 7819TIP3    H244949   4.090   4.003   2.991  0.0451  0.3903 -1.0288
 7820TIP3   OH244950   3.377   4.918  12.473  0.5964  0.0252  0.2891
 7820TIP3    H144951   3.430   4.874  12.540  0.9953  1.1165  0.6969
 7820TIP3    H244952   3.379   4.858  12.399  0.7320 -0.8790  1.0080
 7821TIP3   OH244953   2.852   0.228  13.608  0.0800 -0.1413 -0.1777
 7821TIP3    H144954   2.883   0.163  13.670  0.0189  0.6078  0.6410
 7821TIP3    H244955   2.760   0.242  13.632  0.6850  1.8751  1.0799
 7822TIP3   OH244956   6.014   3.975  14.810  0.1611  0.2098 -0.0736
 7822TIP3    H144957   6.092   3.996  14.759 -0.1326  2.5333  0.3512
 7822TIP3    H244958   5.979   4.061  14.837 -1.2631 -0.8575  1.6426
 7823TIP3   OH244959   3.953   5.660  15.413 -0.2644  0.1306  0.3747
 7823TIP3    H144960   3.995   5.599  15.353  1.0642  1.8579 -0.4940
 7823TIP3    H244961   4.024   5.693  15.467 -1.0718  0.4258  1.2711
 7824TIP3   OH244962   2.424   4.085   1.140  0.0392 -0.2105 -0.1256
 7824TIP3    H144963   2.447   4.123   1.225  0.0368 -1.8901  0.6493
 7824TIP3    H244964   2.508   4.061   1.101 -0.0625 -1.1461  0.2226
 7825TIP3   OH244965   4.208   0.377   1.921 -0.3153  0.0996 -0.0470
 7825TIP3    H144966   4.162   0.297   1.948  1.2750 -0.7158  0.2665
 7825TIP3    H244967   4.137   0.439   1.902 -1.6850 -2.1084 -2.6138
 7826TIP3   OH244968   0.597   3.627  11.276 -0.2551 -0.0632  0.1864
 7826TIP3    H144969   0.670   3.564  11.279  0.4708  0.7296 -0.4370
 7826TIP3    H244970   0.633   3.706  11.315 -0.5717  0.5438 -0.7542
 7827TIP3   OH244971   2.914   0.454   1.918  0.1002  0.2634 -0.1330
 7827TIP3    H144972   2.980   0.466   1.850  0.8578  0.7540  0.6776
 7827TIP3    H244973   2.938   0.517   1.986 -1.4755  0.7647 -0.0273
 7828TIP3   OH244974   5.191   2.856  13.029  0.1716 -0.2644  0.4773
 7828TIP3    H144975   5.251   2.930  13.017 -1.9431  1.3039 -1.0459
 7828TIP3    H244976   5.121   2.891  13.084 -1.5052 -0.7142 -1.3125
 7829TIP3   OH244977   3.893   2.346   5.074  0.1063  0.1553 -0.1036
 7829TIP3    H144978   3.876   2.339   5.168 -0.6359  1.7802 -0.0909
 7829TIP3    H244979   3.822   2.400   5.041  0.9998  0.5653 -1.4099
 7830TIP3   OH244980   2.276   0.439  16.391  0.0534 -0.1761 -0.1423
 7830TIP3    H144981   2.267   0.534  16.398  0.8139 -0.1890  1.3325
 7830TIP3    H244982   2.303   0.424  16.301  0.9782  1.1065 -0.1002
 7831TIP3   OH244983   2.113   5.533   1.280 -0.1031  0.1735 -0.7105
 7831TIP3    H144984   2.149   5.454   1.320 -1.2485  0.0870  0.1601
 7831TIP3    H244985   2.048   5.564   1.342  1.0413  2.3722 -0.5669
 7832TIP3   OH244986   5.469   2.894   0.629 -0.0049  0.6937  0.0050
 7832TIP3    H144987   5.393   2.842   0.657 -1.3211  2.7318  0.3731
 7832TIP3    H244988   5.545   2.845   0.660 -1.2226 -0.5991  1.0068
 7833TIP3   OH244989   1.970   6.555  10.886  0.1294 -0.0399  0.3906
 7833TIP3    H144990   1.966   6.478  10.943  1.3847 -0.4711 -0.0860
 7833TIP3    H244991   2.061   6.558  10.857 -0.3937  0.4413 -1.2270
 7834TIP3   OH244992   5.003   2.271   0.053 -1.0734  0.2930 -0.1536
 7834TIP3    H144993   4.968   2.359   0.047 -0.1600  0.5222 -2.3556
 7834TIP3    H244994   5.097   2.284   0.070 -1.1662 -0.2891  0.8899
 7835TIP3   OH244995   0.300   5.210   2.809 -0.0424  0.4888  0.4660
 7835TIP3    H144996   0.220   5.233   2.857  0.9741 -0.3589  2.6079
 7835TIP3    H244997   0.335   5.133   2.854  0.7545 -0.5751 -1.8875
 7836TIP3   OH244998   6.558   0.791   2.204 -0.2307  0.4441  0.0117
 7836TIP3    H144999   6.603   0.853   2.147  0.4651 -0.6834 -0.6746
 7836TIP3    H245000   6.486   0.758   2.152  0.9310 -1.2592 -0.5678
 7837TIP3   OH245001   3.081   5.376   3.521  0.2107  0.1607  0.1333
 7837TIP3    H145002   3.042   5.372   3.434  2.3686  0.4214 -0.8739
 7837TIP3    H245003   3.131   5.458   3.522  2.8010 -1.3545  0.4625
 7838TIP3   OH245004   6.685   6.128  15.881  0.2905 -0.0929  0.1315
 7838TIP3    H145005   6.595   6.115  15.851 -0.1388 -2.2901  2.3078
 7838TIP3    H245006   6.686   6.218  15.914 -1.0648 -0.0105 -0.0115
 7839TIP3   OH245007   3.214   4.080   6.532  0.4536  0.2260  0.3311
 7839TIP3    H145008   3.248   4.006   6.583  0.7897 -0.9922 -1.6125
 7839TIP3    H245009   3.143   4.042   6.481  0.5027  1.3049 -0.5474
 7840TIP3   OH245010   6.639   0.004   3.720 -0.4634  0.6717 -0.0849
 7840TIP3    H145011   6.658   0.069   3.789 -0.2425 -1.2387  1.6945
 7840TIP3    H245012   6.677  -0.077   3.753 -1.0429 -0.4538 -2.1390
 7841TIP3   OH245013   1.569   2.216  15.662  0.0443  0.0022 -0.2383
 7841TIP3    H145014   1.562   2.278  15.589 -1.4193  0.9003  0.6466
 7841TIP3    H245015   1.596   2.270  15.736  0.4589 -0.7237  0.1393
 7842TIP3   OH245016   1.895   3.466   2.169 -0.1616 -0.0858 -0.6090
 7842TIP3    H145017   1.970   3.468   2.109  0.2118  0.0965 -0.1375
 7842TIP3    H245018   1.918   3.401   2.235  0.6342  1.6754  0.8872
 7843TIP3   OH245019   2.354   0.081   5.226 -0.0284 -0.1247 -0.1528
 7843TIP3    H145020   2.448   0.094   5.218  0.0518 -0.4196  0.2576
 7843TIP3    H245021   2.332   0.022   5.153  0.6879 -2.7755  1.6797
 7844TIP3   OH245022   0.812   3.227  13.815 -0.0894  0.2310  0.3879
 7844TIP3    H145023   0.749   3.262  13.878  0.0087  0.1191  0.5480
 7844TIP3    H245024   0.794   3.275  13.734 -0.9561 -0.4028  0.1923
 7845TIP3   OH245025   4.780   0.885  11.030 -0.8421  0.1038 -1.2082
 7845TIP3    H145026   4.738   0.865  10.947 -1.8422  3.0447 -1.4777
 7845TIP3    H245027   4.855   0.940  11.006  0.4775 -1.2774 -0.3536
 7846TIP3   OH245028   6.541   4.454  16.097 -0.3700 -0.0222 -0.2147
 7846TIP3    H145029   6.502   4.374  16.132  0.0054 -0.5620 -1.0008
 7846TIP3    H245030   6.503   4.462  16.009  1.9426 -1.0374 -1.3231
 7847TIP3   OH245031   5.795   2.168   5.747  0.6164  0.5390 -0.0449
 7847TIP3    H145032   5.773   2.101   5.811 -0.5783 -1.7607 -2.7257
 7847TIP3    H245033   5.712   2.210   5.726  0.6923  0.1120 -1.2750
 7848TIP3   OH245034   3.227   6.089  17.002 -0.4107  0.1886 -0.5403
 7848TIP3    H145035   3.210   5.998  16.976  1.2121 -1.0831  2.5459
 7848TIP3    H245036   3.185   6.098  17.088 -1.1837  2.6138 -1.1431
 7849TIP3   OH245037   4.910   4.397  15.320 -0.5960  0.0008 -0.1218
 7849TIP3    H145038   4.910   4.402  15.416 -3.1413 -1.1833 -0.0319
 7849TIP3    H245039   4.902   4.488  15.291 -1.4862  0.2246  0.8195
 7850TIP3   OH245040   1.840   4.006   2.881 -0.2048  0.2625 -0.0442
 7850TIP3    H145041   1.802   4.064   2.947 -0.4697  0.7392 -0.6107
 7850TIP3    H245042   1.863   4.065   2.808 -0.7094 -0.3795 -0.7259
 7851TIP3   OH245043   5.629   3.725   1.238  0.2667 -0.1094 -0.9661
 7851TIP3    H145044   5.705   3.744   1.183  1.7589 -0.2457  1.0296
 7851TIP3    H245045   5.624   3.629   1.238  0.1867 -0.1053 -0.9597
 7852TIP3   OH245046   5.761   3.736  16.013 -0.1286  0.4355  0.9750
 7852TIP3    H145047   5.725   3.683  16.084 -0.3213 -0.2982  0.3351
 7852TIP3    H245048   5.820   3.677  15.966 -1.3299  0.4035 -0.5185
 7853TIP3   OH245049   4.221   1.762  10.309 -0.1515  0.3567 -0.9365
 7853TIP3    H145050   4.243   1.712  10.230  1.9333  0.9305 -0.7602
 7853TIP3    H245051   4.274   1.722  10.378 -1.5993  0.1733  0.0904
 7854TIP3   OH245052   4.557   5.200  10.928  0.3688  0.4746 -0.4028
 7854TIP3    H145053   4.510   5.284  10.925  1.5206  1.1264 -0.3921
 7854TIP3    H245054   4.511   5.150  10.995 -0.0209  1.2906 -0.0453
 7855TIP3   OH245055   4.212   5.298   0.356  0.3209 -0.4514  0.4599
 7855TIP3    H145056   4.135   5.272   0.305  0.0673 -1.3454  1.2677
 7855TIP3    H245057   4.286   5.259   0.310  0.4912  1.8742 -1.3006
 7856TIP3   OH245058   0.643   4.793  15.997 -0.6222 -0.2986  0.4953
 7856TIP3    H145059   0.681   4.792  15.909 -1.4203 -0.9240  0.1566
 7856TIP3    H245060   0.593   4.712  16.002 -0.6706 -0.2038  1.4886
 7857TIP3   OH245061   4.672   1.154   0.163 -0.7534 -0.3511 -0.0736
 7857TIP3    H145062   4.673   1.180   0.071  0.6516  1.5307  0.4508
 7857TIP3    H245063   4.637   1.229   0.210 -1.0379 -1.1193  0.9808
 7858TIP3   OH245064   4.214   1.502  12.568  0.2117 -0.1048 -0.3547
 7858TIP3    H145065   4.122   1.500  12.595  0.5716 -0.9599  0.8515
 7858TIP3    H245066   4.213   1.475  12.477 -0.8028  0.5520 -0.5450
 7859TIP3   OH245067   0.252   4.451  12.972  0.4054  0.4294  0.1669
 7859TIP3    H145068   0.346   4.459  12.989 -0.1034  2.1085  2.5219
 7859TIP3    H245069   0.235   4.514  12.902  1.2710 -1.0788 -1.4552
 7860TIP3   OH245070   5.228   0.273   1.795  0.4093 -0.0365  0.3464
 7860TIP3    H145071   5.186   0.351   1.832  3.4632  0.9858  1.8973
 7860TIP3    H245072   5.232   0.290   1.701  0.7946  1.5969  0.6364
 7861TIP3   OH245073   3.081   2.518   4.953 -0.1821 -0.3162 -0.2991
 7861TIP3    H145074   3.154   2.457   4.942  0.6725  0.3665  1.3780
 7861TIP3    H245075   3.024   2.500   4.878  1.4468 -1.2030 -1.3817
 7862TIP3   OH245076   5.217   3.715   0.278 -0.4983  0.0929  0.2407
 7862TIP3    H145077   5.190   3.641   0.224 -0.5264 -0.5510  1.1291
 7862TIP3    H245078   5.137   3.764   0.293 -0.7795 -0.5970  1.0179
 7863TIP3   OH245079   2.923   1.782   6.039 -0.3744 -0.2043 -0.2812
 7863TIP3    H145080   3.013   1.759   6.012  0.2164  0.4614  1.0796
 7863TIP3    H245081   2.903   1.721   6.110  0.4252  2.0573  1.9479
 7864TIP3   OH245082   1.005   4.721   6.144  0.0951  0.2906 -0.7743
 7864TIP3    H145083   0.986   4.696   6.235  1.1284 -1.2499 -0.9669
 7864TIP3    H245084   0.940   4.789   6.124  0.5849  1.4975  1.4980
 7865TIP3   OH245085   6.217   1.258   6.452  0.0799  0.3608  0.0780
 7865TIP3    H145086   6.135   1.250   6.501  0.3113 -0.6965  0.3132
 7865TIP3    H245087   6.269   1.321   6.502 -0.6550  1.1820 -0.1754
 7866TIP3   OH245088   1.113   2.205   4.109  0.5267 -0.0437  0.0147
 7866TIP3    H145089   1.177   2.200   4.037  0.6143  0.7447  0.0402
 7866TIP3    H245090   1.107   2.115   4.141  0.8216 -0.3189 -0.6914
 7867TIP3   OH245091   0.240   4.079  14.191  0.0623 -0.5590  0.1863
 7867TIP3    H145092   0.272   4.084  14.100 -1.4494 -2.6840 -0.5049
 7867TIP3    H245093   0.213   3.988  14.201  2.4284 -0.9629  3.5693
 7868TIP3   OH245094   1.026   5.585   4.389 -0.4656  0.2981  0.4557
 7868TIP3    H145095   1.043   5.618   4.301  1.3730 -1.3075  0.1601
 7868TIP3    H245096   0.938   5.547   4.384 -0.6671  0.8895 -0.4873
 7869TIP3   OH245097   6.309   0.521  15.445 -0.1895  0.2258 -0.7656
 7869TIP3    H145098   6.394   0.479  15.446  0.1314  0.8704 -0.2144
 7869TIP3    H245099   6.325   0.609  15.410 -0.5338  0.5288 -0.1771
 7870TIP3   OH245100   4.575   5.584   5.459  0.9113 -0.5376  0.0301
 7870TIP3    H145101   4.486   5.556   5.480  0.6486  0.0328 -0.3059
 7870TIP3    H245102   4.630   5.543   5.526  0.2356  0.2486  1.0708
 7871TIP3   OH245103   0.973   6.800  16.423 -0.4497 -0.6410  0.2341
 7871TIP3    H145104   1.016   6.884  16.411 -0.9750  0.0950  3.3188
 7871TIP3    H245105   0.899   6.803  16.363  1.7917 -0.5942 -2.6734
 7872TIP3   OH245106   1.906   5.353   3.693  0.3718  0.1769 -0.1044
 7872TIP3    H145107   1.919   5.300   3.615  0.0670  0.8395 -0.6116
 7872TIP3    H245108   1.989   5.346   3.741 -0.3313 -2.3189  0.8171
 7873TIP3   OH245109   2.017   1.241   6.043 -0.3965 -0.1278  0.2420
 7873TIP3    H145110   2.022   1.334   6.065 -0.9884 -0.4794  1.9307
 7873TIP3    H245111   2.076   1.231   5.968  2.2189  1.0264  2.0571
 7874TIP3   OH245112   2.097   1.605  12.849 -0.4014  0.0989  0.4594
 7874TIP3    H145113   2.073   1.682  12.901 -0.7133 -1.0956  2.1078
 7874TIP3    H245114   2.164   1.638  12.789  0.3546  1.4067  1.9517
 7875TIP3   OH245115   2.358   3.705   1.969 -0.0134 -0.1042 -0.0503
 7875TIP3    H145116   2.318   3.781   1.927 -1.7049 -0.5385  0.7354
 7875TIP3    H245117   2.445   3.700   1.930  0.3278  2.5385  0.2274
 7876TIP3   OH245118   6.505   5.957  15.073 -0.6247 -0.3200 -0.5360
 7876TIP3    H145119   6.496   5.909  15.154 -1.9643 -0.8783 -1.0050
 7876TIP3    H245120   6.581   5.918  15.030  0.2905  0.2001  0.5812
 7877TIP3   OH245121   3.892   0.171   3.961 -0.1794  0.0724  0.4924
 7877TIP3    H145122   3.912   0.188   4.054 -2.7393  1.6145  0.8206
 7877TIP3    H245123   3.958   0.108   3.933  2.3776  1.6855  2.6206
 7878TIP3   OH245124   3.839   1.391  11.759 -0.7924  0.4770 -0.2513
 7878TIP3    H145125   3.907   1.379  11.694 -1.8275  0.9044 -1.4425
 7878TIP3    H245126   3.879   1.366  11.842  0.9402  1.1676 -0.8693
 7879TIP3   OH245127   0.543   4.076   4.428  0.0252  0.5850  0.4335
 7879TIP3    H145128   0.570   3.999   4.478  0.6324  0.5160  0.0045
 7879TIP3    H245129   0.625   4.117   4.402 -0.2462 -0.2107 -1.7945
 7880TIP3   OH245130   0.335   3.260  12.093 -0.2565 -0.1850 -0.0282
 7880TIP3    H145131   0.421   3.299  12.107  1.0671 -2.3586 -1.8443
 7880TIP3    H245132   0.345   3.208  12.014 -3.4383  0.0100 -0.5981
 7881TIP3   OH245133   4.473   3.893   3.913  0.1963 -0.3763  0.4348
 7881TIP3    H145134   4.491   3.815   3.965  0.4168 -1.1720 -0.8070
 7881TIP3    H245135   4.474   3.965   3.976 -0.9695 -1.4871  1.7646
 7882TIP3   OH245136   2.265   3.224   3.915 -0.4064 -0.3029  0.3651
 7882TIP3    H145137   2.238   3.172   3.991 -0.3870 -0.8580 -0.0017
 7882TIP3    H245138   2.350   3.260   3.940 -0.2048 -0.8247  0.4525
 7883TIP3   OH245139   6.300   6.576   1.046 -0.0605  0.3455  0.2386
 7883TIP3    H145140   6.210   6.609   1.051 -0.3579 -0.8049  3.3288
 7883TIP3    H245141   6.332   6.579   1.136  2.6518 -0.2492 -0.6595
 7884TIP3   OH245142   0.863   6.394   2.302  0.0497  0.1126  0.0279
 7884TIP3    H145143   0.824   6.456   2.364 -1.6251 -0.6624 -0.2313
 7884TIP3    H245144   0.851   6.434   2.216  0.6979  0.3181  0.0303
 7885TIP3   OH245145   0.019   4.489   4.363 -0.0247 -0.2938 -0.3475
 7885TIP3    H145146   0.072   4.484   4.443  0.7063 -0.4034 -0.8358
 7885TIP3    H245147   0.020   4.399   4.329 -0.8912 -0.3886 -0.1208
 7886TIP3   OH245148   0.663   3.301   5.345 -0.7480 -0.0224 -0.1138
 7886TIP3    H145149   0.675   3.214   5.306  2.0947  0.9498 -1.5520
 7886TIP3    H245150   0.570   3.304   5.368 -1.2550 -2.8309 -1.5389
 7887TIP3   OH245151   1.735   0.650   0.407  0.0202 -0.2467  0.1963
 7887TIP3    H145152   1.693   0.675   0.325  0.0740 -1.5084 -0.2331
 7887TIP3    H245153   1.678   0.684   0.476 -2.3921 -2.9659 -0.3590
 7888TIP3   OH245154   2.764   0.828  14.904 -0.4050  0.0680 -0.2352
 7888TIP3    H145155   2.711   0.855  14.980 -0.2685 -2.1187  0.7018
 7888TIP3    H245156   2.704   0.835  14.830 -0.4897  2.4192  0.0193
 7889TIP3   OH245157   3.942   5.305   4.740  0.1415  0.8228  0.1970
 7889TIP3    H145158   3.994   5.296   4.820 -0.0768  0.9537  0.3530
 7889TIP3    H245159   3.859   5.343   4.769  0.5558  2.1034 -0.2771
 7890TIP3   OH245160   0.824   1.337  12.914  0.2021 -0.4792  0.6023
 7890TIP3    H145161   0.790   1.265  12.861  0.4405 -1.0865  1.2648
 7890TIP3    H245162   0.880   1.295  12.979  3.0433  0.5386 -1.0554
 7891TIP3   OH245163   0.717   2.935   3.667  0.4004  0.1940  0.7314
 7891TIP3    H145164   0.759   3.014   3.631 -0.8982  1.1026  1.1736
 7891TIP3    H245165   0.623   2.953   3.662  0.0654 -1.5484  0.3751
 7892TIP3   OH245166   6.461   6.442   6.234 -0.3358 -0.3247  0.1458
 7892TIP3    H145167   6.391   6.507   6.239  0.6397  0.6991  0.7141
 7892TIP3    H245168   6.440   6.377   6.302 -1.7544 -1.0541 -0.9822
 7893TIP3   OH245169   0.013   4.441  16.864  0.2061 -0.6425 -0.1406
 7893TIP3    H145170   0.026   4.408  16.775  0.6791  1.3726 -0.8585
 7893TIP3    H245171   0.076   4.393  16.918 -0.0419 -1.8384 -0.8929
 7894TIP3   OH245172   3.102   3.871   5.606  0.2595  0.1057  0.0702
 7894TIP3    H145173   3.090   3.787   5.651 -0.6332 -0.1214 -0.5911
 7894TIP3    H245174   3.188   3.863   5.564 -0.9349 -1.5304 -2.2136
 7895TIP3   OH245175   5.544   3.201  12.648  0.0897  0.2570 -0.1050
 7895TIP3    H145176   5.599   3.150  12.707 -2.0697  1.0660  2.7263
 7895TIP3    H245177   5.460   3.154  12.647  0.8812 -1.3196 -4.8358
 7896TIP3   OH245178   5.816   5.025  13.591  0.5146  0.0019  1.1162
 7896TIP3    H145179   5.768   5.011  13.509 -0.1514  0.6592  1.3882
 7896TIP3    H245180   5.904   5.051  13.563 -0.2822  2.2657  0.5717
 7897TIP3   OH245181   2.749   4.928   5.122  0.2518 -0.7839  0.1123
 7897TIP3    H145182   2.758   5.006   5.177 -2.3161 -1.9258  2.2810
 7897TIP3    H245183   2.833   4.883   5.131  1.6454  1.4789 -0.8909
 7898TIP3   OH245184   0.820   1.334   6.258  0.1459 -0.4802  0.1696
 7898TIP3    H145185   0.887   1.355   6.323  1.2328  1.2244 -1.4536
 7898TIP3    H245186   0.743   1.384   6.286  1.0639  1.4331 -0.6512
 7899TIP3   OH245187   1.040   1.300   2.620 -0.6029  0.0818 -0.0190
 7899TIP3    H145188   1.056   1.206   2.630 -0.2409  0.0273 -1.0216
 7899TIP3    H245189   0.959   1.305   2.570 -1.7935  0.3375  1.8659
 7900TIP3   OH245190   3.265   2.282   5.055 -0.1611  0.2236 -0.1516
 7900TIP3    H145191   3.328   2.225   5.010 -1.8944 -0.2671 -2.0050
 7900TIP3    H245192   3.203   2.222   5.095  0.5160  0.7120  1.6548
 7901TIP3   OH245193   6.235   6.004  15.638 -0.2394  0.7394 -0.0040
 7901TIP3    H145194   6.277   6.089  15.646 -0.0825  0.5891  0.8255
 7901TIP3    H245195   6.163   6.006  15.701 -0.2381  0.2577  0.0176
 7902TIP3   OH245196   1.651   6.609  11.409  0.2072  0.4058 -0.8747
 7902TIP3    H145197   1.601   6.532  11.438  0.5738  1.2608  2.1770
 7902TIP3    H245198   1.739   6.594  11.443  0.6664  1.4683 -1.5749
 7903TIP3   OH245199   5.742   6.211   2.662  0.2119 -0.0476 -0.5877
 7903TIP3    H145200   5.663   6.221   2.715 -0.1613 -1.0822 -0.9507
 7903TIP3    H245201   5.812   6.245   2.718 -0.3840  0.2362 -0.0029
 7904TIP3   OH245202   4.407   1.619   0.818  0.3037 -0.2555 -0.1950
 7904TIP3    H145203   4.370   1.596   0.903  0.4837 -1.8736 -0.5332
 7904TIP3    H245204   4.460   1.697   0.836 -1.4237  0.7321  0.7249
 7905TIP3   OH245205   4.328   1.312  15.182  0.4788  0.7500  0.5621
 7905TIP3    H145206   4.334   1.303  15.277  1.9761 -0.1148  0.4062
 7905TIP3    H245207   4.418   1.331  15.154  0.6040 -1.7703 -0.9227
 7906TIP3   OH245208   1.129   0.980   5.788 -0.0678  0.0982  0.9871
 7906TIP3    H145209   1.199   0.931   5.746  0.0731  1.2666 -0.1586
 7906TIP3    H245210   1.128   0.948   5.878  2.5627  0.7197  1.2796
 7907TIP3   OH245211   4.245   0.187   6.047  0.1983 -0.0112 -0.2738
 7907TIP3    H145212   4.307   0.257   6.068  2.3438 -1.5014 -1.4038
 7907TIP3    H245213   4.230   0.196   5.952 -0.5101 -0.3029 -0.1923
 7908TIP3   OH245214   0.175   3.417   5.489 -0.3394 -0.0087 -0.3222
 7908TIP3    H145215   0.262   3.377   5.491 -1.2241 -1.9446  0.6868
 7908TIP3    H245216   0.188   3.500   5.445  1.6766 -1.1190 -1.8874
 7909TIP3   OH245217   6.449   5.172   1.398  0.2607 -0.7015  0.8356
 7909TIP3    H145218   6.363   5.208   1.422  0.0107 -0.8761  0.2195
 7909TIP3    H245219   6.468   5.107   1.466 -0.2243 -0.8644  0.8193
 7910TIP3   OH245220   1.608   0.525   1.085  0.1458 -0.3133 -0.2613
 7910TIP3    H145221   1.518   0.494   1.099  0.5121 -1.0445  0.5366
 7910TIP3    H245222   1.615   0.603   1.140 -0.3337  0.3835 -1.1718
 7911TIP3   OH245223   2.711   5.202  15.090 -0.0640  0.2362 -0.5689
 7911TIP3    H145224   2.796   5.183  15.131  0.2173  0.3367 -1.0998
 7911TIP3    H245225   2.733   5.224  14.999 -0.4686  2.2686 -0.1940
 7912TIP3   OH245226   6.455   6.188  15.721  0.0662 -0.3168  0.3569
 7912TIP3    H145227   6.398   6.238  15.780  0.4257 -0.2006  0.6082
 7912TIP3    H245228   6.470   6.247  15.647  2.1343  0.7629  1.5770
 7913TIP3   OH245229   3.114   1.968   6.410 -0.2899 -0.5602 -0.0276
 7913TIP3    H145230   3.028   1.932   6.389 -0.2150 -0.4167 -0.6107
 7913TIP3    H245231   3.115   2.054   6.367 -0.0302 -0.3641  0.3669
 7914TIP3   OH245232   4.090   4.247  14.480  0.6955  0.5454 -0.4731
 7914TIP3    H145233   4.020   4.241  14.415 -0.4184  1.5246  0.6105
 7914TIP3    H245234   4.144   4.320  14.450 -0.5460  1.8266  0.3821
 7915TIP3   OH245235   2.906   6.052  12.944 -0.1744  0.3205 -0.9037
 7915TIP3    H145236   2.838   6.045  12.877  0.6850  2.3017 -2.0045
 7915TIP3    H245237   2.949   6.135  12.927  1.1181  0.1176  1.1372
 7916TIP3   OH245238   4.649   1.111   5.071 -0.3482 -0.8286  0.2890
 7916TIP3    H145239   4.702   1.157   5.137 -0.6484 -1.3333  0.8843
 7916TIP3    H245240   4.566   1.095   5.115 -0.8330 -0.4650 -0.4880
 7917TIP3   OH245241   1.515   6.135  11.575  0.3051 -0.3437 -0.1937
 7917TIP3    H145242   1.566   6.172  11.646  1.0787 -0.1212 -0.8525
 7917TIP3    H245243   1.581   6.099  11.515 -0.4045 -2.2018  0.1149
 7918TIP3   OH245244   6.736   4.032   3.860  0.0373 -0.4939 -0.4128
 7918TIP3    H145245   6.826   3.999   3.867 -0.2252 -1.1725 -0.1839
 7918TIP3    H245246   6.716   4.066   3.947 -0.1683 -0.9751 -0.2702
 7919TIP3   OH245247   3.484   4.548   2.450 -0.6071 -0.0136 -0.1223
 7919TIP3    H145248   3.555   4.489   2.427 -0.0856  0.4787  0.2061
 7919TIP3    H245249   3.526   4.634   2.458 -1.6934  0.8154 -2.7096
 7920TIP3   OH245250   0.019   1.873   5.411  0.6703  0.1067  0.3346
 7920TIP3    H145251   0.108   1.863   5.376 -0.0723 -1.6012 -1.1644
 7920TIP3    H245252   0.018   1.818   5.490  0.2232 -1.9265 -1.0595
 7921TIP3   OH245253   2.140   1.119  14.736 -0.0639  0.7528  0.7084
 7921TIP3    H145254   2.196   1.045  14.760 -0.0056  0.4988 -0.1979
 7921TIP3    H245255   2.183   1.195  14.775  1.7749  0.7769 -1.2773
 7922TIP3   OH245256   0.684   4.863   3.756 -0.0544  0.3239  0.0593
 7922TIP3    H145257   0.709   4.884   3.666 -1.3971 -0.7262 -0.5799
 7922TIP3    H245258   0.694   4.768   3.762  0.0645  0.3905  1.0324
 7923TIP3   OH245259   0.753   4.624  11.741 -0.1286 -0.2117 -0.1136
 7923TIP3    H145260   0.784   4.704  11.700  2.4145 -0.9129  0.3573
 7923TIP3    H245261   0.665   4.612  11.707  0.5503  1.2000 -2.4479
 7924TIP3   OH245262   3.371   0.046  13.017  0.2670  0.3385 -0.2287
 7924TIP3    H145263   3.327  -0.021  12.965  0.9597 -1.0632  0.9461
 7924TIP3    H245264   3.315   0.058  13.094  0.9522 -0.0518  0.3356
 7925TIP3   OH245265   4.865   1.359   0.407  0.3681  0.1662 -0.1971
 7925TIP3    H145266   4.907   1.442   0.427 -0.8093  0.8019 -0.2910
 7925TIP3    H245267   4.774   1.382   0.387 -0.0082 -1.1504 -0.0980
 7926TIP3   OH245268   6.099   6.566   4.610  0.1219  0.5772 -0.2888
 7926TIP3    H145269   6.038   6.589   4.540 -0.1970  1.4877  0.2818
 7926TIP3    H245270   6.185   6.569   4.569 -0.1187  0.4871 -0.7973
 7927TIP3   OH245271   4.769   4.668  11.996  0.2901  0.3865 -0.0307
 7927TIP3    H145272   4.743   4.746  11.947 -1.3284 -1.1538 -1.7422
 7927TIP3    H245273   4.852   4.692  12.037  0.6459  2.4620 -1.8464
 7928TIP3   OH245274   5.563   3.044  14.368  0.2357 -0.7351 -0.3030
 7928TIP3    H145275   5.539   3.044  14.460  0.4256  1.2190 -0.2267
 7928TIP3    H245276   5.624   2.970  14.359 -0.7105 -1.6728  0.8596
 7929TIP3   OH245277   5.437   2.830   2.967  0.3637  0.7038 -0.0613
 7929TIP3    H145278   5.517   2.777   2.960  0.5684  1.1814 -1.5868
 7929TIP3    H245279   5.464   2.907   3.017  0.7978  0.7239 -0.3191
 7930TIP3   OH245280   0.020   6.277   0.368  0.0296 -0.3384  0.1731
 7930TIP3    H145281   0.044   6.185   0.363 -0.2955 -0.3849 -0.5148
 7930TIP3    H245282  -0.045   6.281   0.438  1.3337 -0.3546  1.4101
 7931TIP3   OH245283   0.761   4.569   3.475  0.8688  0.3384  0.6084
 7931TIP3    H145284   0.761   4.660   3.447  2.5527  0.1647 -0.0254
 7931TIP3    H245285   0.772   4.573   3.570  0.9600  0.8012  0.5792
 7932TIP3   OH245286   2.337   1.426  10.504  0.4873  0.4966  0.1378
 7932TIP3    H145287   2.291   1.377  10.572  1.8127  0.1030  0.7712
 7932TIP3    H245288   2.426   1.392  10.506  0.3546 -0.1136 -2.3750
 7933TIP3   OH245289   6.362   5.314   0.893  0.4889 -0.5963  0.2956
 7933TIP3    H145290   6.391   5.278   0.977  1.2592  1.1101  0.7866
 7933TIP3    H245291   6.391   5.405   0.895 -1.5206  0.0898 -0.8579
 7934TIP3   OH245292   2.627   3.086  17.157 -0.3976  0.2160  1.2871
 7934TIP3    H145293   2.670   3.001  17.148 -1.2276 -0.2254  1.4709
 7934TIP3    H245294   2.608   3.113  17.067  0.4102  0.5005  1.1917
 7935TIP3   OH245295   6.194   4.992  14.962 -0.5535 -0.0805 -0.6088
 7935TIP3    H145296   6.213   4.922  15.024  0.4573 -0.0336 -0.8634
 7935TIP3    H245297   6.279   5.019  14.929 -1.1555 -0.8711 -2.8905
 7936TIP3   OH245298   4.674   0.519  11.732 -0.3515 -0.0059 -0.2899
 7936TIP3    H145299   4.585   0.551  11.747 -0.9405 -0.4834 -2.5971
 7936TIP3    H245300   4.664   0.450  11.666  1.8227  0.5001 -1.1741
 7937TIP3   OH245301   3.913   2.903  16.022 -0.0238 -0.1052 -0.6222
 7937TIP3    H145302   4.002   2.868  16.030  0.6789  1.6573 -0.5693
 7937TIP3    H245303   3.922   2.981  15.967 -0.9462  2.2178  2.3717
 7938TIP3   OH245304   4.032   4.243  12.173 -0.0054  0.1047  0.3014
 7938TIP3    H145305   4.101   4.180  12.190  0.0427 -0.4248 -1.7391
 7938TIP3    H245306   3.954   4.190  12.155 -0.3448  0.6422  0.1482
 7939TIP3   OH245307   4.278   1.305   4.265 -0.0251  0.4324 -0.1588
 7939TIP3    H145308   4.188   1.325   4.240  0.6636  1.8880 -1.5411
 7939TIP3    H245309   4.321   1.391   4.274  1.3911 -0.2554 -0.1173
 7940TIP3   OH245310   6.055   5.582  13.225  0.0962  0.0421  0.5361
 7940TIP3    H145311   6.132   5.619  13.268  0.1209  0.9857 -0.2944
 7940TIP3    H245312   5.983   5.638  13.254  0.0094  0.2626 -0.0861
 7941TIP3   OH245313   0.405   4.293   3.349  0.4491 -0.3084  0.3093
 7941TIP3    H145314   0.455   4.235   3.407  0.0204  1.7895  2.8366
 7941TIP3    H245315   0.457   4.373   3.345  0.4925 -0.4196 -2.3138
 7942TIP3   OH245316   0.140   4.603  17.125  0.3926 -0.0395 -0.4099
 7942TIP3    H145317   0.193   4.682  17.133  1.3971 -0.8326  0.9225
 7942TIP3    H245318   0.093   4.597  17.207  0.3403 -0.8349 -0.4948
 7943TIP3   OH245319   6.543   5.593  13.087 -0.0014 -0.3669 -0.5363
 7943TIP3    H145320   6.570   5.613  13.177  0.1318  0.3896 -0.7363
 7943TIP3    H245321   6.500   5.673  13.058 -0.0380 -0.6116 -1.1499
 7944TIP3   OH245322   4.988   4.708  14.445  0.3291 -0.2841 -0.2093
 7944TIP3    H145323   5.064   4.756  14.412 -0.6125  1.6324  0.3622
 7944TIP3    H245324   5.010   4.687  14.536  0.2353  0.1333 -0.0915
 7945TIP3   OH245325   0.015   2.900  16.023 -0.6235  0.5482 -0.5156
 7945TIP3    H145326  -0.035   2.970  16.066 -0.1772  1.2772 -1.1584
 7945TIP3    H245327   0.103   2.908  16.060 -1.0496 -0.9462  0.8606
 7946TIP3   OH245328   5.849   0.610   2.076  0.1326 -0.3277 -0.1526
 7946TIP3    H145329   5.814   0.689   2.118  4.1102 -0.1110  2.9721
 7946TIP3    H245330   5.865   0.637   1.985  0.6501  2.1926  0.6472
 7947TIP3   OH245331   2.790   4.656   2.097 -0.1163  0.0916 -0.9418
 7947TIP3    H145332   2.736   4.725   2.059 -1.2541 -0.5881 -0.5888
 7947TIP3    H245333   2.741   4.575   2.079 -0.0987 -0.3571  0.9346
 7948TIP3   OH245334   5.855   2.398   0.145 -0.0901  0.3561 -0.2078
 7948TIP3    H145335   5.780   2.428   0.197  0.0290 -0.2018  0.3013
 7948TIP3    H245336   5.822   2.321   0.099  0.8959 -1.5383  2.1043
 7949TIP3   OH245337   3.552   2.331  13.206 -0.5425  0.5387  0.3999
 7949TIP3    H145338   3.566   2.424  13.224  0.0410  0.5059  0.1532
 7949TIP3    H245339   3.461   2.314  13.228 -0.7544  1.2601  0.0695
 7950TIP3   OH245340   2.447   6.413   2.864 -0.5294 -0.4703  0.5420
 7950TIP3    H145341   2.415   6.484   2.809 -0.2666 -0.0493  0.9237
 7950TIP3    H245342   2.543   6.417   2.856 -0.4062  0.4936  2.1009
 7951TIP3   OH245343   4.116   0.086  15.022 -0.0810 -0.4041  0.3245
 7951TIP3    H145344   4.106  -0.009  15.014 -0.4111 -0.2240 -1.5358
 7951TIP3    H245345   4.044   0.122  14.971  0.1868  0.8671  0.8341
 7952TIP3   OH245346   0.583   1.214  14.446  0.4659  0.1183 -0.2113
 7952TIP3    H145347   0.545   1.225  14.534  1.4775  0.8884  0.1464
 7952TIP3    H245348   0.531   1.144  14.406 -1.7204  1.5426  0.0299
 7953TIP3   OH245349   4.054   0.644   1.767 -0.1769  0.3196  0.1243
 7953TIP3    H145350   4.130   0.690   1.731 -0.6009  0.9145 -0.0120
 7953TIP3    H245351   4.026   0.585   1.697  0.9558 -0.8694  0.6421
 7954TIP3   OH245352   6.485   3.891  13.774 -0.0443 -0.1836 -0.0934
 7954TIP3    H145353   6.561   3.932  13.735  0.3724 -0.4820  0.3938
 7954TIP3    H245354   6.514   3.803  13.798 -0.9536 -0.7953 -1.2053
 7955TIP3   OH245355   6.817   4.393  13.270  0.0919 -0.3985  0.0673
 7955TIP3    H145356   6.789   4.399  13.361 -2.4222 -1.5767 -0.5818
 7955TIP3    H245357   6.902   4.350  13.273  0.8475  1.1763  1.9611
 7956TIP3   OH245358   2.083   4.453  13.663 -0.0676  0.1154 -0.5105
 7956TIP3    H145359   2.173   4.470  13.692 -0.0450 -2.0908  0.8297
 7956TIP3    H245360   2.092   4.393  13.589 -0.4594 -0.9780  0.3140
 7957TIP3   OH245361   3.656   4.792   0.431 -0.4843 -0.5468 -0.3088
 7957TIP3    H145362   3.750   4.779   0.444 -0.8931 -2.5496  0.7526
 7957TIP3    H245363   3.619   4.704   0.431 -2.3951  0.2351 -0.5149
 7958TIP3   OH245364   3.875   2.006   5.763 -0.7106 -0.1604  0.4812
 7958TIP3    H145365   3.953   1.998   5.819 -0.4497 -0.5845  0.0609
 7958TIP3    H245366   3.824   2.077   5.803 -0.3886 -0.2676  1.0932
 7959TIP3   OH245367   4.351   1.993   3.340 -0.9172  0.4579 -0.1854
 7959TIP3    H145368   4.311   2.060   3.285 -1.8845  0.1594  0.1512
 7959TIP3    H245369   4.282   1.928   3.352 -0.7386  0.5730  1.4729
 7960TIP3   OH245370   4.920   1.979  17.177  0.0930 -0.1371  0.5946
 7960TIP3    H145371   4.933   2.069  17.206  0.2525  0.3432 -0.8786
 7960TIP3    H245372   4.988   1.929  17.222  0.8896  0.7277  0.3676
 7961TIP3   OH245373   4.915   0.847   5.401 -0.6806 -0.1459 -0.1859
 7961TIP3    H145374   4.862   0.830   5.478 -2.5785 -0.9960 -1.6420
 7961TIP3    H245375   4.952   0.934   5.415 -1.4457 -0.0773  1.4157
 7962TIP3   OH245376   3.311   4.752  15.970 -0.3123 -0.0327  0.2670
 7962TIP3    H145377   3.265   4.676  16.006  1.0710 -0.9184  0.2051
 7962TIP3    H245378   3.243   4.817  15.955 -1.4362 -1.0700  0.8445
 7963TIP3   OH245379   1.434   0.870   5.400  0.0207 -0.2016 -0.2097
 7963TIP3    H145380   1.393   0.879   5.314  2.8960  1.2296 -1.5070
 7963TIP3    H245381   1.490   0.948   5.408  1.0467 -1.1426  2.2590
 7964TIP3   OH245382   1.018   6.591   3.029 -0.0158 -0.3649  0.6052
 7964TIP3    H145383   1.096   6.536   3.020 -0.3022 -0.3754 -2.4892
 7964TIP3    H245384   0.952   6.532   3.065  0.5803 -1.1514  0.4434
 7965TIP3   OH245385   6.220   5.398  16.576 -0.2279  0.2576 -0.2600
 7965TIP3    H145386   6.276   5.337  16.529  0.5380 -1.4419  2.7439
 7965TIP3    H245387   6.252   5.397  16.666 -2.6070  2.2405  0.6913
 7966TIP3   OH245388   1.538   1.945  11.331  0.3855  0.0487 -0.0323
 7966TIP3    H145389   1.480   1.870  11.318 -0.0256  0.5180 -0.9925
 7966TIP3    H245390   1.567   1.969  11.243 -0.7303  1.9671  0.0781
 7967TIP3   OH245391   6.434   1.868   2.217  0.1775  0.4031  0.1861
 7967TIP3    H145392   6.392   1.847   2.300 -0.1073 -0.5155 -0.1787
 7967TIP3    H245393   6.416   1.961   2.204  0.0780  0.5096  1.0672
 7968TIP3   OH245394   2.629   1.383  14.408 -0.6407 -0.0874  0.0148
 7968TIP3    H145395   2.712   1.431  14.404 -0.1612 -0.8347  0.9094
 7968TIP3    H245396   2.633   1.335  14.491 -2.6820  1.1638  0.8516
 7969TIP3   OH245397   4.449   2.204   2.683 -0.5875  0.1908  0.3964
 7969TIP3    H145398   4.412   2.250   2.758 -0.9986  1.7642 -0.7429
 7969TIP3    H245399   4.403   2.120   2.681  0.1375 -0.2787  2.4738
 7970TIP3   OH245400   4.922   4.435  12.438 -0.3230 -0.2868  0.3296
 7970TIP3    H145401   4.917   4.349  12.480  0.5659  0.0041  1.0588
 7970TIP3    H245402   4.892   4.496  12.505  1.4777  0.2215  0.7156
 7971TIP3   OH245403   1.978   0.327  11.762 -0.1742 -0.1417  0.5590
 7971TIP3    H145404   1.891   0.286  11.765 -0.2110 -0.1118 -0.1267
 7971TIP3    H245405   1.991   0.351  11.670 -0.2786  1.6767  0.9945
 7972TIP3   OH245406   6.067   2.202  11.562 -0.1563  0.2046 -0.5306
 7972TIP3    H145407   6.159   2.179  11.559 -0.9244 -3.0521 -0.5978
 7972TIP3    H245408   6.064   2.288  11.605  2.9942  1.1533 -2.0825
 7973TIP3   OH245409   5.559   1.553   0.947  0.2308  0.2725  0.1146
 7973TIP3    H145410   5.607   1.524   1.024 -0.2524 -1.0722 -0.0830
 7973TIP3    H245411   5.570   1.648   0.946  1.4138  0.1521  1.0482
 7974TIP3   OH245412   4.060   4.806  10.936 -0.3562 -0.3539 -0.1404
 7974TIP3    H145413   4.004   4.747  10.986  0.0482  0.1508  0.9037
 7974TIP3    H245414   4.139   4.755  10.919 -1.6331 -1.5437 -2.7648
 7975TIP3   OH245415   4.732   6.019  14.547 -0.3161  0.0253  0.1774
 7975TIP3    H145416   4.757   6.070  14.624  1.1035  0.7567 -0.7392
 7975TIP3    H245417   4.646   6.053  14.523 -0.4009  0.3728  0.9530
 7976TIP3   OH245418   2.995   3.291  13.965  0.4759  0.3218 -0.2889
 7976TIP3    H145419   2.905   3.278  13.995 -0.0451  1.8672 -1.1299
 7976TIP3    H245420   3.004   3.234  13.889  0.1439  0.3319 -0.3322
 7977TIP3   OH245421   0.311   4.273  12.743  0.0041  0.3437  0.2793
 7977TIP3    H145422   0.288   4.180  12.735  0.7272  0.2470 -0.8740
 7977TIP3    H245423   0.316   4.289  12.837 -2.9859 -0.0612  0.5546
 7978TIP3   OH245424   4.308   0.537   3.580 -0.4172  0.0359  0.1852
 7978TIP3    H145425   4.313   0.627   3.612 -0.5327  0.7636 -1.7255
 7978TIP3    H245426   4.236   0.498   3.628 -0.1171  0.8581  1.3138
 7979TIP3   OH245427   1.569   2.981   2.875 -0.3219 -0.0504 -0.3787
 7979TIP3    H145428   1.587   3.046   2.943  3.1975 -0.9956 -0.2987
 7979TIP3    H245429   1.527   2.909   2.922 -3.1532  1.5923 -0.2681
 7980TIP3   OH245430   1.719   4.103  11.474  0.7809 -0.0462  0.4473
 7980TIP3    H145431   1.794   4.110  11.415 -0.1578  0.4325 -0.6951
 7980TIP3    H245432   1.757   4.113  11.561  1.6664  3.3124 -0.2577
 7981TIP3   OH245433   3.327   1.289  16.067 -0.4358 -0.1332 -0.1001
 7981TIP3    H145434   3.353   1.202  16.035 -0.0194 -0.6704  1.6314
 7981TIP3    H245435   3.308   1.276  16.160  1.3556  1.9842  0.6058
 7982TIP3   OH245436   2.453   1.565   1.898  0.6201 -0.1551 -0.3033
 7982TIP3    H145437   2.528   1.571   1.840  1.8206 -1.1317  1.0955
 7982TIP3    H245438   2.465   1.482   1.944 -1.7285 -0.6897 -0.6111
 7983TIP3   OH245439   3.810   5.097  11.873  0.2942 -0.1331 -0.2508
 7983TIP3    H145440   3.872   5.125  11.805 -1.1848  1.1222 -1.0998
 7983TIP3    H245441   3.735   5.155  11.862  0.3970  0.7403  3.0757
 7984TIP3   OH245442   3.702   5.526  11.408  0.0271  0.0340 -0.0027
 7984TIP3    H145443   3.645   5.466  11.360  0.9352 -0.3895 -0.5600
 7984TIP3    H245444   3.710   5.486  11.495 -2.7347  1.5126  0.9932
 7985TIP3   OH245445   4.727   3.641  14.311  0.5522  0.7357  0.5439
 7985TIP3    H145446   4.689   3.715  14.262  1.9397  0.8408 -0.4299
 7985TIP3    H245447   4.797   3.609  14.254  1.1882 -0.1420  1.8001
 7986TIP3   OH245448   0.040   6.427   0.686  0.7415  0.2164 -0.5732
 7986TIP3    H145449   0.100   6.381   0.628  0.1176 -1.7926  0.3256
 7986TIP3    H245450   0.097   6.474   0.747  1.3978 -0.0144 -1.0092
 7987TIP3   OH245451   3.634   0.787   6.343 -0.4355  0.0589 -0.8312
 7987TIP3    H145452   3.676   0.859   6.297 -1.5279  0.8905 -0.5622
 7987TIP3    H245453   3.553   0.825   6.378  0.1015 -0.6903  1.2930
 7988TIP3   OH245454   0.881   4.880  13.157 -0.1410  0.4345  1.1388
 7988TIP3    H145455   0.876   4.785  13.145  0.3624  0.2985  1.9434
 7988TIP3    H245456   0.914   4.914  13.074 -1.3390  0.0096  0.4798
 7989TIP3   OH245457   3.966   4.321   4.751  0.3247 -0.0823 -0.0369
 7989TIP3    H145458   4.050   4.356   4.779  0.5700 -0.9829  0.3529
 7989TIP3    H245459   3.976   4.226   4.754 -0.5613 -0.1987 -0.4104
 7990TIP3   OH245460   6.771   5.732  15.499  0.2729  0.7236 -0.6389
 7990TIP3    H145461   6.753   5.642  15.525  0.6830  1.0535  0.8500
 7990TIP3    H245462   6.867   5.737  15.499  0.2438  1.7394  1.4235
 7991TIP3   OH245463   4.481   4.976   1.126  0.6733  0.4284 -0.5197
 7991TIP3    H145464   4.525   5.043   1.178  1.2647  0.5488 -1.1619
 7991TIP3    H245465   4.404   4.951   1.178  1.8747 -0.2986  0.9360
 7992TIP3   OH245466   2.081   4.662   3.992 -0.2125  0.3158  0.0431
 7992TIP3    H145467   2.084   4.753   4.025 -0.4259 -0.1216  1.3133
 7992TIP3    H245468   1.993   4.632   4.014 -0.3750  0.0231 -1.0042
 7993TIP3   OH245469   6.606   3.419   0.793  0.3213  0.0248 -0.2493
 7993TIP3    H145470   6.585   3.511   0.779  0.2991  0.3046  1.5257
 7993TIP3    H245471   6.545   3.390   0.861  1.1467 -0.9723  0.0811
 7994TIP3   OH245472   0.783   0.468  14.587  0.6922  0.2200 -0.7072
 7994TIP3    H145473   0.749   0.379  14.586 -0.9907  0.8328 -0.0821
 7994TIP3    H245474   0.878   0.458  14.581  0.4244 -1.5306 -2.3552
 7995TIP3   OH245475   0.923   0.496   3.498 -0.2228 -0.8077 -0.2126
 7995TIP3    H145476   0.978   0.459   3.429  0.0805 -0.2369 -0.2757
 7995TIP3    H245477   0.890   0.579   3.462  0.8322  0.0473  0.7445
 7996TIP3   OH245478   5.451   0.129  12.799 -0.1017  0.0524  0.3187
 7996TIP3    H145479   5.375   0.109  12.743  1.0914  1.9900 -2.0887
 7996TIP3    H245480   5.525   0.132  12.738  1.4268  1.0927  2.1836
 7997TIP3   OH245481   0.424   5.382   4.037  0.3317  0.1465 -0.5158
 7997TIP3    H145482   0.498   5.367   4.094  2.0136  0.4432 -2.5541
 7997TIP3    H245483   0.413   5.300   3.989 -0.5598  0.1534 -0.3315
 7998TIP3   OH245484   4.645   5.382   5.263  0.7064 -0.1047  0.4821
 7998TIP3    H145485   4.605   5.462   5.298  1.5095  0.5582 -0.0990
 7998TIP3    H245486   4.649   5.322   5.337 -0.2818  0.2470  0.8229
 7999TIP3   OH245487   3.990   2.905  16.829  0.2981  0.3834  0.0094
 7999TIP3    H145488   4.066   2.922  16.772  0.0146  1.1119 -0.1552
 7999TIP3    H245489   3.934   2.848  16.777 -0.6654  2.2409 -1.0637
 8000TIP3   OH245490   0.398   3.225  11.455  0.0349 -0.1713 -0.7184
 8000TIP3    H145491   0.442   3.141  11.448 -1.0375 -0.6640 -1.6638
 8000TIP3    H245492   0.335   3.213  11.525  1.4363  0.5647  0.7051
 8001TIP3   OH245493   0.899   0.214   4.087 -0.6196  0.5812 -0.1271
 8001TIP3    H145494   0.840   0.277   4.045  0.8096  1.4573 -0.8330
 8001TIP3    H245495   0.986   0.253   4.079  0.3168 -1.5959 -0.7694
 8002TIP3   OH245496   5.994   3.732  13.677 -0.2822  0.1144  0.6267
 8002TIP3    H145497   6.045   3.776  13.745  1.2043 -2.1464  1.0221
 8002TIP3    H245498   5.959   3.653  13.721  2.4587 -2.5201 -1.7462
 8003TIP3   OH245499   4.742   5.497  13.045  0.1146  0.2679 -0.1665
 8003TIP3    H145500   4.818   5.552  13.061  0.1076  1.1669 -2.9337
 8003TIP3    H245501   4.682   5.516  13.117  1.0744  2.1361  0.1579
 8004TIP3   OH245502   4.888   1.332   3.124 -0.4445 -0.1711 -0.2257
 8004TIP3    H145503   4.955   1.375   3.071 -0.9637  0.9148 -0.0166
 8004TIP3    H245504   4.868   1.396   3.193  0.0954 -1.4752  1.1781
 8005TIP3   OH245505   3.189   2.387   1.852 -0.1017  0.6388 -0.5363
 8005TIP3    H145506   3.276   2.396   1.892 -0.1014  0.9920 -0.6149
 8005TIP3    H245507   3.206   2.361   1.762 -0.1306 -1.5890  0.0559
 8006TIP3   OH245508   3.120   4.943  14.444 -0.0948 -0.7308  0.2062
 8006TIP3    H145509   3.037   4.988  14.458 -0.3966 -1.8871  2.3467
 8006TIP3    H245510   3.156   4.931  14.532  0.9430 -2.8598 -0.4731
 8007TIP3   OH245511   4.653   5.253  12.407 -0.1937 -0.2309 -0.0091
 8007TIP3    H145512   4.567   5.257  12.366 -0.4125 -0.7161  0.4050
 8007TIP3    H245513   4.644   5.306  12.486 -1.1279 -3.1010  1.8799
 8008TIP3   OH245514   3.502   3.136  16.503 -0.1431  0.1347 -0.0405
 8008TIP3    H145515   3.498   3.041  16.517  1.2084  0.0995  0.1864
 8008TIP3    H245516   3.447   3.173  16.571 -0.6768 -0.4915 -0.1311
 8009TIP3   OH245517   2.414   2.983  17.264 -0.1092 -0.0094  0.4470
 8009TIP3    H145518   2.427   2.895  17.228  0.5910  0.2034  0.1833
 8009TIP3    H245519   2.489   3.033  17.233 -1.2177  1.0547 -0.5399
 8010TIP3   OH245520   0.887   6.613  14.098  0.2149 -0.3312 -0.0323
 8010TIP3    H145521   0.813   6.571  14.143  0.7846 -2.1994 -0.7713
 8010TIP3    H245522   0.956   6.617  14.164  0.4981 -1.5487 -0.2278
 8011TIP3   OH245523   4.722   4.154  13.762  0.2613  0.1094  0.3235
 8011TIP3    H145524   4.718   4.246  13.735  0.6331 -0.0235 -0.1925
 8011TIP3    H245525   4.813   4.142  13.789  0.7650 -0.6735 -1.6522
 8012TIP3   OH245526   0.463   0.773   0.638  0.4267 -0.4547 -0.2360
 8012TIP3    H145527   0.485   0.749   0.728  0.0960  0.7847  0.1798
 8012TIP3    H245528   0.543   0.815   0.605 -0.3793  1.5870  0.3852
 8013TIP3   OH245529   2.606   1.998   5.264 -0.2892 -0.3371  0.1322
 8013TIP3    H145530   2.601   1.927   5.200  2.1958 -1.4251  1.0829
 8013TIP3    H245531   2.559   2.071   5.222  0.8434 -1.1744 -2.7283
 8014TIP3   OH245532   5.876   6.734  11.759 -0.0943 -0.0909 -0.1707
 8014TIP3    H145533   5.932   6.727  11.682  0.0239 -1.7360  0.0586
 8014TIP3    H245534   5.811   6.665  11.748 -0.3959  0.0037  0.9520
 8015TIP3   OH245535   3.906   0.768  14.361 -0.1394 -0.3175 -0.2692
 8015TIP3    H145536   3.948   0.812  14.435 -1.8369 -0.6301  0.9068
 8015TIP3    H245537   3.896   0.837  14.295  1.7644 -0.1351 -0.3858
 8016TIP3   OH245538   5.873   6.491  16.727 -0.2566 -0.3207 -0.4373
 8016TIP3    H145539   5.790   6.539  16.730  0.2031  0.5429 -1.2284
 8016TIP3    H245540   5.914   6.520  16.646  0.8029 -0.7742 -0.0677
 8017TIP3   OH245541   1.755   2.529  10.704  0.2536  0.4262  0.3497
 8017TIP3    H145542   1.764   2.617  10.666 -2.1275  0.7644  0.4868
 8017TIP3    H245543   1.843   2.506  10.734  0.8067  3.0066  0.8044
 8018TIP3   OH245544   1.479   2.696   1.176  0.5158  0.3821 -0.6657
 8018TIP3    H145545   1.438   2.636   1.113 -1.2020  1.9970 -1.1211
 8018TIP3    H245546   1.469   2.782   1.137  5.2200  0.8165 -1.2600
 8019TIP3   OH245547   3.810   4.693  13.941  0.0373 -0.3351 -0.1368
 8019TIP3    H145548   3.828   4.672  13.849 -1.0110 -0.6908 -0.2698
 8019TIP3    H245549   3.807   4.609  13.985 -2.1138 -0.3920 -0.2921
 8020TIP3   OH245550   3.321   3.459   4.456  0.3209  0.2501 -0.0799
 8020TIP3    H145551   3.301   3.544   4.494  0.5861 -0.2855  1.3151
 8020TIP3    H245552   3.406   3.435   4.495 -1.0662 -1.8894  1.7572
 8021TIP3   OH245553   5.758   1.162  15.778 -0.1387 -0.4687  0.2511
 8021TIP3    H145554   5.772   1.202  15.693  0.2782  0.0006  0.5378
 8021TIP3    H245555   5.763   1.068  15.762 -0.1976 -0.3848 -0.2625
 8022TIP3   OH245556   0.516   3.028   2.245  0.4908 -0.1830  0.1718
 8022TIP3    H145557   0.423   3.050   2.253  0.5941 -0.8274  3.8360
 8022TIP3    H245558   0.520   2.934   2.258  1.4881 -0.5300 -2.2596
 8023TIP3   OH245559   6.301   6.715   3.348  0.5450  0.2534 -0.1726
 8023TIP3    H145560   6.312   6.622   3.329 -0.3572 -0.1373  1.2071
 8023TIP3    H245561   6.207   6.728   3.352  0.6802  0.8399  1.5001
 8024TIP3   OH245562   5.668   5.998  17.126 -0.1899 -0.2353  0.2589
 8024TIP3    H145563   5.635   6.025  17.041  1.0162  1.8952  0.4179
 8024TIP3    H245564   5.629   6.060  17.188  0.3051 -0.6815  1.0266
 8025TIP3   OH245565   2.885   0.441  14.551  0.2764 -0.1254 -0.1608
 8025TIP3    H145566   2.848   0.444  14.639  2.3723 -0.9396  0.8004
 8025TIP3    H245567   2.958   0.503  14.554 -0.8652  1.3740 -1.9679
 8026TIP3   OH245568   6.129   6.502  11.692  0.3628 -0.0148 -0.0674
 8026TIP3    H145569   6.170   6.469  11.772  0.7764  1.1040  0.1877
 8026TIP3    H245570   6.062   6.563  11.723 -1.2155 -1.4753 -0.4893
 8027TIP3   OH245571   5.045   2.708   1.622 -0.4109 -0.2553 -0.5517
 8027TIP3    H145572   5.006   2.794   1.639  0.5570  0.0147  0.3549
 8027TIP3    H245573   5.134   2.715   1.657 -0.0649 -1.3747 -1.1856
 8028TIP3   OH245574   1.445   0.273  11.487  0.0306 -0.4643 -0.3459
 8028TIP3    H145575   1.513   0.323  11.441 -0.6377  0.5128 -0.3003
 8028TIP3    H245576   1.470   0.182  11.475 -0.5545 -0.2891 -3.3164
 8029TIP3   OH245577   2.949   5.802   1.918 -0.0057  0.2163 -0.4353
 8029TIP3    H145578   2.959   5.774   1.827 -0.2779 -0.6682 -0.1970
 8029TIP3    H245579   3.035   5.789   1.957 -0.0027  0.1947 -0.4491
 8030TIP3   OH245580   4.978   4.110   1.829 -0.1163  0.3612  0.1123
 8030TIP3    H145581   4.902   4.162   1.857 -1.1998 -1.1990  0.0982
 8030TIP3    H245582   5.005   4.151   1.747 -0.4629  1.4043  0.5064
 8031TIP3   OH245583   3.957   2.834   3.367  0.1697 -0.3770 -0.2051
 8031TIP3    H145584   3.911   2.841   3.451 -0.8669 -0.1733 -0.7863
 8031TIP3    H245585   4.031   2.776   3.385 -0.3759 -0.7907  0.7165
 8032TIP3   OH245586   2.151   0.578   3.194 -0.1390 -0.5179 -0.3481
 8032TIP3    H145587   2.186   0.490   3.177 -0.3469 -0.7830  0.5374
 8032TIP3    H245588   2.228   0.635   3.190  0.0713 -0.8028 -0.4588
 8033TIP3   OH245589   3.004   6.417   1.107  0.3378  0.4963 -0.4294
 8033TIP3    H145590   2.997   6.321   1.110 -1.7548  0.6433 -0.1079
 8033TIP3    H245591   2.960   6.441   1.026  0.0270  1.2601 -0.0308
 8034TIP3   OH245592   5.595   3.569  11.032  0.0556 -0.3796 -0.0239
 8034TIP3    H145593   5.650   3.571  10.954  1.2151 -0.1119  0.7993
 8034TIP3    H245594   5.519   3.623  11.009  0.4538 -0.1901 -0.9132
 8035TIP3   OH245595   2.647   2.780   4.354  0.6561  0.0852 -0.3031
 8035TIP3    H145596   2.732   2.824   4.361  0.5039  0.3524 -0.1159
 8035TIP3    H245597   2.637   2.761   4.261  0.9768 -0.0595 -0.3093
 8036TIP3   OH245598   1.279   4.782   3.382 -0.7214 -0.6136  0.7341
 8036TIP3    H145599   1.213   4.851   3.384  0.6397  0.7424 -0.1241
 8036TIP3    H245600   1.280   4.752   3.291  0.5978  0.1408  0.4828
 8037TIP3   OH245601   3.049   1.598   4.952 -0.4452 -0.2648 -0.3944
 8037TIP3    H145602   3.088   1.560   5.030  1.7524  1.8316 -0.4211
 8037TIP3    H245603   2.966   1.636   4.982 -0.2712 -0.6877  0.6283
 8038TIP3   OH245604   1.795   6.300  12.009  0.5992 -0.1092 -0.0374
 8038TIP3    H145605   1.850   6.242  12.061  0.9526 -0.5844 -0.9297
 8038TIP3    H245606   1.759   6.244  11.940 -0.0220  0.4704 -0.1916
 8039TIP3   OH245607   0.730   2.981  12.569  0.3173  0.6115  0.1123
 8039TIP3    H145608   0.797   2.952  12.631  0.9464  0.0350 -0.8176
 8039TIP3    H245609   0.776   3.042  12.512 -0.3979  1.5634  0.5530
 8040TIP3   OH245610   0.118   1.499   4.911  0.0014 -0.1207  0.5006
 8040TIP3    H145611   0.158   1.581   4.940 -0.2503  0.2995 -0.3517
 8040TIP3    H245612   0.191   1.450   4.873  0.0505 -0.0934  0.5583
 8041TIP3   OH245613   3.703   6.607  16.013 -0.7118 -0.1132 -0.1535
 8041TIP3    H145614   3.670   6.689  15.975  2.2243  0.5727 -1.4066
 8041TIP3    H245615   3.666   6.538  15.958 -0.5640  0.5898 -1.1430
 8042TIP3   OH245616   5.646   0.386  12.489  0.9427  0.2199  0.4821
 8042TIP3    H145617   5.703   0.418  12.419  1.3278 -2.2647 -0.3994
 8042TIP3    H245618   5.593   0.462  12.513  0.3468  1.0079 -2.9661
 8043TIP3   OH245619   2.699   1.329  10.908 -0.1311 -0.1929 -0.8375
 8043TIP3    H145620   2.750   1.363  10.834 -0.9197  3.3317  0.0977
 8043TIP3    H245621   2.611   1.318  10.872 -0.0718 -0.4101 -0.9177
 8044TIP3   OH245622   1.655   2.402   5.960 -0.0040 -0.1083  0.4327
 8044TIP3    H145623   1.647   2.325   5.905 -1.7844 -0.4957  1.1938
 8044TIP3    H245624   1.604   2.381   6.038  2.2677  0.5146  2.1429
 8045TIP3   OH245625   5.318   5.325   0.543 -0.2189  0.0700  0.6983
 8045TIP3    H145626   5.325   5.279   0.459  3.3908  1.3152  0.2156
 8045TIP3    H245627   5.339   5.258   0.608  1.7757  0.2238  0.2353
 8046TIP3   OH245628   0.805   5.618   3.005 -0.3880  0.0970 -0.2552
 8046TIP3    H145629   0.715   5.625   3.039  0.5855  0.4592  2.3932
 8046TIP3    H245630   0.825   5.705   2.972 -1.5305 -0.3839 -2.2518
 8047TIP3   OH245631   6.781   2.380  15.625  0.6116  0.2202 -0.3920
 8047TIP3    H145632   6.770   2.424  15.540  0.8631  1.7458  0.3455
 8047TIP3    H245633   6.782   2.452  15.689  1.4170 -0.8451  0.8137
 8048TIP3   OH245634   1.658   2.239  17.156  0.1562 -0.4942 -0.7899
 8048TIP3    H145635   1.734   2.191  17.189 -0.4772  0.0468  1.5832
 8048TIP3    H245636   1.692   2.290  17.083  1.8494 -1.0713 -0.4392
 8049TIP3   OH245637   2.597   1.763   1.493  0.0968  0.1833 -0.4280
 8049TIP3    H145638   2.525   1.815   1.458 -1.1726 -0.5578  1.0076
 8049TIP3    H245639   2.607   1.793   1.583  0.7367 -0.5881 -0.2333
 8050TIP3   OH245640   4.970   5.765   2.619  0.4109 -0.0389  0.4459
 8050TIP3    H145641   4.978   5.716   2.702 -0.0002 -1.4041 -0.3045
 8050TIP3    H245642   5.039   5.727   2.564 -1.5420 -1.5656 -1.0132
 8051TIP3   OH245643   4.534   5.891  11.667  0.7229  0.5152 -0.3408
 8051TIP3    H145644   4.472   5.943  11.616  0.8146  0.1879 -0.7911
 8051TIP3    H245645   4.613   5.889  11.613  1.2323  1.2010  0.3797
 8052TIP3   OH245646   0.211   4.161   0.998 -0.3779  0.4003 -0.0785
 8052TIP3    H145647   0.118   4.181   0.997 -0.3850  0.3599 -0.5214
 8052TIP3    H245648   0.240   4.177   0.908  0.3445  1.8002  0.3832
 8053TIP3   OH245649   1.817   3.414   2.513 -0.2800 -0.5837  0.8889
 8053TIP3    H145650   1.908   3.437   2.493 -0.4660 -0.8121 -0.2561
 8053TIP3    H245651   1.817   3.319   2.523 -0.8943 -0.9204 -1.9451
 8054TIP3   OH245652   3.998   5.479   1.115 -0.0307 -0.0218 -0.3369
 8054TIP3    H145653   4.073   5.528   1.149 -1.7004  1.3762  1.4041
 8054TIP3    H245654   3.937   5.546   1.085 -1.7452 -1.0679  0.7653
 8055TIP3   OH245655   3.408   0.378  14.719 -0.1665  0.2049  0.2173
 8055TIP3    H145656   3.415   0.468  14.686 -1.6222  0.9214  1.8234
 8055TIP3    H245657   3.466   0.328  14.662 -0.9451  1.7920 -2.0471
 8056TIP3   OH245658   3.661   4.172  16.016 -0.2990  0.4141  0.3343
 8056TIP3    H145659   3.754   4.196  16.022 -0.1880  0.0329  0.1831
 8056TIP3    H245660   3.619   4.248  15.978  0.0312  0.4192 -0.0262
 8057TIP3   OH245661   5.725   5.993   1.684  0.3271  0.0066 -0.2095
 8057TIP3    H145662   5.700   5.914   1.732  1.5471  0.3030  0.9579
 8057TIP3    H245663   5.752   5.962   1.598  0.9559 -0.8761  0.2958
 8058TIP3   OH245664   0.862   0.332   1.878 -0.3169 -0.0730  0.1665
 8058TIP3    H145665   0.940   0.277   1.882  0.4265  1.0437  1.6267
 8058TIP3    H245666   0.790   0.273   1.898  0.2670 -0.8741 -0.0452
 8059TIP3   OH245667   5.234   3.579   2.424  0.2750  0.3377  0.5100
 8059TIP3    H145668   5.281   3.508   2.380 -0.7065  0.5219 -0.8689
 8059TIP3    H245669   5.197   3.538   2.502 -1.6203 -1.0952 -1.0793
 8060TIP3   OH245670   1.509   6.504  13.766  0.2904 -0.3058  0.0100
 8060TIP3    H145671   1.499   6.415  13.799 -2.5326 -0.7971 -1.9352
 8060TIP3    H245672   1.540   6.493  13.676 -1.4056  0.5792 -0.7110
 8061TIP3   OH245673   3.418   0.490   2.577  0.2101  0.6122  0.0593
 8061TIP3    H145674   3.429   0.577   2.616 -1.3815  1.4740 -1.4060
 8061TIP3    H245675   3.364   0.442   2.640  0.1460  1.0358  0.3245
 8062TIP3   OH245676   5.191   5.888  15.091  0.0551  0.3002  0.3958
 8062TIP3    H145677   5.185   5.861  15.182 -0.6411  0.3394  0.3640
 8062TIP3    H245678   5.179   5.807  15.041  1.0503  0.1825  0.3518
 8063TIP3   OH245679   6.232   6.033  10.998  0.0508  0.2396  0.5896
 8063TIP3    H145680   6.171   6.107  11.006 -0.2991  0.1013 -0.6742
 8063TIP3    H245681   6.294   6.061  10.930 -0.2665 -0.7449 -0.1224
 8064TIP3   OH245682   2.856   1.067  12.154 -0.3787  0.3024 -0.0137
 8064TIP3    H145683   2.858   1.149  12.203 -0.3130  0.3608 -0.1157
 8064TIP3    H245684   2.782   1.076  12.094 -0.8249 -0.0033  0.4821
 8065TIP3   OH245685   2.564   2.490   0.820  0.2328 -0.1725  0.2984
 8065TIP3    H145686   2.548   2.584   0.807  1.6038 -0.0158 -0.3075
 8065TIP3    H245687   2.564   2.453   0.731 -1.1726 -0.9035  0.5868
 8066TIP3   OH245688   3.627   4.590   2.165  0.1045  0.4599  0.1332
 8066TIP3    H145689   3.618   4.512   2.220  1.7878  0.5240  0.5165
 8066TIP3    H245690   3.601   4.663   2.221 -1.8005  0.1565 -0.3290
 8067TIP3   OH245691   3.264   2.489  11.484 -0.0591 -0.2292  0.0520
 8067TIP3    H145692   3.220   2.568  11.515  0.6961 -0.5074  1.8790
 8067TIP3    H245693   3.269   2.432  11.561  3.2636 -0.2943 -0.1157
 8068TIP3   OH245694   0.612   5.320   5.281  0.0759 -0.4507  0.0214
 8068TIP3    H145695   0.635   5.378   5.354  1.2407 -1.6166  0.5923
 8068TIP3    H245696   0.541   5.265   5.315 -0.8715  0.4520 -0.4471
 8069TIP3   OH245697   4.113   4.613  12.800  0.0916  0.0209 -0.3085
 8069TIP3    H145698   4.083   4.526  12.824  0.7389 -0.3143 -0.6891
 8069TIP3    H245699   4.166   4.641  12.875 -0.2781  0.1681 -0.1029
 8070TIP3   OH245700   0.402   2.281   6.095  0.1827 -0.9884  0.1657
 8070TIP3    H145701   0.349   2.289   6.016  0.1536 -0.2104  0.2515
 8070TIP3    H245702   0.398   2.369   6.135  2.7350 -0.4866 -0.5883
 8071TIP3   OH245703   5.898   5.472   6.087 -0.0332 -0.6378 -0.1780
 8071TIP3    H145704   5.911   5.551   6.035  0.3949 -0.3971  0.2973
 8071TIP3    H245705   5.803   5.464   6.094 -0.1136 -0.9657 -1.4391
 8072TIP3   OH245706   5.719   0.242   5.251  0.4299 -0.2325 -0.2222
 8072TIP3    H145707   5.762   0.328   5.250  0.7373 -0.3689  1.1592
 8072TIP3    H245708   5.701   0.225   5.158  0.2678  1.3602 -0.5112
 8073TIP3   OH245709   4.655   6.402  11.921 -0.4750  0.1128  0.7228
 8073TIP3    H145710   4.670   6.482  11.870  1.4259  1.3839  3.1598
 8073TIP3    H245711   4.733   6.348  11.905  0.5789  0.9190  2.9120
 8074TIP3   OH245712   0.656   5.921   3.780 -0.0562 -0.8108 -0.7046
 8074TIP3    H145713   0.620   5.849   3.832  1.4648 -0.6234  0.6544
 8074TIP3    H245714   0.598   5.995   3.799  0.4433 -0.7626  0.6923
 8075TIP3   OH245715   5.606   4.897  13.753 -0.2492  0.2332 -0.3381
 8075TIP3    H145716   5.683   4.949  13.729 -0.5812  0.7886 -0.2064
 8075TIP3    H245717   5.625   4.865  13.841  0.3533 -0.6287 -0.7751
 8076TIP3   OH245718   5.415   2.157   3.214 -0.0151 -0.5444  0.2089
 8076TIP3    H145719   5.340   2.176   3.157  1.6387  0.1592 -1.7929
 8076TIP3    H245720   5.376   2.138   3.299 -2.4361  0.3178 -0.6597
 8077TIP3   OH245721   5.570   3.440   5.659  0.1255  0.1985  0.6231
 8077TIP3    H145722   5.583   3.529   5.628 -1.3571 -0.0667 -0.8082
 8077TIP3    H245723   5.521   3.396   5.589 -0.6618 -1.2520  2.0285
 8078TIP3   OH245724   0.557   1.248  16.718  0.5522  0.4451 -0.5511
 8078TIP3    H145725   0.570   1.278  16.808 -0.8457  0.0191 -0.1899
 8078TIP3    H245726   0.494   1.311  16.681  2.7017  1.8632 -1.9147
 8079TIP3   OH245727   5.825   6.774  14.526  0.4747 -0.4868 -0.5708
 8079TIP3    H145728   5.887   6.811  14.464  1.2718 -0.9178 -0.0544
 8079TIP3    H245729   5.823   6.680  14.505 -0.5734 -0.3628 -1.0643
 8080TIP3   OH245730   3.405   4.338  13.734 -0.0607 -0.0661  0.1885
 8080TIP3    H145731   3.359   4.342  13.817  1.5107  0.3400  1.0666
 8080TIP3    H245732   3.345   4.293  13.675 -0.9450 -0.9286  1.7152
 8081TIP3   OH245733   2.431   0.499   3.356 -0.7815  0.1886 -0.8493
 8081TIP3    H145734   2.343   0.463   3.367  0.3141 -1.9376  1.4845
 8081TIP3    H245735   2.484   0.423   3.333  1.0472  0.8219  1.1150
 8082TIP3   OH245736   3.936   1.629   4.652 -0.1776  0.1726 -0.1596
 8082TIP3    H145737   4.015   1.617   4.703 -0.5586  0.4047  0.4839
 8082TIP3    H245738   3.885   1.694   4.700 -1.2524 -0.7839  0.0270
 8083TIP3   OH245739   0.710   1.645   1.405  0.3364  0.3064  0.3485
 8083TIP3    H145740   0.708   1.733   1.444  1.0916 -0.5664  2.4214
 8083TIP3    H245741   0.691   1.586   1.478 -0.2926 -1.2618 -1.0555
 8084TIP3   OH245742   1.785   4.583   6.175  0.0569 -0.2827 -0.2016
 8084TIP3    H145743   1.728   4.622   6.240  0.4503 -0.8421  0.4801
 8084TIP3    H245744   1.812   4.500   6.213 -2.5655 -2.3270 -2.5620
 8085TIP3   OH245745   2.599   0.400  15.490  0.3631 -0.7839  0.1625
 8085TIP3    H145746   2.644   0.316  15.477  3.1715  0.6650  0.0991
 8085TIP3    H245747   2.634   0.433  15.573 -2.1223 -0.5038  1.1379
 8086TIP3   OH245748   1.038   0.593   5.907  0.4815 -0.1107 -0.2286
 8086TIP3    H145749   1.086   0.665   5.946  0.8127 -0.6246  0.3207
 8086TIP3    H245750   1.067   0.515   5.955 -1.4494 -0.3308  0.6285
 8087TIP3   OH245751   5.234   0.992   3.216  0.4822  0.3800  0.3921
 8087TIP3    H145752   5.162   1.042   3.178 -0.2480  0.2708  1.6263
 8087TIP3    H245753   5.192   0.918   3.259  1.4336 -0.3911  0.0176
 8088TIP3   OH245754   1.565   3.257  11.928  0.2519  0.3594  0.1242
 8088TIP3    H145755   1.616   3.176  11.930 -0.2639 -0.1377 -3.4338
 8088TIP3    H245756   1.618   3.320  11.977  1.8821 -1.4600  0.7569
 8089TIP3   OH245757   4.907   5.828   1.006  0.1207 -0.0355  0.8332
 8089TIP3    H145758   4.943   5.787   0.927  0.6437 -0.4107  1.2613
 8089TIP3    H245759   4.923   5.921   0.993 -1.4463  0.0954 -0.3339
 8090TIP3   OH245760   5.545   6.284   2.862  0.6785  0.2966 -0.0276
 8090TIP3    H145761   5.482   6.236   2.809  0.1349 -0.4869  1.2916
 8090TIP3    H245762   5.520   6.376   2.852  1.6696  0.3405 -2.5041
 8091TIP3   OH245763   5.396   1.933   2.095 -0.2240  0.7645  0.3496
 8091TIP3    H145764   5.381   1.986   2.017 -0.2833  1.1527  0.6224
 8091TIP3    H245765   5.332   1.862   2.088  0.6810  0.0363 -0.6307
 8092TIP3   OH245766   4.275   2.048  15.212 -0.6997  0.6435 -0.1791
 8092TIP3    H145767   4.213   2.119  15.194  0.2298  1.4490 -0.2906
 8092TIP3    H245768   4.253   2.019  15.301  0.3608  2.6313  0.7717
 8093TIP3   OH245769   6.371   1.711   1.125 -0.0260  0.3252  0.2187
 8093TIP3    H145770   6.280   1.741   1.124 -0.7453 -1.6571  1.7290
 8093TIP3    H245771   6.375   1.649   1.198  2.2607 -0.4843 -0.5388
 8094TIP3   OH245772   2.004   1.912  15.365 -0.4270 -0.3741 -0.0520
 8094TIP3    H145773   2.026   2.004  15.353  1.7311 -0.6159  1.7625
 8094TIP3    H245774   1.961   1.887  15.283  1.8978  1.3581 -1.8658
 8095TIP3   OH245775   4.091   0.165   2.375  0.0686 -0.3762 -0.2803
 8095TIP3    H145776   4.113   0.248   2.417 -2.2041  0.1753 -0.0969
 8095TIP3    H245777   4.164   0.107   2.396  1.4014  1.3921  0.1010
 8096TIP3   OH245778   6.192   0.343  12.934  0.0195 -0.1569  0.1333
 8096TIP3    H145779   6.264   0.290  12.901  0.6169  1.1594 -0.7284
 8096TIP3    H245780   6.165   0.300  13.015  0.3700 -1.8547 -0.6366
 8097TIP3   OH245781   3.557   5.875   5.615  0.0778 -0.4618 -0.0613
 8097TIP3    H145782   3.477   5.839   5.577  0.9607 -1.7391 -0.7370
 8097TIP3    H245783   3.621   5.803   5.610  0.4065 -0.5147  3.2578
 8098TIP3   OH245784   2.091   2.360   0.123 -0.2602  0.3113  0.4973
 8098TIP3    H145785   2.113   2.408   0.044  0.8394  1.2877  1.3788
 8098TIP3    H245786   2.046   2.281   0.092  1.6679 -0.1681 -1.1832
 8099TIP3   OH245787   3.100   0.156  11.807  0.3519  0.0084  0.2098
 8099TIP3    H145788   3.149   0.236  11.784  1.3456 -0.4440  0.6993
 8099TIP3    H245789   3.161   0.085  11.786 -1.0124 -0.7087 -1.4517
 8100TIP3   OH245790   4.937   2.555   6.233 -0.0401 -0.0810  0.3673
 8100TIP3    H145791   4.865   2.602   6.274 -1.0345 -2.5298  1.5432
 8100TIP3    H245792   4.986   2.622   6.185 -0.7045  2.3114  2.9127
 8101TIP3   OH245793   5.886   0.548  13.704 -0.9924  0.3319  0.4208
 8101TIP3    H145794   5.872   0.632  13.660  0.4289  0.5354  0.3286
 8101TIP3    H245795   5.980   0.534  13.699 -1.1166 -0.8485  1.2218
 8102TIP3   OH245796   2.732   5.249   6.476 -0.5014  0.1029  0.3619
 8102TIP3    H145797   2.655   5.193   6.465 -0.4026 -0.3938  2.0034
 8102TIP3    H245798   2.805   5.197   6.443 -0.7727  0.2996 -0.5497
 8103TIP3   OH245799   5.756   3.503   6.357 -0.0446  0.0305 -0.1837
 8103TIP3    H145800   5.731   3.413   6.338 -0.0215  0.2296 -1.1847
 8103TIP3    H245801   5.825   3.496   6.423  0.3833 -0.7161 -0.7032
 8104TIP3   OH245802   5.250   5.152   3.561 -0.0333  0.0116 -0.1510
 8104TIP3    H145803   5.232   5.116   3.474  0.6065 -2.3178  0.6473
 8104TIP3    H245804   5.339   5.121   3.582  0.4663  1.9110  0.6655
 8105TIP3   OH245805   6.793   1.657   6.480 -0.2800 -0.6466 -0.3213
 8105TIP3    H145806   6.792   1.562   6.470 -0.6658 -0.6861  0.0749
 8105TIP3    H245807   6.702   1.683   6.469 -0.3018 -0.4096  0.3748
 8106TIP3   OH245808   0.768   0.888  16.090 -0.7382 -0.0399 -0.3356
 8106TIP3    H145809   0.840   0.944  16.120 -0.1106 -1.1206  0.2014
 8106TIP3    H245810   0.691   0.919  16.139  0.5114 -2.5998  3.4616
 8107TIP3   OH245811   4.085   1.132  12.939  0.4815  0.3515  0.0836
 8107TIP3    H145812   4.041   1.083  12.870  0.2783  2.2509 -1.1566
 8107TIP3    H245813   4.049   1.097  13.020 -2.4221  0.9948 -0.8677
 8108TIP3   OH245814   4.351   4.955   6.337  0.0727 -0.1069  0.2879
 8108TIP3    H145815   4.280   4.905   6.296  0.8739 -2.1699  1.3843
 8108TIP3    H245816   4.368   5.027   6.275 -1.6529 -0.6883 -0.9081
 8109TIP3   OH245817   2.637   2.977   3.951  0.4896 -0.7137 -0.4913
 8109TIP3    H145818   2.577   3.006   3.882  0.6766  0.3279 -0.2125
 8109TIP3    H245819   2.720   3.019   3.929  0.3513  0.2424  0.8168
 8110TIP3   OH245820   0.153   5.657  14.707  0.6109  0.2599  0.4964
 8110TIP3    H145821   0.142   5.684  14.616 -0.3161  0.1672  0.5786
 8110TIP3    H245822   0.083   5.594  14.722  0.4522  0.6515  1.4197
 8111TIP3   OH245823   3.550   4.199   0.437 -0.0456  0.4794 -0.0809
 8111TIP3    H145824   3.532   4.190   0.530  1.3138  1.4357  0.2907
 8111TIP3    H245825   3.480   4.150   0.394 -0.5308 -0.1848  1.4416
 8112TIP3   OH245826   2.531   4.906   0.886  0.3196 -0.2320 -0.2385
 8112TIP3    H145827   2.486   4.963   0.824  0.6580  0.3305  0.0262
 8112TIP3    H245828   2.617   4.946   0.898 -0.9195  1.5875  3.1572
 8113TIP3   OH245829   1.129   3.955  12.036  0.2515  0.0412 -0.2514
 8113TIP3    H145830   1.058   4.010  12.004  0.0684  1.3830  2.3405
 8113TIP3    H245831   1.185   4.014  12.087  2.6187 -1.2293 -1.2725
 8114TIP3   OH245832   5.210   2.488  11.148  0.0622  0.5505  0.3020
 8114TIP3    H145833   5.290   2.498  11.096 -0.9214 -0.8699 -1.5281
 8114TIP3    H245834   5.223   2.408  11.198 -0.3655  0.1134 -0.2819
 8115TIP3   OH245835   0.994   2.638   5.429  0.2744  0.1537 -0.6930
 8115TIP3    H145836   0.918   2.584   5.447 -0.4708  0.1623 -3.5116
 8115TIP3    H245837   1.066   2.576   5.417  0.3342  0.0427  0.2474
 8116TIP3   OH245838   0.360   2.138  13.909 -0.0199 -0.1724 -0.4157
 8116TIP3    H145839   0.394   2.059  13.951  0.4388 -0.5546 -1.5117
 8116TIP3    H245840   0.266   2.121  13.901 -0.0730 -0.2081  0.2036
 8117TIP3   OH245841   4.016   0.422  10.427  0.4639  0.6522 -0.2880
 8117TIP3    H145842   3.955   0.454  10.494  0.5330 -1.1985  0.6707
 8117TIP3    H245843   4.102   0.433  10.466  0.4639 -1.1575  0.2796
 8118TIP3   OH245844   3.916   2.714   0.070  0.2275  0.3416 -0.9158
 8118TIP3    H145845   3.966   2.795   0.071  0.8578 -0.0477 -0.7843
 8118TIP3    H245846   3.982   2.644   0.064 -0.0815 -0.3242  2.2840
 8119TIP3   OH245847   4.929   2.686   3.957  0.2622 -0.5610 -0.3091
 8119TIP3    H145848   4.948   2.592   3.968  1.6054 -0.1695  0.7747
 8119TIP3    H245849   5.007   2.722   3.915  0.0935  0.2294  0.0460
 8120TIP3   OH245850   2.580   2.888  15.068  0.2256 -0.2782 -0.2987
 8120TIP3    H145851   2.600   2.943  15.144 -2.0438 -1.3545  1.1182
 8120TIP3    H245852   2.568   2.951  14.996  1.1883  0.8356  0.4994
 8121TIP3   OH245853   1.884   1.009  13.635  0.3276  0.3575  0.5122
 8121TIP3    H145854   1.979   1.019  13.640  0.2916  0.5929  0.7630
 8121TIP3    H245855   1.850   1.093  13.667  0.0354  0.2569  0.4656
 8122TIP3   OH245856   2.350   4.116  12.394  0.0708  0.2520  0.1189
 8122TIP3    H145857   2.341   4.211  12.386  2.1601  0.3943 -0.7140
 8122TIP3    H245858   2.358   4.085  12.304  4.2213 -0.1706  0.5621
 8123TIP3   OH245859   1.210   5.879   3.902 -0.2127  0.3443  0.0874
 8123TIP3    H145860   1.213   5.792   3.862 -0.5471 -0.5127  1.8629
 8123TIP3    H245861   1.163   5.933   3.839 -0.9502 -1.0339 -0.5709
 8124TIP3   OH245862   0.843   3.544  16.340 -0.3904  0.0985  1.4330
 8124TIP3    H145863   0.925   3.591  16.327 -0.8557  0.4334 -0.5072
 8124TIP3    H245864   0.847   3.513  16.430  0.8625  2.0315  2.0679
 8125TIP3   OH245865   3.414   3.427  12.294 -0.0933 -0.0076  0.2500
 8125TIP3    H145866   3.363   3.446  12.215  0.8662 -0.2650 -0.4347
 8125TIP3    H245867   3.351   3.437  12.366 -0.7001  1.3386 -0.4453
 8126TIP3   OH245868   2.418   1.920  13.199 -0.3012  0.1194 -0.1384
 8126TIP3    H145869   2.495   1.891  13.152  0.2898 -0.3039  1.0641
 8126TIP3    H245870   2.448   1.995  13.250 -0.9042  0.5104 -0.3595
 8127TIP3   OH245871   6.505   3.832   5.323  0.3589  0.5061  0.2244
 8127TIP3    H145872   6.541   3.774   5.257  1.1764 -0.8614  1.8427
 8127TIP3    H245873   6.571   3.834   5.392 -0.6429  1.6262  1.1761
 8128TIP3   OH245874   4.139   1.511   2.559 -0.0442 -0.2032  0.3928
 8128TIP3    H145875   4.086   1.523   2.638  0.9164  1.9942  0.7532
 8128TIP3    H245876   4.115   1.585   2.503  2.3441  0.6433  0.4297
 8129TIP3   OH245877   3.045   4.687  16.573  0.2667  0.2284  0.2583
 8129TIP3    H145878   3.084   4.655  16.655 -0.2197  0.6357  0.6464
 8129TIP3    H245879   3.083   4.774  16.561  0.0886  0.3006  0.2205
 8130TIP3   OH245880   3.916   5.909  11.320 -0.3710 -0.1793 -0.1434
 8130TIP3    H145881   3.954   5.906  11.408  1.3556 -1.3094 -0.8805
 8130TIP3    H245882   3.920   5.819  11.289 -3.0022 -0.1782 -0.5713
 8131TIP3   OH245883   4.013   3.188  12.545  0.5548 -0.3845  0.1504
 8131TIP3    H145884   3.918   3.176  12.550  0.7224 -1.3575  1.1579
 8131TIP3    H245885   4.031   3.194  12.451 -0.4211 -0.8446 -0.0742
 8132TIP3   OH245886   0.658   4.609  15.194  0.0107 -0.4182  0.0778
 8132TIP3    H145887   0.700   4.628  15.110 -0.8788 -0.6716 -0.4235
 8132TIP3    H245888   0.720   4.551  15.238  0.6108 -0.0566 -0.2816
 8133TIP3   OH245889   4.833   0.232   2.762  0.6510 -0.1312 -0.3028
 8133TIP3    H145890   4.838   0.157   2.703  1.2400  0.8240 -1.4799
 8133TIP3    H245891   4.922   0.239   2.798  0.3864 -0.4887  0.4338
 8134TIP3   OH245892   4.892   0.988   2.455 -0.2649  0.2235 -0.6321
 8134TIP3    H145893   4.903   0.920   2.522  2.0298 -0.7813 -1.9804
 8134TIP3    H245894   4.918   1.069   2.498  3.5407 -0.7622 -0.9687
 8135TIP3   OH245895   4.818   4.563   0.489 -0.1555  0.2654 -0.0618
 8135TIP3    H145896   4.793   4.595   0.403 -1.6826 -1.7308 -0.3884
 8135TIP3    H245897   4.808   4.468   0.483  0.5382  0.0318  2.0627
 8136TIP3   OH245898   5.085   5.283   3.050  0.4381 -0.0166 -0.2496
 8136TIP3    H145899   5.172   5.253   3.022  2.2241  3.3665  1.2465
 8136TIP3    H245900   5.073   5.246   3.137 -0.6865 -2.3847 -1.3861
 8137TIP3   OH245901   0.882   3.367   4.276  1.1011 -0.3002  0.1484
 8137TIP3    H145902   0.883   3.374   4.181 -0.8145  2.7095  0.2896
 8137TIP3    H245903   0.793   3.338   4.297  1.0523  0.4991  1.0920
 8138TIP3   OH245904   6.391   6.567   0.079  0.6058 -0.3077 -0.2040
 8138TIP3    H145905   6.307   6.547   0.038  0.4332 -0.4674  0.2204
 8138TIP3    H245906   6.426   6.639   0.027  0.2721 -0.3363 -0.4738
 8139TIP3   OH245907   0.777   3.479   1.435 -0.0590 -0.4142 -0.4308
 8139TIP3    H145908   0.757   3.400   1.484  2.6376  0.3823  2.0897
 8139TIP3    H245909   0.697   3.531   1.440 -1.1224 -2.0289 -0.2700
 8140TIP3   OH245910   4.958   2.859  15.929 -0.0894 -0.0240 -0.0218
 8140TIP3    H145911   4.930   2.901  15.848  0.2429  0.0585 -0.0959
 8140TIP3    H245912   5.054   2.860  15.924 -0.0795 -1.2439 -0.2579
 8141TIP3   OH245913   0.299   2.393   4.014 -0.0370 -0.2432 -0.0135
 8141TIP3    H145914   0.272   2.323   4.074 -0.1838 -1.3687 -1.3758
 8141TIP3    H245915   0.395   2.394   4.020 -0.0328 -0.5783 -0.0139
 8142TIP3   OH245916   1.420   5.029   2.350  0.1445 -0.6098  0.5750
 8142TIP3    H145917   1.343   5.042   2.295 -0.2273  1.5685  1.5647
 8142TIP3    H245918   1.495   5.037   2.290 -0.3490 -1.7366 -0.2074
 8143TIP3   OH245919   3.110   3.702   3.995 -0.3494  0.5483  0.6181
 8143TIP3    H145920   3.176   3.706   4.064  0.1217 -0.2392  0.2241
 8143TIP3    H245921   3.116   3.613   3.962  0.4835  1.3696 -1.4857
 8144TIP3   OH245922   6.075   4.118   6.158  0.3849 -0.2189 -0.0367
 8144TIP3    H145923   6.048   4.086   6.244 -0.2936 -1.6951 -0.7828
 8144TIP3    H245924   6.038   4.206   6.153 -1.1484 -0.8203  0.4454
 8145TIP3   OH245925   4.298   4.149  13.758 -0.2898 -0.2567  0.3612
 8145TIP3    H145926   4.319   4.143  13.851  0.3712  1.9769  0.3926
 8145TIP3    H245927   4.367   4.099  13.715  1.9068  2.2447  0.8309
 8146TIP3   OH245928   0.405   3.993  12.105 -0.0455  0.0758  0.7041
 8146TIP3    H145929   0.438   4.083  12.102  0.4801 -0.0893  1.4715
 8146TIP3    H245930   0.429   3.956  12.021 -3.1905  1.6681 -0.9954
 8147TIP3   OH245931   1.112   3.469  12.349  0.4485  0.1267  0.1196
 8147TIP3    H145932   1.146   3.417  12.421 -1.0960  1.0589  1.5518
 8147TIP3    H245933   1.093   3.405  12.280 -3.6081 -1.6058  2.6752
 8148TIP3   OH245934   3.464   6.169  12.251 -0.3223  0.0573 -0.3888
 8148TIP3    H145935   3.496   6.137  12.335  1.8275 -0.5925 -1.3999
 8148TIP3    H245936   3.521   6.126  12.186 -1.3902  1.1782 -2.1153
 8149TIP3   OH245937   0.794   0.945   1.660 -0.4608 -0.3692  0.6737
 8149TIP3    H145938   0.811   0.985   1.574  1.0756 -0.2923  0.9909
 8149TIP3    H245939   0.792   0.851   1.643 -0.2963 -0.3473  0.5304
 8150TIP3   OH245940   1.902   2.722   2.753  0.2857 -0.1823 -0.4456
 8150TIP3    H145941   1.907   2.744   2.846  1.3708 -1.5066 -0.1777
 8150TIP3    H245942   1.928   2.630   2.748  1.0151  0.0909 -2.1379
 8151TIP3   OH245943   3.473   5.653   1.002 -0.5386 -0.1484 -0.4586
 8151TIP3    H145944   3.513   5.612   0.925 -1.2976  0.9873 -1.4775
 8151TIP3    H245945   3.382   5.667   0.977 -0.1708  2.7555 -0.4195
 8152TIP3   OH245946   0.435   1.507  13.400  0.1621 -0.7657 -0.2183
 8152TIP3    H145947   0.342   1.487  13.406  0.0363  0.1194  0.8791
 8152TIP3    H245948   0.441   1.602  13.405  1.1803 -0.8584  0.7462
 8153TIP3   OH245949   3.803   5.188  17.179 -0.2282  0.8683 -0.4786
 8153TIP3    H145950   3.731   5.227  17.131  0.2715  1.9984 -0.3126
 8153TIP3    H245951   3.769   5.174  17.267  0.0898  2.4016 -0.1038
 8154TIP3   OH245952   1.860   1.865   0.942 -0.2731 -0.3403 -0.0524
 8154TIP3    H145953   1.954   1.852   0.935  0.1062  1.7070  1.0606
 8154TIP3    H245954   1.846   1.895   1.032 -1.6269  2.3891 -1.1189
 8155TIP3   OH245955   3.305   5.356  12.089  0.3248 -0.2192  0.5958
 8155TIP3    H145956   3.262   5.441  12.091 -0.5719 -0.6863  2.2172
 8155TIP3    H245957   3.295   5.326  11.999 -1.5192  0.3117  0.6119
 8156TIP3   OH245958   6.240   1.750   0.786  0.2530  0.5274 -0.3132
 8156TIP3    H145959   6.278   1.662   0.792  1.3187  1.1216  2.2297
 8156TIP3    H245960   6.287   1.792   0.714  2.3459  0.2145  0.8310
 8157TIP3   OH245961   2.393   5.103  17.034  0.2678 -0.3338 -0.0585
 8157TIP3    H145962   2.322   5.148  16.987  2.5275  0.4417 -2.8530
 8157TIP3    H245963   2.371   5.010  17.025 -1.6555 -0.0370  1.2237
 8158TIP3   OH245964   6.290   5.985   1.207 -0.1865  0.3012  0.5142
 8158TIP3    H145965   6.308   6.079   1.205 -0.9444  0.4368 -0.3703
 8158TIP3    H245966   6.222   5.973   1.141 -0.3155 -0.8239  0.8534
 8159TIP3   OH245967   5.100   0.083   1.448 -0.6593  0.1823 -0.2138
 8159TIP3    H145968   5.179   0.040   1.481 -0.8486 -0.7547 -0.9752
 8159TIP3    H245969   5.120   0.177   1.453  0.8197 -0.0660 -1.1959
 8160TIP3   OH245970   5.241   6.664   2.042 -0.8240  0.0917  0.0347
 8160TIP3    H145971   5.281   6.579   2.024  1.4158  1.4570 -1.7627
 8160TIP3    H245972   5.169   6.671   1.979 -0.5642 -0.1768 -0.2927
 8161TIP3   OH245973   3.976   3.912   1.276  0.5288  0.1836  0.3277
 8161TIP3    H145974   3.916   3.918   1.201  1.0110  2.9801  0.1125
 8161TIP3    H245975   4.011   3.823   1.271 -0.1952 -0.0143 -2.2088
 8162TIP3   OH245976   0.754   6.539   2.796 -0.1753 -0.5044 -0.1110
 8162TIP3    H145977   0.814   6.612   2.810 -1.2934  0.4963 -0.5181
 8162TIP3    H245978   0.774   6.478   2.868  0.8434  0.1348  0.1621
 8163TIP3   OH245979   5.879   4.005  15.602  0.4792  0.5385  0.0140
 8163TIP3    H145980   5.832   4.038  15.526 -2.0799 -0.5270  1.0499
 8163TIP3    H245981   5.849   3.915  15.612  0.3520  0.8100  2.5626
 8164TIP3   OH245982   5.596   1.548   2.647 -0.0958  0.0735  0.1674
 8164TIP3    H145983   5.653   1.565   2.722 -1.1537  0.9302  0.8014
 8164TIP3    H245984   5.570   1.457   2.656  1.0404 -0.2867 -0.0517
 8165TIP3   OH245985   5.522   5.401   4.548 -0.1141  0.4505 -0.6017
 8165TIP3    H145986   5.501   5.369   4.460 -1.4867  1.3920 -0.6228
 8165TIP3    H245987   5.595   5.461   4.534 -1.6309  2.1568 -1.3857
 8166TIP3   OH245988   5.859   0.173   1.184 -0.2915  0.6766  0.2074
 8166TIP3    H145989   5.829   0.138   1.100  0.0398  0.2188  0.2806
 8166TIP3    H245990   5.790   0.149   1.246  0.8840 -1.6180  0.6550
 8167TIP3   OH245991   6.424   0.811   0.421  0.4025  0.0083  0.1958
 8167TIP3    H145992   6.338   0.843   0.395 -0.5306 -2.5094  0.0252
 8167TIP3    H245993   6.479   0.889   0.425 -1.7458  1.5788 -0.2365
 8168TIP3   OH245994   1.369   6.643   3.750  0.8114  0.0876 -0.1783
 8168TIP3    H145995   1.401   6.705   3.685  1.7107 -1.1270 -0.9053
 8168TIP3    H245996   1.447   6.598   3.782  0.2276 -0.3032  0.7236
 8169TIP3   OH245997   5.121   5.394   3.466 -0.9113 -0.3276  0.1686
 8169TIP3    H145998   5.146   5.329   3.532 -1.7090 -1.0997 -0.2695
 8169TIP3    H245999   5.185   5.383   3.396  0.9635  1.6526  1.5161
 8170TIP3   OH246000   5.426   1.367  12.516  0.5191 -0.0209 -0.4985
 8170TIP3    H146001   5.368   1.340  12.445  1.0922  0.1541 -1.0412
 8170TIP3    H246002   5.500   1.307  12.510  1.5935  1.3767 -1.4305
 8171TIP3   OH246003   2.166   5.505  11.237 -0.1362 -0.0811  0.1893
 8171TIP3    H146004   2.140   5.413  11.246  2.0058 -0.7702 -0.3012
 8171TIP3    H246005   2.088   5.549  11.203 -0.8025 -1.9584 -0.7577
 8172TIP3   OH246006   1.055   2.530  15.930 -0.1297  0.7663  0.5831
 8172TIP3    H146007   1.121   2.539  15.999 -1.1189 -0.2214  1.6727
 8172TIP3    H246008   0.974   2.562  15.970 -0.8769 -0.5745  0.1620
 8173TIP3   OH246009   2.156   3.952  13.368  0.0262 -0.4201 -0.5581
 8173TIP3    H146010   2.230   4.004  13.337 -2.3820  3.0338 -0.8368
 8173TIP3    H246011   2.172   3.941  13.461  0.2989  1.4389 -0.3540
 8174TIP3   OH246012   4.021   2.321   3.681 -0.6093  0.2913 -0.3621
 8174TIP3    H146013   3.974   2.310   3.763  0.7873 -1.4174  0.2457
 8174TIP3    H246014   4.091   2.384   3.700 -0.0358 -0.4088 -0.1066
 8175TIP3   OH246015   4.074   6.638  15.075  0.1660 -0.4484  0.0452
 8175TIP3    H146016   4.008   6.569  15.089 -0.7949  0.8163  2.0598
 8175TIP3    H246017   4.138   6.624  15.145 -0.2886  0.9663  0.7563
 8176TIP3   OH246018   2.488   0.455   4.956  0.2343  0.3915  0.1639
 8176TIP3    H146019   2.570   0.501   4.936  1.1036 -0.5578  1.4031
 8176TIP3    H246020   2.497   0.431   5.049  1.1767 -4.9103 -1.1398
 8177TIP3   OH246021   0.694   0.595  16.189 -0.2967  0.2303 -0.4741
 8177TIP3    H146022   0.620   0.552  16.146 -0.4843  0.5203 -0.4413
 8177TIP3    H246023   0.681   0.688  16.171 -0.8080  0.4226  0.8828
 8178TIP3   OH246024   6.667   6.662   5.220 -0.0904  0.0052  0.3629
 8178TIP3    H146025   6.600   6.728   5.198 -1.3026 -0.8023  1.5995
 8178TIP3    H246026   6.685   6.619   5.137 -0.8398  0.4728 -0.0509
 8179TIP3   OH246027   6.418   4.176   3.586 -0.2095  1.0139 -0.0198
 8179TIP3    H146028   6.461   4.217   3.511 -0.0039  0.6318 -0.1113
 8179TIP3    H246029   6.325   4.176   3.564 -0.0056 -0.4354 -0.9278
 8180TIP3   OH246030   1.662   3.210  16.321  0.0994 -0.5590 -0.2976
 8180TIP3    H146031   1.720   3.275  16.281  0.3740 -0.7026 -0.1402
 8180TIP3    H246032   1.580   3.216  16.272 -0.2191  0.6172  0.3680
 8181TIP3   OH246033   1.503   6.545  12.328  0.1062  0.1397 -0.1666
 8181TIP3    H146034   1.473   6.457  12.352  0.1063  0.2765  0.3401
 8181TIP3    H246035   1.458   6.564  12.246  1.0034 -0.8058 -0.8960
 8182TIP3   OH246036   5.166   0.984   1.782 -0.1495  0.3029 -0.3236
 8182TIP3    H146037   5.120   1.000   1.700  1.2554  0.2335 -1.1389
 8182TIP3    H246038   5.233   0.919   1.761  0.3194  0.3857  0.8339
 8183TIP3   OH246039   2.985   6.263  15.478  0.2644  0.9628  0.2341
 8183TIP3    H146040   2.976   6.358  15.478  0.6589  1.0150 -1.4716
 8183TIP3    H246041   2.896   6.230  15.487  0.1711  1.4913  1.2830
 8184TIP3   OH246042   4.735   2.165   3.204  0.1358  0.1924 -0.3598
 8184TIP3    H146043   4.742   2.088   3.147 -0.2994  0.7168 -1.1315
 8184TIP3    H246044   4.712   2.129   3.290  1.3199 -0.6475 -0.3830
 8185TIP3   OH246045   2.137   4.020   6.096  0.2569 -0.2866 -0.2076
 8185TIP3    H146046   2.196   3.965   6.147  0.7890  0.0112 -0.4925
 8185TIP3    H246047   2.194   4.088   6.059 -0.3209  0.2079 -0.1960
 8186TIP3   OH246048   4.518   4.325  12.659 -0.1167 -0.0744  0.3600
 8186TIP3    H146049   4.578   4.261  12.620  0.3599  0.4195  0.2764
 8186TIP3    H246050   4.552   4.410  12.630  0.2776  0.3106  1.8969
 8187TIP3   OH246051   0.215   6.820   4.343 -0.0636  0.2821  0.3708
 8187TIP3    H146052   0.152   6.878   4.385 -0.9395 -0.8802  0.6660
 8187TIP3    H246053   0.258   6.875   4.277 -1.5567  1.0020 -0.0151
 8188TIP3   OH246054   2.609   1.921   2.436 -0.2330  0.0868 -0.2457
 8188TIP3    H146055   2.556   1.935   2.513  0.1696 -0.8491  0.2152
 8188TIP3    H246056   2.548   1.929   2.362 -0.7016  0.5195  0.1904
 8189TIP3   OH246057   3.440   0.688  13.222 -0.2350  0.0545  0.0457
 8189TIP3    H146058   3.375   0.753  13.197  0.3138  0.7916  0.5122
 8189TIP3    H246059   3.428   0.676  13.316  2.0498  2.2048  0.6730
 8190TIP3   OH246060   1.660   4.501   0.944 -0.8743 -0.6448 -0.3599
 8190TIP3    H146061   1.600   4.568   0.913  0.3333 -1.3769 -4.6110
 8190TIP3    H246062   1.608   4.420   0.947 -1.0968 -0.4911 -0.0636
 8191TIP3   OH246063   2.646   4.330  13.230 -0.2014  0.6697  0.5436
 8191TIP3    H146064   2.614   4.389  13.162 -0.1009 -1.2479 -1.2085
 8191TIP3    H246065   2.605   4.246  13.211  3.6527 -1.1846 -0.1217
 8192TIP3   OH246066   5.599   3.433  16.670  0.2772  0.3156  0.2566
 8192TIP3    H146067   5.565   3.375  16.739 -0.0650 -0.7411 -0.7703
 8192TIP3    H246068   5.594   3.521  16.707 -2.2614  0.0353  0.6705
 8193TIP3   OH246069   0.598   0.606   3.820 -0.0449  0.0824 -0.6497
 8193TIP3    H146070   0.505   0.619   3.842  0.0256 -2.3239  1.2806
 8193TIP3    H246071   0.603   0.515   3.792  1.8940 -0.0316  0.0500
 8194TIP3   OH246072   2.585   2.339   1.047  0.3713 -0.4797  0.3003
 8194TIP3    H146073   2.612   2.383   0.966 -0.0195  0.3111  0.5940
 8194TIP3    H246074   2.514   2.281   1.020 -0.3232  0.4018  0.2126
 8195TIP3   OH246075   2.569   1.795  10.809 -0.3755  0.2075 -0.3616
 8195TIP3    H146076   2.511   1.782  10.733  0.7631  0.7789 -1.3490
 8195TIP3    H246077   2.564   1.889  10.827 -1.0201 -0.0042  0.5893
 8196TIP3   OH246078   5.489   4.821   0.041 -0.4564  0.4894  0.5107
 8196TIP3    H146079   5.555   4.766  -0.002 -1.2955 -0.1071 -0.0215
 8196TIP3    H246080   5.455   4.877  -0.029  1.1062  2.4139  1.2510
 8197TIP3   OH246081   1.906   1.119  14.347 -0.6196 -0.9858  0.6818
 8197TIP3    H146082   1.881   1.195  14.400  0.2774 -1.0571  1.2295
 8197TIP3    H246083   1.980   1.081  14.394  0.0833 -1.1584 -0.5377
 8198TIP3   OH246084   0.635   3.590   3.913  0.1850  0.7795 -0.1670
 8198TIP3    H146085   0.607   3.505   3.880 -2.1496  1.1369  0.8385
 8198TIP3    H246086   0.687   3.627   3.841 -1.1189 -0.3077 -1.7017
 8199TIP3   OH246087   1.363   0.696   4.795  0.0875 -0.1515 -0.0749
 8199TIP3    H146088   1.385   0.633   4.864  0.5642 -0.0081 -0.0957
 8199TIP3    H246089   1.432   0.762   4.800 -0.7567  0.7106  0.3637
 8200TIP3   OH246090   5.199   2.360   3.313 -0.3642  0.2601  0.0217
 8200TIP3    H146091   5.243   2.395   3.235 -1.8800 -0.7947 -1.3284
 8200TIP3    H246092   5.147   2.434   3.346 -0.4489  0.4413 -0.5109
 8201TIP3   OH246093   5.945   2.870   1.298 -0.3431  0.2385  0.0082
 8201TIP3    H146094   5.918   2.890   1.387  0.9026 -0.9618  0.6760
 8201TIP3    H246095   6.024   2.923   1.284  2.0022 -2.7569  1.2017
 8202TIP3   OH246096   4.510   6.641   0.468 -0.3829  0.2242 -0.1033
 8202TIP3    H146097   4.485   6.692   0.391  0.3019  1.1149  0.2392
 8202TIP3    H246098   4.578   6.582   0.437 -1.6170 -0.9153 -0.6383
 8203TIP3   OH246099   1.938   2.967  16.933 -0.3558  0.0320  0.3601
 8203TIP3    H146100   1.892   3.043  16.969  0.0398  0.2058  0.4908
 8203TIP3    H246101   2.027   2.974  16.967 -0.0976 -0.0407 -0.2987
 8204TIP3   OH246102   1.811   1.809   0.108  0.7845 -0.4261  0.2297
 8204TIP3    H146103   1.774   1.721   0.105  0.1610 -0.2546  2.0156
 8204TIP3    H246104   1.736   1.868   0.104  1.1603  0.0192 -0.4202
 8205TIP3   OH246105   5.028   0.970   2.982  0.1055  0.2000 -0.3957
 8205TIP3    H146106   5.032   0.882   2.944 -0.4658 -0.0476  0.1003
 8205TIP3    H246107   4.983   1.023   2.916 -0.6859 -0.1763 -0.1607
 8206TIP3   OH246108   6.423   2.183   2.545  0.5375  0.4679 -0.5212
 8206TIP3    H146109   6.360   2.192   2.617  2.7967  2.9791  1.2377
 8206TIP3    H246110   6.404   2.257   2.488  1.0387  0.4657 -0.6901
 8207TIP3   OH246111   2.519   4.101   4.770 -0.0173  0.4487  0.4783
 8207TIP3    H146112   2.455   4.031   4.758 -0.4146  0.9354 -0.2891
 8207TIP3    H246113   2.565   4.106   4.687  0.8458  0.2751  0.9479
 8208TIP3   OH246114   1.481   6.465  15.822 -0.3879  0.2034  0.3069
 8208TIP3    H146115   1.528   6.522  15.761 -0.3405  0.7644  0.8583
 8208TIP3    H246116   1.530   6.383  15.822 -0.0750  0.3899  0.0163
 8209TIP3   OH246117   2.651   0.017  12.321 -0.1602  0.2769 -0.1704
 8209TIP3    H146118   2.561  -0.011  12.301 -0.6679  0.9030  1.1667
 8209TIP3    H246119   2.706  -0.042  12.270 -1.3388 -0.0856 -1.0451
 8210TIP3   OH246120   1.754   1.326   3.727  0.1006  0.1988  0.1474
 8210TIP3    H146121   1.705   1.249   3.699 -0.8214  0.2258  1.6334
 8210TIP3    H246122   1.844   1.295   3.736  0.0636 -0.2551 -1.0197
 8211TIP3   OH246123   6.375   0.875  16.038  0.2129  0.9140 -0.1544
 8211TIP3    H146124   6.457   0.870  16.086  0.6655  2.3056 -0.7542
 8211TIP3    H246125   6.362   0.969  16.021 -2.1236  0.8473  1.0251
 8212TIP3   OH246126   0.176   1.441  13.079 -0.0289  0.4398 -0.4589
 8212TIP3    H146127   0.172   1.519  13.023  0.0719  0.0313 -1.0360
 8212TIP3    H246128   0.183   1.476  13.167 -2.9498  1.1157 -0.4630
 8213TIP3   OH246129   2.593   5.985  17.182 -0.2820  0.6003  0.3928
 8213TIP3    H146130   2.533   6.054  17.210  2.0405  1.7344  2.8742
 8213TIP3    H246131   2.576   5.912  17.241  1.2278  1.1907  1.5884
 8214TIP3   OH246132   5.990   6.194  16.690 -0.0535  0.2454 -0.3597
 8214TIP3    H146133   6.015   6.274  16.736 -0.7398 -0.2360  0.8665
 8214TIP3    H246134   5.945   6.141  16.756  3.2642 -2.5912 -0.1845
 8215TIP3   OH246135   1.443   6.500  17.248  0.2517 -0.0697 -0.4173
 8215TIP3    H146136   1.352   6.475  17.262  0.2668  0.3192  0.4095
 8215TIP3    H246137   1.439   6.594  17.230  0.3967 -0.2426 -1.4010
 8216TIP3   OH246138   6.600   0.784   6.501 -0.0866  0.5170 -1.0283
 8216TIP3    H146139   6.561   0.799   6.414  2.3096  1.1902 -2.0291
 8216TIP3    H246140   6.637   0.869   6.525 -1.4401  0.5290  1.0306
 8217TIP3   OH246141   5.383   2.804   5.984 -0.3930 -0.1179 -0.5068
 8217TIP3    H146142   5.300   2.843   6.010  0.8403  0.9300  2.0396
 8217TIP3    H246143   5.438   2.878   5.960  0.4931 -0.6140 -0.0417
 8218TIP3   OH246144   0.655   4.566  13.623 -0.1791  0.3191 -0.0779
 8218TIP3    H146145   0.583   4.537  13.568 -1.2862  1.0185  0.9871
 8218TIP3    H246146   0.657   4.661  13.612 -0.0228  0.4000  0.6212
 8219TIP3   OH246147   4.933   0.273   4.705 -0.1123  0.2753 -0.6008
 8219TIP3    H146148   5.010   0.311   4.662 -0.7415  2.6323  0.2579
 8219TIP3    H246149   4.861   0.291   4.644 -0.4065  0.4389 -0.2121
 8220TIP3   OH246150   0.164   2.988  14.057 -0.5188 -0.1472  0.0537
 8220TIP3    H146151   0.194   2.899  14.076 -1.6050 -0.6111 -0.3215
 8220TIP3    H246152   0.219   3.045  14.112 -0.7457 -1.1501  1.3519
 8221TIP3   OH246153   4.150   3.513  11.688 -0.0130 -0.4134  0.4180
 8221TIP3    H146154   4.137   3.453  11.615 -1.8663  0.9255 -0.4007
 8221TIP3    H246155   4.115   3.467  11.764  2.0062 -1.8469  0.5153
 8222TIP3   OH246156   0.491   6.032   5.301 -1.0572  0.3853 -0.3871
 8222TIP3    H146157   0.486   6.101   5.234 -1.2113  0.0982 -0.6770
 8222TIP3    H246158   0.422   5.971   5.276 -0.5791 -0.1376 -0.4283
 8223TIP3   OH246159   1.023   6.636   0.959 -0.5568 -0.0289  0.2954
 8223TIP3    H146160   0.958   6.648   0.890  0.1144 -0.6920 -0.4564
 8223TIP3    H246161   1.047   6.544   0.954  0.2575  0.1539  0.7302
 8224TIP3   OH246162   6.754   6.101  10.534  0.5647  0.1470  0.0102
 8224TIP3    H146163   6.678   6.044  10.524  1.0598 -0.6506  0.7679
 8224TIP3    H246164   6.726   6.184  10.495 -0.6915 -0.1331  0.2783
 8225TIP3   OH246165   1.218   4.778  17.054  0.4228 -0.1659  0.3239
 8225TIP3    H146166   1.251   4.807  16.969  0.4818  2.2358  1.1235
 8225TIP3    H246167   1.236   4.851  17.113 -1.4881 -0.9529  1.9480
 8226TIP3   OH246168   5.746   5.757   1.867  0.2327  0.1108  0.3460
 8226TIP3    H146169   5.715   5.680   1.915 -1.6763  0.8240  0.3158
 8226TIP3    H246170   5.758   5.823   1.935  0.2085  0.2891  0.1752
 8227TIP3   OH246171   2.455   2.664  14.930  0.1230 -0.3592 -0.0124
 8227TIP3    H146172   2.481   2.740  14.982  0.1841 -0.8597  0.6959
 8227TIP3    H246173   2.537   2.624  14.903  0.0970 -0.7496  0.4713
 8228TIP3   OH246174   0.248   1.655  12.913  0.2513 -0.1508 -0.3544
 8228TIP3    H146175   0.329   1.646  12.964  0.3375  3.0614  0.1804
 8228TIP3    H246176   0.276   1.693  12.830 -0.8853  3.0975  0.6628
 8229TIP3   OH246177   3.074   0.676  10.798 -0.2712  0.2078 -0.1276
 8229TIP3    H146178   3.057   0.620  10.722 -0.3156 -0.6862  0.5377
 8229TIP3    H246179   2.994   0.670  10.850 -0.0994  0.5353  0.1741
 8230TIP3   OH246180   3.411   5.924  13.535 -0.0505  0.4596  0.1954
 8230TIP3    H146181   3.336   5.926  13.476 -1.0494 -0.3706  1.3914
 8230TIP3    H246182   3.485   5.896  13.480 -1.1565 -1.2261 -0.4735
 8231TIP3   OH246183   6.816   4.985  11.172 -0.1082  0.3508  0.0815
 8231TIP3    H146184   6.819   4.933  11.092  0.4573  2.2509 -1.1527
 8231TIP3    H246185   6.744   4.947  11.223 -1.6389  0.2619 -2.1054
 8232TIP3   OH246186   2.805   6.418  14.666  0.6957  0.3331  0.1823
 8232TIP3    H146187   2.824   6.325  14.673 -0.2016 -0.1087 -2.6922
 8232TIP3    H246188   2.886   6.457  14.634 -0.2390 -0.1514 -2.8956
 8233TIP3   OH246189   6.106   1.919   3.025 -0.1995  0.3894  0.8051
 8233TIP3    H146190   6.033   1.864   2.996 -0.6970  0.3968  2.0392
 8233TIP3    H246191   6.093   2.002   2.978  0.0328 -0.2166 -0.3444
 8234TIP3   OH246192   0.545   2.598  14.344 -0.3382 -0.4025  0.2209
 8234TIP3    H146193   0.514   2.688  14.341  0.7330 -0.0339  0.0559
 8234TIP3    H246194   0.618   2.596  14.283 -0.2075 -1.3278  0.4039
 8235TIP3   OH246195   1.936   6.314   3.698  0.6889  0.0673  0.0777
 8235TIP3    H146196   1.988   6.394   3.698  0.7454  0.0349  0.7839
 8235TIP3    H246197   1.975   6.261   3.768 -1.6124  0.9046  2.0601
 8236TIP3   OH246198   0.178   5.498   1.160 -0.1148  0.1195  0.2215
 8236TIP3    H146199   0.152   5.442   1.088 -0.2058  0.0439  0.3128
 8236TIP3    H246200   0.125   5.577   1.150  1.5906  1.1214 -1.1983
 8237TIP3   OH246201   6.330   5.085   2.552 -0.1949 -0.5415  0.6597
 8237TIP3    H146202   6.413   5.107   2.593  0.7246 -1.9007 -0.4453
 8237TIP3    H246203   6.312   5.159   2.493  1.2979 -1.2534 -0.6971
 8238TIP3   OH246204   0.167   0.239  12.688  0.3027 -0.1195  0.0222
 8238TIP3    H146205   0.078   0.265  12.663  0.6322 -0.6879 -1.8444
 8238TIP3    H246206   0.213   0.323  12.700 -0.0082  0.1895 -0.8529
 8239TIP3   OH246207   2.471   6.819  17.234  0.2648  0.7087 -0.0662
 8239TIP3    H146208   2.421   6.840  17.156  0.6980  0.1676 -0.4926
 8239TIP3    H246209   2.442   6.731  17.259  0.9301  0.4175 -0.2785
 8240TIP3   OH246210   3.895   3.374   4.497  0.1263 -0.4931  0.2336
 8240TIP3    H146211   3.830   3.443   4.484 -0.4212 -0.7640  1.5178
 8240TIP3    H246212   3.952   3.408   4.566  0.9486 -0.5517 -0.4064
 8241TIP3   OH246213   2.639   0.863  17.099  0.0105  0.6276  0.4363
 8241TIP3    H146214   2.690   0.837  17.022  1.0490  1.4741  0.8278
 8241TIP3    H246215   2.698   0.849  17.173 -0.4274  1.3147  0.9235
 8242TIP3   OH246216   1.126   0.010  11.262 -0.2149  0.3890  0.1600
 8242TIP3    H146217   1.137   0.077  11.328  0.7428 -1.1657  1.6306
 8242TIP3    H246218   1.192   0.030  11.195 -1.5984  2.3155 -0.6512
 8243TIP3   OH246219   5.321   3.829   6.102 -0.1283  0.2305  0.7590
 8243TIP3    H146220   5.282   3.742   6.101  1.0234 -0.2908  0.4818
 8243TIP3    H246221   5.301   3.866   6.015  1.7021 -0.8243 -0.1499
 8244TIP3   OH246222   5.484   4.276   3.817  0.2835 -0.3272  0.2690
 8244TIP3    H146223   5.418   4.228   3.768  0.0889 -0.6233  0.8178
 8244TIP3    H246224   5.554   4.213   3.831  0.7098 -0.0049 -0.3417
 8245TIP3   OH246225   3.672   4.424  16.326  0.4090  0.2221  0.0727
 8245TIP3    H146226   3.587   4.434  16.283 -0.2536 -0.8115  1.1487
 8245TIP3    H246227   3.732   4.404  16.254 -0.3292  0.5145 -0.6361
 8246TIP3   OH246228   1.847   2.880  11.305 -0.1871 -0.0623  0.0493
 8246TIP3    H146229   1.848   2.966  11.264  0.0295  0.6738  1.5304
 8246TIP3    H246230   1.930   2.840  11.280  0.6744  1.0322  1.0982
 8247TIP3   OH246231   0.465   1.390   0.005 -0.2674 -0.4977  0.1047
 8247TIP3    H146232   0.549   1.406  -0.038 -0.9600 -0.3211 -1.1876
 8247TIP3    H246233   0.489   1.341   0.084  0.8920 -2.3208 -1.3068
 8248TIP3   OH246234   4.385   6.556   4.849  0.3987  0.2696 -0.0781
 8248TIP3    H146235   4.310   6.589   4.898  0.6037  1.7865 -0.7505
 8248TIP3    H246236   4.441   6.515   4.915 -0.3784  0.3280  0.6219
 8249TIP3   OH246237   4.248   3.855  15.581 -0.2492  0.2231  0.4703
 8249TIP3    H146238   4.291   3.824  15.502  1.7653  0.8773  1.2846
 8249TIP3    H246239   4.218   3.776  15.625  2.8407 -0.4731  1.4029
 8250TIP3   OH246240   0.198   0.182  12.384  0.1034  0.0117  0.4121
 8250TIP3    H146241   0.194   0.198  12.478 -1.7615 -0.1042  0.3741
 8250TIP3    H246242   0.253   0.253  12.350  0.2150  0.4539  1.4933
 8251TIP3   OH246243   1.419   6.518  12.926 -0.9524  0.1755 -0.0030
 8251TIP3    H146244   1.333   6.559  12.928 -1.5682 -1.1109  0.2721
 8251TIP3    H246245   1.468   6.561  12.997 -1.8294 -0.0925  0.7681
 8252TIP3   OH246246   4.951   4.856  16.675  0.1252  0.4395 -0.5816
 8252TIP3    H146247   4.906   4.848  16.591  0.8701  1.1913 -1.0536
 8252TIP3    H246248   4.997   4.773  16.687 -0.1099  0.2745 -0.8312
 8253TIP3   OH246249   2.053   6.720  15.359 -0.3072 -0.1582  0.2297
 8253TIP3    H146250   2.124   6.682  15.411 -0.8251 -0.6802  0.5642
 8253TIP3    H246251   2.050   6.665  15.281  0.7645  0.8996 -0.5624
 8254TIP3   OH246252   4.063   5.458   6.207  0.1792  0.2459  0.6680
 8254TIP3    H146253   4.144   5.491   6.167 -0.0638  0.3922  0.2931
 8254TIP3    H246254   4.091   5.423   6.291  0.5417  0.8270  0.7923
 8255TIP3   OH246255   0.808   1.198   6.690  0.3047 -0.0450  0.1685
 8255TIP3    H146256   0.778   1.211   6.780  0.8558 -0.5615  0.4299
 8255TIP3    H246257   0.728   1.188   6.639  0.0132 -1.1502  0.8237
 8256TIP3   OH246258   4.863   3.100   4.113  0.3396  0.1473  0.3388
 8256TIP3    H146259   4.837   3.049   4.036 -2.1013  1.4552  0.2685
 8256TIP3    H246260   4.784   3.145   4.140  1.8731  1.9613  1.9169
 8257TIP3   OH246261   1.329   4.874   0.410  0.5504 -0.2365 -0.0323
 8257TIP3    H146262   1.239   4.874   0.443  0.2930  1.5346 -0.6508
 8257TIP3    H246263   1.331   4.805   0.344 -0.0102 -1.1058  0.8445
 8258TIP3   OH246264   4.160   3.820   6.487 -0.0586  0.2068 -0.8538
 8258TIP3    H146265   4.184   3.735   6.525  1.2675  0.8264 -0.2759
 8258TIP3    H246266   4.067   3.811   6.465  0.0057 -1.3040 -0.5590
 8259TIP3   OH246267   1.982   1.746   2.724  0.0959 -0.4718 -0.2595
 8259TIP3    H146268   1.987   1.664   2.674  2.8832 -0.2053 -0.4495
 8259TIP3    H246269   1.917   1.798   2.677  0.6792 -1.2944 -2.0251
 8260TIP3   OH246270   6.729   4.249  11.774  0.2114 -0.3463 -0.6604
 8260TIP3    H146271   6.646   4.227  11.815  0.1440 -1.8409 -1.5709
 8260TIP3    H246272   6.714   4.334  11.733 -0.1797  0.4447  1.0506
 8261TIP3   OH246273   5.408   1.077   3.728 -0.3018 -0.1847  0.9467
 8261TIP3    H146274   5.467   1.071   3.804  0.7747  0.6785  0.1888
 8261TIP3    H246275   5.417   0.992   3.685 -0.9050 -0.6736  1.7727
 8262TIP3   OH246276   4.430   2.663  16.914  0.7315 -0.4830 -0.1724
 8262TIP3    H146277   4.487   2.734  16.885  0.8006  1.0690  3.4432
 8262TIP3    H246278   4.355   2.667  16.855  2.2062  0.4948 -2.0423
 8263TIP3   OH246279   1.891   4.739  11.650 -0.2155 -0.1497  0.0181
 8263TIP3    H146280   1.809   4.743  11.700  0.3320  2.1492  0.7850
 8263TIP3    H246281   1.904   4.829  11.620  0.8744 -0.9674 -2.0085
 8264TIP3   OH246282   3.167   0.224  12.725  0.0183  0.6642  0.1925
 8264TIP3    H146283   3.215   0.270  12.794  1.2131  0.2707 -0.3758
 8264TIP3    H246284   3.115   0.292  12.682  0.9106  1.2782  0.0864
 8265TIP3   OH246285   2.574   2.581  16.147  0.4170  0.0897  0.0330
 8265TIP3    H146286   2.633   2.506  16.152  1.6017  0.9548 -0.4937
 8265TIP3    H246287   2.493   2.546  16.108  1.0533 -0.8496 -0.4767
 8266TIP3   OH246288   2.735   6.614  10.904  0.4066 -0.0941  0.0663
 8266TIP3    H146289   2.793   6.578  10.837  0.8408 -1.5012  1.1911
 8266TIP3    H246290   2.647   6.595  10.872  0.5971 -0.1887 -0.4081
 8267TIP3   OH246291   2.431   2.008   0.356  0.2097 -0.1066  0.1914
 8267TIP3    H146292   2.492   1.977   0.423  1.1630  0.8395 -0.2303
 8267TIP3    H246293   2.400   1.928   0.313  0.2393 -0.6623  1.1885
 8268TIP3   OH246294   1.256   5.250  13.070 -0.5172  0.1777 -0.3259
 8268TIP3    H146295   1.196   5.280  13.138  0.1795 -0.7253  0.6949
 8268TIP3    H246296   1.314   5.325  13.055 -2.0233  1.1571 -1.5161
 8269TIP3   OH246297   0.925   4.185  15.303 -0.2159  0.6762  0.3051
 8269TIP3    H146298   1.014   4.153  15.288  0.4689  0.6221  4.1032
 8269TIP3    H246299   0.869   4.114  15.269  1.2170 -0.7110  0.7611
 8270TIP3   OH246300   4.544   5.129   0.893 -0.7090  0.2311 -0.6910
 8270TIP3    H146301   4.550   5.100   0.984 -0.7613 -3.1238 -1.6876
 8270TIP3    H246302   4.451   5.142   0.877 -0.6272  1.6402 -0.0349
 8271TIP3   OH246303   5.974   6.761   6.084 -0.1772  0.0336  0.0936
 8271TIP3    H146304   5.907   6.767   6.016 -1.0273 -0.5097  0.8878
 8271TIP3    H246305   6.048   6.717   6.040 -0.8827 -0.7199 -0.3616
 8272TIP3   OH246306   6.275   2.303   3.336  0.4630  0.6793  0.6990
 8272TIP3    H146307   6.190   2.262   3.321  0.2794  1.4833 -0.6048
 8272TIP3    H246308   6.301   2.276   3.424 -0.3462 -0.9819  0.4377
 8273TIP3   OH246309   4.652   1.129   1.777 -0.1126  0.2127 -0.3858
 8273TIP3    H146310   4.651   1.035   1.757  0.6766  0.0676  0.2300
 8273TIP3    H246311   4.669   1.133   1.871 -1.4904  0.9447 -0.1644
 8274TIP3   OH246312   4.180   1.235   5.658  0.1853  0.3772 -0.1332
 8274TIP3    H146313   4.221   1.150   5.675  1.3531  0.5524 -1.9538
 8274TIP3    H246314   4.087   1.214   5.645  0.2211 -0.4262  0.7774
 8275TIP3   OH246315   0.093   0.135   1.017  0.6709 -0.2358 -0.0580
 8275TIP3    H146316   0.153   0.165   1.085 -0.9178  2.1066  0.3567
 8275TIP3    H246317   0.078   0.211   0.962  0.3344 -1.5664 -1.8461
 8276TIP3   OH246318   6.786   0.948   5.747  0.7762 -0.3152  0.1926
 8276TIP3    H146319   6.719   0.924   5.812 -1.0124  0.1733 -1.4138
 8276TIP3    H246320   6.829   0.865   5.726  0.4223 -0.7078  0.9614
 8277TIP3   OH246321   4.908   3.352  15.993  0.0166 -0.0690  0.1509
 8277TIP3    H146322   4.924   3.432  16.044  2.4679 -0.4888  0.1042
 8277TIP3    H246323   4.949   3.370  15.908 -0.1379 -1.0736 -0.1360
 8278TIP3   OH246324   4.623   1.517   4.969 -0.4102  0.0802  0.3658
 8278TIP3    H146325   4.683   1.589   4.954  0.1839 -0.0594  1.9414
 8278TIP3    H246326   4.540   1.546   4.932  0.5504  0.3597 -1.6337
 8279TIP3   OH246327   0.409   5.298   0.937  0.1910  0.1165  0.4800
 8279TIP3    H146328   0.319   5.300   0.905 -0.0031 -0.5514  1.0061
 8279TIP3    H246329   0.429   5.206   0.950  1.2759  0.1886 -0.5457
 8280TIP3   OH246330   3.315   1.393  13.892  0.0668  0.2373 -0.4700
 8280TIP3    H146331   3.355   1.315  13.930 -0.5228 -0.0431 -0.4084
 8280TIP3    H246332   3.380   1.427  13.831  0.3617 -0.2473 -0.4243
 8281TIP3   OH246333   6.786   0.415   6.041 -0.2189  0.3345 -0.2843
 8281TIP3    H146334   6.781   0.343   6.103 -0.6464  0.1456 -0.5384
 8281TIP3    H246335   6.879   0.437   6.037 -0.0472 -0.4218 -0.4608
 8282TIP3   OH246336   2.193   0.369  13.947 -0.4049  0.7094  0.0920
 8282TIP3    H146337   2.251   0.296  13.925  1.3265  1.0042  3.3076
 8282TIP3    H246338   2.148   0.340  14.027 -2.0130  1.9670 -0.3275
 8283TIP3   OH246339   1.474   3.769  14.378  0.3113 -0.1992 -0.2218
 8283TIP3    H146340   1.530   3.732  14.309  0.1008  0.9646 -1.0311
 8283TIP3    H246341   1.521   3.846  14.409 -0.0172 -0.2161  0.3191
 8284TIP3   OH246342   2.227   2.303  10.708 -0.3232 -0.0763  0.0108
 8284TIP3    H146343   2.230   2.281  10.615 -0.1786  0.3171 -0.0812
 8284TIP3    H246344   2.316   2.332  10.728  0.1063 -1.7776  0.6783
 8285TIP3   OH246345   0.949   1.482   5.593 -0.4499  0.3411 -0.7122
 8285TIP3    H146346   0.927   1.470   5.500  0.3999 -2.1602 -0.6045
 8285TIP3    H246347   1.028   1.430   5.606 -0.3075  1.0368  1.3331
 8286TIP3   OH246348   2.632   1.879  13.037  0.1146  0.4219  0.0370
 8286TIP3    H146349   2.713   1.843  13.075  0.0289  0.9153  0.6856
 8286TIP3    H246350   2.635   1.852  12.945  0.9568  0.3350  0.0887
 8287TIP3   OH246351   1.393   2.168  12.146 -0.1866  0.5801 -0.5230
 8287TIP3    H146352   1.449   2.179  12.069  0.9448 -2.0645 -0.1365
 8287TIP3    H246353   1.446   2.200  12.219 -0.1225  0.3672 -0.4748
 8288TIP3   OH246354   1.384   2.014   2.140  0.1242  0.1246 -0.1848
 8288TIP3    H146355   1.333   2.023   2.221  0.0394  1.8922 -0.4277
 8288TIP3    H246356   1.339   1.944   2.092 -0.5249 -0.1258  0.7576
 8289TIP3   OH246357   3.885   1.513   4.404 -0.4012  0.1866 -0.7708
 8289TIP3    H146358   3.798   1.494   4.369 -0.9620  2.9508 -1.0217
 8289TIP3    H246359   3.868   1.559   4.486  0.8226  0.2317 -0.5379
 8290TIP3   OH246360   0.080   5.723   0.497  0.2428 -0.2514  0.0415
 8290TIP3    H146361   0.123   5.666   0.433 -0.4325 -1.4593  0.6388
 8290TIP3    H246362  -0.013   5.700   0.490  0.3923 -2.0994  3.0757
 8291TIP3   OH246363   2.695   3.519  14.913  0.1447  0.1443 -0.4683
 8291TIP3    H146364   2.652   3.464  14.847 -0.5925  0.1983 -0.0332
 8291TIP3    H246365   2.778   3.544  14.872 -1.4825  2.4298 -2.5198
 8292TIP3   OH246366   0.748   1.784   3.877 -0.5611 -0.5421 -0.1539
 8292TIP3    H146367   0.723   1.875   3.893  0.6028 -0.2049 -0.2337
 8292TIP3    H246368   0.724   1.738   3.958  0.7344  0.2280  0.6818
 8293TIP3   OH246369   3.783   4.560  14.270  0.3991 -0.3201  0.7424
 8293TIP3    H146370   3.730   4.640  14.268  1.4919  0.4088  0.8070
 8293TIP3    H246371   3.849   4.576  14.337  1.5728 -0.6682 -0.3148
 8294TIP3   OH246372   1.783   5.675  13.352  0.1237 -0.1070 -0.4336
 8294TIP3    H146373   1.762   5.585  13.375 -0.4332  0.3872  1.1154
 8294TIP3    H246374   1.866   5.693  13.397 -0.7422  0.7387  0.8617
 8295TIP3   OH246375   3.079   3.487  13.423 -0.0255  0.0242 -0.7596
 8295TIP3    H146376   2.986   3.471  13.437 -0.6734  2.5784 -1.7592
 8295TIP3    H246377   3.115   3.505  13.510 -0.3441 -1.4675 -0.3108
 8296TIP3   OH246378   0.928   4.045   6.131 -0.8617 -0.1646  0.0697
 8296TIP3    H146379   0.884   4.061   6.047  0.9122 -0.6080 -0.9680
 8296TIP3    H246380   0.879   4.098   6.194 -0.8394  1.9579 -1.6520
 8297TIP3   OH246381   5.626   2.631   0.968  0.3056  0.2371  0.2658
 8297TIP3    H146382   5.539   2.670   0.968  0.2869  0.1985 -0.1367
 8297TIP3    H246383   5.648   2.621   0.875  2.1530  3.4742  0.2557
 8298TIP3   OH246384   3.741   5.871   2.943 -0.1860 -0.6526  0.4635
 8298TIP3    H146385   3.662   5.835   2.903  1.4056 -2.4693 -1.0956
 8298TIP3    H246386   3.733   5.966   2.928 -0.4127 -1.1194 -2.7750
 8299TIP3   OH246387   1.681   4.758   5.969  0.0048 -0.1355 -0.3785
 8299TIP3    H146388   1.676   4.848   6.001 -1.0953 -0.0595 -0.7588
 8299TIP3    H246389   1.719   4.709   6.043 -1.7809  0.1841  0.7732
 8300TIP3   OH246390   4.108   6.286  10.589 -0.2328 -0.0414 -0.2264
 8300TIP3    H146391   4.158   6.327  10.519 -0.7943  0.4613 -0.3390
 8300TIP3    H246392   4.064   6.360  10.633  1.2760 -0.1659  1.5798
 8301TIP3   OH246393   2.423   3.997   3.794 -0.0824  0.0953 -0.3795
 8301TIP3    H146394   2.479   4.074   3.777 -0.6447 -0.0533 -3.2364
 8301TIP3    H246395   2.465   3.953   3.868  0.8126  2.6162  0.6905
 8302TIP3   OH246396   6.768   1.534  14.777 -0.1129  0.0556 -0.1213
 8302TIP3    H146397   6.813   1.589  14.712 -0.7482  0.2156 -0.4288
 8302TIP3    H246398   6.704   1.591  14.817  0.9916  0.2430  1.4104
 8303TIP3   OH246399   4.799   5.539  16.035  0.1182  0.1799  0.1723
 8303TIP3    H146400   4.767   5.459  16.077  1.2314  0.3990  1.4555
 8303TIP3    H246401   4.751   5.610  16.078 -0.8108  0.2329 -0.9144
 8304TIP3   OH246402   2.886   5.280  12.514 -0.1081  0.1539 -0.3943
 8304TIP3    H146403   2.890   5.227  12.434  1.9595 -0.9003  0.3714
 8304TIP3    H246404   2.870   5.216  12.584 -2.2279  1.1036  0.0374
 8305TIP3   OH246405   6.041   6.612  12.211 -0.3869  0.7072 -0.0019
 8305TIP3    H146406   6.061   6.683  12.272  0.4306  0.7618 -0.3246
 8305TIP3    H246407   6.039   6.533  12.264 -1.7443  1.0210  0.4376
 8306TIP3   OH246408   4.205   3.940   5.543 -0.4624 -0.6797  0.0040
 8306TIP3    H146409   4.163   4.025   5.527 -1.6845 -1.4417 -0.9276
 8306TIP3    H246410   4.134   3.876   5.536  1.0226 -2.1297 -3.0357
 8307TIP3   OH246411   2.203   5.277   4.055 -0.1100 -0.5944 -0.8382
 8307TIP3    H146412   2.162   5.268   4.141  1.6655  0.1156  0.1200
 8307TIP3    H246413   2.278   5.217   4.059 -0.8303 -1.6315 -2.4263
 8308TIP3   OH246414   6.664   4.525  15.286  0.4438 -0.0517  0.1379
 8308TIP3    H146415   6.703   4.465  15.222  0.7024  1.3303 -1.0258
 8308TIP3    H246416   6.702   4.610  15.265  0.3681  0.4601  2.0201
 8309TIP3   OH246417   4.961   5.400   5.342  0.1661 -0.0504  0.3433
 8309TIP3    H146418   4.911   5.352   5.408 -1.2157  1.6089  0.5407
 8309TIP3    H246419   5.037   5.434   5.388 -0.4680  0.5719  0.9389
 8310TIP3   OH246420   5.087   0.824   4.471  0.1915  0.0355  0.5312
 8310TIP3    H146421   5.152   0.835   4.402  2.4516  1.0747  2.7125
 8310TIP3    H246422   5.011   0.875   4.441  1.3088  0.8732 -0.9436
 8311TIP3   OH246423   1.435   5.916   5.947 -0.0378 -0.2427  0.0176
 8311TIP3    H146424   1.356   5.948   5.992 -0.3810 -0.3227 -0.5191
 8311TIP3    H246425   1.488   5.994   5.934 -1.0350  0.1935 -1.6103
 8312TIP3   OH246426   0.814   6.551  13.770  0.1029  0.0938  0.9258
 8312TIP3    H146427   0.775   6.468  13.796 -1.4226  1.3970  3.0013
 8312TIP3    H246428   0.884   6.566  13.833 -0.8409  1.2527  1.7161
 8313TIP3   OH246429   2.906   0.316  12.291  0.7308 -0.0860 -0.0088
 8313TIP3    H146430   3.002   0.309  12.289  0.6692 -0.8893 -0.0475
 8313TIP3    H246431   2.886   0.382  12.223  1.2762  0.3784  0.2774
 8314TIP3   OH246432   0.386   4.846  16.221 -0.2827 -0.1021 -0.2508
 8314TIP3    H146433   0.315   4.910  16.223  1.0910  1.4237  0.1742
 8314TIP3    H246434   0.345   4.766  16.186 -1.5242  1.5947 -2.8507
 8315TIP3   OH246435   2.494   4.295   3.822 -0.0343  0.4998 -0.1085
 8315TIP3    H146436   2.511   4.307   3.915 -0.6320  0.9247 -0.0494
 8315TIP3    H246437   2.579   4.269   3.785  0.0960 -0.1197  0.6225
 8316TIP3   OH246438   0.748   1.299   1.149  0.6362  0.2813  0.6452
 8316TIP3    H146439   0.722   1.252   1.070 -1.9812 -0.9053  2.1609
 8316TIP3    H246440   0.703   1.383   1.144  0.2778  0.1102  0.9887
 8317TIP3   OH246441   4.412   1.041  16.297  0.2034 -0.1526 -0.3777
 8317TIP3    H146442   4.414   0.965  16.354 -0.6956  0.5647  0.6487
 8317TIP3    H246443   4.385   1.113  16.355  0.3373  0.7931 -1.4765
 8318TIP3   OH246444   4.594   4.891  14.101 -0.1856 -0.3559  0.0659
 8318TIP3    H146445   4.518   4.896  14.159  0.3969  0.9807  0.7434
 8318TIP3    H246446   4.665   4.859  14.157 -0.0815 -0.9412 -0.3953
 8319TIP3   OH246447   0.904   4.228  14.376  0.1935  0.1156 -0.2620
 8319TIP3    H146448   0.925   4.295  14.312 -0.2800  3.7158  3.1329
 8319TIP3    H246449   0.978   4.228  14.436 -0.8106 -0.8371  1.0073
 8320TIP3   OH246450   3.439   4.911  12.792 -0.3191  1.2983  1.1164
 8320TIP3    H146451   3.491   4.962  12.731  1.3733  0.6582  1.9816
 8320TIP3    H246452   3.433   4.824  12.752 -1.6547  1.6677  0.5043
 8321TIP3   OH246453   2.097   1.884  14.114  0.1234 -0.5890  0.1463
 8321TIP3    H146454   2.068   1.846  14.196 -0.7673 -1.8162 -0.7143
 8321TIP3    H246455   2.041   1.960  14.101  1.3869  0.6092  1.4802
 8322TIP3   OH246456   2.085   6.390  12.500  0.1481  0.0163 -0.4147
 8322TIP3    H146457   2.040   6.315  12.461 -0.9573  1.0971 -1.2443
 8322TIP3    H246458   2.133   6.353  12.573 -0.9953 -1.3956 -0.3509
 8323TIP3   OH246459   4.618   2.712   5.970 -1.4458  0.4444 -0.8445
 8323TIP3    H146460   4.533   2.670   5.984 -1.3841  0.6207  0.0828
 8323TIP3    H246461   4.598   2.805   5.963 -1.0443  0.8305  2.3389
 8324TIP3   OH246462   6.263   3.836  14.032 -0.4248  0.1430 -0.3450
 8324TIP3    H146463   6.188   3.796  14.076  0.5241 -1.1227  0.1621
 8324TIP3    H246464   6.229   3.865  13.948 -1.5021 -0.3338 -0.0835
 8325TIP3   OH246465   1.372   5.719   4.240  0.2014  0.2597 -0.2289
 8325TIP3    H146466   1.391   5.799   4.192  1.4512 -0.5585 -1.1197
 8325TIP3    H246467   1.452   5.668   4.235 -1.5762 -2.4554 -2.4189
 8326TIP3   OH246468   2.795   4.234   3.288  1.3820 -0.9936  0.1058
 8326TIP3    H146469   2.755   4.320   3.301  2.6425 -0.4283  0.3386
 8326TIP3    H246470   2.811   4.202   3.377 -1.3260 -2.5675  0.0777
 8327TIP3   OH246471   0.377   4.518   4.896  0.1412  0.0960 -0.7366
 8327TIP3    H146472   0.442   4.488   4.833  1.2648  0.9097  0.0064
 8327TIP3    H246473   0.404   4.607   4.918 -0.5052 -0.0032  0.5336
 8328TIP3   OH246474   2.621   5.160  11.873 -0.5418 -0.2229 -0.1390
 8328TIP3    H146475   2.697   5.217  11.871 -1.1942  0.6363 -1.4515
 8328TIP3    H246476   2.657   5.072  11.884  0.7713 -0.0089 -2.3580
 8329TIP3   OH246477   2.156   0.446   0.361 -0.3534  0.3254  0.1349
 8329TIP3    H146478   2.220   0.487   0.419 -0.0982  0.4688 -0.2458
 8329TIP3    H246479   2.201   0.440   0.276 -0.3190 -0.9221  0.2378
 8330TIP3   OH246480   2.031   4.385  16.024  0.5833  0.1715 -0.1089
 8330TIP3    H146481   2.100   4.338  16.072  0.4168  0.8712  0.8347
 8330TIP3    H246482   2.067   4.399  15.937  1.1888 -0.4655  0.0325
 8331TIP3   OH246483   3.318   2.740   3.190 -0.2247  0.1068  0.0257
 8331TIP3    H146484   3.234   2.740   3.236  0.5084 -0.3770  1.3933
 8331TIP3    H246485   3.315   2.663   3.133 -0.6552  0.0277  0.1538
 8332TIP3   OH246486   4.670   2.634   3.048  0.2752  0.3809 -0.2063
 8332TIP3    H146487   4.710   2.561   3.000 -1.2538 -0.3765 -0.3623
 8332TIP3    H246488   4.618   2.592   3.116 -0.6435  1.3175 -0.3166
 8333TIP3   OH246489   6.456   6.630   2.382 -0.4029 -0.4964 -0.5428
 8333TIP3    H146490   6.400   6.631   2.304 -1.6817 -2.0318  0.3132
 8333TIP3    H246491   6.417   6.562   2.437  0.9584  0.0359  1.0846
 8334TIP3   OH246492   5.151   4.843  14.297 -0.5949 -0.3897  0.2684
 8334TIP3    H146493   5.228   4.853  14.241 -0.5633 -3.6159 -0.3993
 8334TIP3    H246494   5.142   4.927  14.341  1.0570  1.3321 -2.4755
 8335TIP3   OH246495   2.896   4.618  17.173  0.3072 -0.5293 -0.2238
 8335TIP3    H146496   2.834   4.674  17.125  0.8339 -0.1760 -0.4976
 8335TIP3    H246497   2.982   4.651  17.148  0.6052  2.5423  4.2648
 8336TIP3   OH246498   2.034   5.412   2.410 -0.6995  0.0508  0.7746
 8336TIP3    H146499   1.945   5.379   2.421 -0.5331 -0.1060  1.7581
 8336TIP3    H246500   2.089   5.333   2.416 -0.5236  0.0700 -0.4046
 8337TIP3   OH246501   1.505   0.446  13.819 -0.1295  0.3899 -0.2460
 8337TIP3    H146502   1.478   0.430  13.910 -1.0563  1.3285 -0.3418
 8337TIP3    H246503   1.422   0.456  13.772  0.3817  1.9110 -0.8187
 8338TIP3   OH246504   5.082   1.454   1.072  0.2295  0.3756  0.3264
 8338TIP3    H146505   5.068   1.477   1.164  2.0495 -0.4442  0.8480
 8338TIP3    H246506   5.005   1.403   1.047  0.5644 -0.9686  1.9623
 8339TIP3   OH246507   4.845   2.872  15.142 -0.1841 -0.1051 -0.5250
 8339TIP3    H146508   4.804   2.938  15.086 -0.8383  0.2313  0.3535
 8339TIP3    H246509   4.841   2.791  15.090 -1.3436  0.0688 -0.7205
 8340TIP3   OH246510   6.062   6.116  15.071  0.0618 -0.0051 -0.3836
 8340TIP3    H146511   6.137   6.148  15.021 -1.4499  0.2820 -2.5029
 8340TIP3    H246512   6.082   6.023  15.086  2.4025  0.8087  2.0307
 8341TIP3   OH246513   3.421   4.776  11.253 -0.2363 -0.2092 -0.0463
 8341TIP3    H146514   3.431   4.700  11.311 -0.0198 -1.1672 -1.3143
 8341TIP3    H246515   3.338   4.815  11.279 -1.1187 -1.8143 -0.4538
 8342TIP3   OH246516   1.157   5.946   1.197 -0.4306  0.0716 -0.2849
 8342TIP3    H146517   1.162   5.897   1.116  1.7326 -0.2226 -0.0268
 8342TIP3    H246518   1.086   5.906   1.247 -2.1671  0.6478 -2.2591
 8343TIP3   OH246519   3.110   0.058  16.215  0.1125 -0.2564 -0.4927
 8343TIP3    H146520   3.138  -0.029  16.243  2.8220  1.0583  1.0874
 8343TIP3    H246521   3.167   0.079  16.141 -1.1867 -0.1786 -1.4910
 8344TIP3   OH246522   6.683   5.603   0.395  0.1731  0.0152 -0.2903
 8344TIP3    H146523   6.724   5.517   0.401  0.5508  0.2083 -0.1228
 8344TIP3    H246524   6.620   5.605   0.468 -0.1485 -0.2835 -0.5548
 8345TIP3   OH246525   0.808   3.666   4.423 -0.1990 -0.3376  0.3337
 8345TIP3    H146526   0.751   3.590   4.434 -1.3454  0.3777 -0.5099
 8345TIP3    H246527   0.864   3.642   4.349 -2.8638  0.9531 -2.1883
 8346TIP3   OH246528   4.266   5.382   4.453  0.1619  0.4255 -0.2205
 8346TIP3    H146529   4.252   5.326   4.529 -1.5199  1.1409  0.0020
 8346TIP3    H246530   4.294   5.466   4.489  0.7419  0.3406 -0.4639
 8347TIP3   OH246531   1.802   5.187   4.142  0.3657 -0.0002 -0.3702
 8347TIP3    H146532   1.777   5.151   4.227  0.6123  1.8914  0.5250
 8347TIP3    H246533   1.731   5.245   4.118  0.7027  0.1339 -1.0601
 8348TIP3   OH246534   6.219   0.053  13.865 -0.1265 -0.7729 -0.0576
 8348TIP3    H146535   6.270   0.013  13.794 -0.9103  1.4984 -1.9636
 8348TIP3    H246536   6.232   0.147  13.854 -0.2426 -0.3671  2.8656
 8349TIP3   OH246537   3.645   2.770   0.569 -0.3407 -0.1318 -0.1645
 8349TIP3    H146538   3.559   2.763   0.609 -0.1147  1.6506  0.6701
 8349TIP3    H246539   3.660   2.864   0.560  1.5216 -0.4211 -0.2868
 8350TIP3   OH246540   0.375   2.855   0.628 -0.5915  0.4031 -0.1017
 8350TIP3    H146541   0.362   2.896   0.543 -1.2558  0.6442  0.1173
 8350TIP3    H246542   0.346   2.920   0.692 -1.3590 -0.2860  0.2586
 8351TIP3   OH246543   5.936   4.696   2.398  0.5432 -0.6351 -0.5719
 8351TIP3    H146544   6.028   4.724   2.395  0.1659  0.4413 -2.0508
 8351TIP3    H246545   5.891   4.752   2.335 -1.0129 -1.6395 -0.3775
 8352TIP3   OH246546   4.961   0.772   2.599  0.5144 -0.1753  0.1991
 8352TIP3    H146547   5.032   0.803   2.655 -0.4439  3.7540 -0.6232
 8352TIP3    H246548   4.995   0.691   2.560  3.3031 -0.0161  2.1763
 8353TIP3   OH246549   6.690   1.849   4.000 -0.5459  0.5753  0.2132
 8353TIP3    H146550   6.707   1.812   4.086  0.7620 -0.6012 -0.5506
 8353TIP3    H246551   6.699   1.944   4.013 -1.0218  0.4564  1.5040
 8354TIP3   OH246552   0.296   2.722   4.965 -0.2368  0.0257  0.3003
 8354TIP3    H146553   0.261   2.759   4.884  0.0740 -0.1658  0.0804
 8354TIP3    H246554   0.255   2.635   4.971  2.3756 -1.3748 -1.4291
 8355TIP3   OH246555   6.228   0.332   0.310  0.0763  0.1616 -0.4127
 8355TIP3    H146556   6.295   0.373   0.365 -0.1900  2.8278 -1.9808
 8355TIP3    H246557   6.276   0.302   0.233  0.0199 -1.1620  0.0580
 8356TIP3   OH246558   4.647   3.452  11.982 -0.3624  0.8186  0.0019
 8356TIP3    H146559   4.697   3.407  12.050 -0.5451  0.2227 -0.2554
 8356TIP3    H246560   4.683   3.541  11.981  0.4091  0.5138  0.1133
 8357TIP3   OH246561   5.011   6.166  11.578 -0.2412 -0.4856 -0.1015
 8357TIP3    H146562   5.028   6.195  11.488 -0.0105 -1.4367 -0.3722
 8357TIP3    H246563   5.097   6.156  11.617 -0.2995 -1.2054 -0.1461
 8358TIP3   OH246564   6.052   1.224   6.664  0.3725  0.0938  0.0500
 8358TIP3    H146565   5.966   1.266   6.659 -0.3950 -1.1987  1.9566
 8358TIP3    H246566   6.089   1.256   6.746 -0.3005 -3.0088  1.6226
 8359TIP3   OH246567   6.778   5.287  16.706 -0.5280 -0.1975  0.4009
 8359TIP3    H146568   6.740   5.296  16.619  3.5850 -0.2620 -1.5219
 8359TIP3    H246569   6.768   5.195  16.728  0.4607 -0.6667 -1.0601
 8360TIP3   OH246570   5.128   1.839   1.232 -0.0349  0.1774 -0.1873
 8360TIP3    H146571   5.131   1.776   1.161  0.6143  0.2749 -0.2537
 8360TIP3    H246572   5.147   1.787   1.311 -0.2829  0.1531 -0.1430
 8361TIP3   OH246573   4.026   5.377   1.693  0.0571  0.2118  0.0638
 8361TIP3    H146574   3.961   5.316   1.728  1.3266 -1.1192  0.1686
 8361TIP3    H246575   4.009   5.379   1.599  0.6953 -1.1480 -0.0835
 8362TIP3   OH246576   4.514   3.547  16.003  0.0132  0.1616 -0.1687
 8362TIP3    H146577   4.479   3.613  16.063 -1.1545 -0.5700 -0.0266
 8362TIP3    H246578   4.492   3.464  16.044 -0.1104 -0.3336 -1.2423
 8363TIP3   OH246579   1.473   2.927   4.800  0.3322 -0.3816  0.1560
 8363TIP3    H146580   1.565   2.940   4.824  0.2273 -0.1193  0.4123
 8363TIP3    H246581   1.445   2.852   4.852  0.3998 -0.4558  0.0850
 8364TIP3   OH246582   4.455   5.202   3.686 -0.1869 -0.1884  0.7363
 8364TIP3    H146583   4.454   5.183   3.780 -0.8618  1.1080  0.9967
 8364TIP3    H246584   4.527   5.265   3.676  0.0867 -0.5647  0.3320
 8365TIP3   OH246585   3.754   1.432  15.148  0.1947  0.2354 -0.0232
 8365TIP3    H146586   3.811   1.509  15.157  2.7660 -1.6896  0.6969
 8365TIP3    H246587   3.730   1.410  15.238 -0.1069 -0.1300 -0.1941
 8366TIP3   OH246588   5.694   1.622   2.912  0.6256 -0.2037 -0.3694
 8366TIP3    H146589   5.600   1.622   2.897  0.8270  0.0253 -1.7352
 8366TIP3    H246590   5.716   1.532   2.936  0.3216 -0.6917 -1.8643
 8367TIP3   OH246591   0.616   2.580  15.682 -0.2345  0.0401  0.2058
 8367TIP3    H146592   0.681   2.645  15.709  0.2856 -0.6225  0.5871
 8367TIP3    H246593   0.555   2.628  15.626  1.3896  0.3440 -1.3375
 8368TIP3   OH246594   3.080   4.554   0.403 -0.3661  0.0702 -0.0707
 8368TIP3    H146595   3.050   4.584   0.317 -2.8191 -0.3672  0.6044
 8368TIP3    H246596   3.121   4.469   0.386 -0.4812  0.1664 -0.8592
 8369TIP3   OH246597   5.287   6.232   5.869  0.5315 -0.6362  0.0235
 8369TIP3    H146598   5.354   6.258   5.932 -0.8072  3.0102  0.0590
 8369TIP3    H246599   5.332   6.174   5.808  3.2123  0.2220  1.1156
 8370TIP3   OH246600   0.653   4.209  12.062  0.3477 -0.4110  0.4169
 8370TIP3    H146601   0.623   4.247  11.980 -0.6584 -0.7590  0.6155
 8370TIP3    H246602   0.713   4.139  12.035 -1.4759 -1.8319 -0.1257
 8371TIP3   OH246603   0.810   6.727  11.497  0.0898 -0.2442 -0.0004
 8371TIP3    H146604   0.818   6.632  11.501  0.9939 -0.2355 -1.3110
 8371TIP3    H246605   0.842   6.750  11.410  1.0447  1.3688  0.7578
 8372TIP3   OH246606   6.459   3.201  15.987  0.1034  0.0583  0.0607
 8372TIP3    H146607   6.469   3.152  15.906 -1.5155 -3.0048  1.6125
 8372TIP3    H246608   6.387   3.261  15.972  0.7020  0.4684 -1.1863
 8373TIP3   OH246609   3.379   6.819  16.368  0.4225 -1.1578 -0.1343
 8373TIP3    H146610   3.386   6.861  16.282  1.2820 -0.1559  0.4036
 8373TIP3    H246611   3.327   6.741  16.353  0.4154 -0.8940 -1.5378
 8374TIP3   OH246612   4.724   6.778   3.564 -0.1707  0.3172  0.7529
 8374TIP3    H146613   4.797   6.716   3.574 -0.5032 -0.1022  0.5775
 8374TIP3    H246614   4.699   6.800   3.654 -1.4813 -1.4757  0.8473
 8375TIP3   OH246615   3.224   6.584  12.706  0.0590  0.2839  0.1628
 8375TIP3    H146616   3.222   6.490  12.685 -2.5708  0.3036  0.1973
 8375TIP3    H246617   3.210   6.627  12.621  0.5778  0.6378  0.2561
 8376TIP3   OH246618   3.450   2.506   4.556  0.6247  0.7079  0.3448
 8376TIP3    H146619   3.402   2.550   4.485  1.0483  0.8401  0.1303
 8376TIP3    H246620   3.541   2.534   4.542  1.1227 -1.3460 -0.6301
 8377TIP3   OH246621   3.440   2.642  16.865 -0.1300  0.0195 -0.0582
 8377TIP3    H146622   3.393   2.560  16.849 -0.2069  0.1383 -0.4446
 8377TIP3    H246623   3.492   2.655  16.786  0.7279 -0.2257  0.4531
 8378TIP3   OH246624   3.300   3.868  12.076 -0.3375  0.1717 -0.0851
 8378TIP3    H146625   3.263   3.926  12.009 -0.9230  0.5684  0.5767
 8378TIP3    H246626   3.326   3.789  12.028 -1.6366  0.0667 -0.6204
 8379TIP3   OH246627   4.035   3.092  15.214  0.4021 -0.4037  0.6419
 8379TIP3    H146628   4.032   3.042  15.133 -1.0990 -0.6467  0.8413
 8379TIP3    H246629   3.994   3.176  15.192 -0.2454 -0.5683  1.2149
 8380TIP3   OH246630   4.190   2.732   5.506  0.0687 -0.3708 -0.1159
 8380TIP3    H146631   4.237   2.778   5.576 -0.3472  1.3875 -0.9596
 8380TIP3    H246632   4.103   2.773   5.505  0.1256 -0.2588 -1.7666
 8381TIP3   OH246633   3.990   3.286   5.614  0.2482 -0.0999  0.0601
 8381TIP3    H146634   4.059   3.337   5.657  1.1941 -0.3995 -1.0620
 8381TIP3    H246635   3.908   3.326   5.644  0.8573 -0.6388  2.5060
 8382TIP3   OH246636   5.816   3.612  14.666  0.3309  0.1262 -0.1027
 8382TIP3    H146637   5.830   3.660  14.584 -0.1632  1.3992  0.5583
 8382TIP3    H246638   5.880   3.649  14.727  0.1190 -0.2355  0.3439
 8383TIP3   OH246639   0.684   3.577   5.308  0.4219 -0.0917  0.1972
 8383TIP3    H146640   0.675   3.484   5.332 -0.7443 -0.1831 -0.5223
 8383TIP3    H246641   0.778   3.592   5.305  0.6166 -1.1302  0.8229
 8384TIP3   OH246642   0.548   4.821   4.711  0.1460  0.1501  0.6554
 8384TIP3    H146643   0.453   4.814   4.707  0.0843 -0.4319  2.4988
 8384TIP3    H246644   0.579   4.731   4.713  0.6403  0.3316  1.5728
 8385TIP3   OH246645   3.879   4.982   1.956  0.2989  0.3660  0.2682
 8385TIP3    H146646   3.873   5.009   2.048 -0.7232  3.6624 -0.6914
 8385TIP3    H246647   3.970   4.998   1.932  0.0731  1.4895  0.1455
 8386TIP3   OH246648   1.060   1.774   0.562 -0.2266  0.0190 -0.2147
 8386TIP3    H146649   1.054   1.742   0.473 -0.9260  1.3430 -0.6633
 8386TIP3    H246650   1.010   1.712   0.614  2.2273 -2.1506 -0.3247
 8387TIP3   OH246651   6.399   4.170   0.470 -0.5330  0.1150 -0.7524
 8387TIP3    H146652   6.430   4.080   0.459  0.6742  0.5924 -1.3666
 8387TIP3    H246653   6.368   4.195   0.383 -2.0507 -0.1346 -0.2865
 8388TIP3   OH246654   5.250   0.787  10.981  0.3311  0.1384 -0.3077
 8388TIP3    H146655   5.328   0.842  10.975  0.7771 -0.2863  1.2543
 8388TIP3    H246656   5.199   0.808  10.903  1.3061  1.4994 -0.5930
 8389TIP3   OH246657   6.699   5.403   1.153  0.3287 -0.3414 -0.1323
 8389TIP3    H146658   6.677   5.377   1.063  0.8305  0.3136 -0.4463
 8389TIP3    H246659   6.721   5.321   1.197 -1.7538 -0.9169 -0.0785
 8390TIP3   OH246660   4.246   5.089  17.181  0.3913  0.0941 -0.1916
 8390TIP3    H146661   4.237   5.017  17.243 -1.3996  0.6052  0.1613
 8390TIP3    H246662   4.173   5.079  17.121  1.1450  0.5920 -1.2204
 8391TIP3   OH246663   6.217   3.231   5.842  0.5202  0.5329  0.2028
 8391TIP3    H146664   6.227   3.198   5.931  1.0266  1.5174  0.5218
 8391TIP3    H246665   6.133   3.276   5.842 -0.2492 -0.8813 -0.2779
 8392TIP3   OH246666   1.353   1.545   2.805  0.2255 -1.1801  0.2220
 8392TIP3    H146667   1.286   1.511   2.864 -1.0583  0.2008 -0.4118
 8392TIP3    H246668   1.311   1.547   2.719  0.6781  0.7738  0.0186
 8393TIP3   OH246669   1.859   2.377  12.519 -0.1125 -1.4754  0.0697
 8393TIP3    H146670   1.782   2.321  12.509 -0.4040 -0.9350 -0.7601
 8393TIP3    H246671   1.916   2.353  12.447 -0.3737 -0.5053 -0.4770
 8394TIP3   OH246672   5.028   4.783   3.584 -0.1260  0.1377  0.2674
 8394TIP3    H146673   5.063   4.842   3.517  0.9707 -0.3483  0.4090
 8394TIP3    H246674   5.081   4.802   3.662  0.9273 -1.7515  0.0418
 8395TIP3   OH246675   4.686   6.216   4.953 -0.7671  0.8353 -0.4030
 8395TIP3    H146676   4.692   6.130   4.994  0.5368  0.5175 -1.2230
 8395TIP3    H246677   4.623   6.264   5.007 -1.0160 -0.4125  0.4395
 8396TIP3   OH246678   1.455   5.925  15.543  0.2067  0.0130 -0.4178
 8396TIP3    H146679   1.508   5.898  15.468 -0.5411 -0.0806 -0.9157
 8396TIP3    H246680   1.441   6.019  15.529  1.7931  0.4459  0.6878
 8397TIP3   OH246681   5.413   4.991   1.427 -0.1179  1.0964 -0.7282
 8397TIP3    H146682   5.496   5.032   1.451 -0.4480  1.1971  0.2790
 8397TIP3    H246683   5.384   5.039   1.349  0.5886  1.2979 -0.8720
 8398TIP3   OH246684   0.601   0.966   2.441 -0.7329 -0.1506 -0.1410
 8398TIP3    H146685   0.562   0.880   2.428  0.3064 -1.0218  2.2785
 8398TIP3    H246686   0.651   0.983   2.361  0.1916 -2.4131 -0.0673
 8399TIP3   OH246687   1.435   3.261   4.364  0.1715  0.2217  0.1398
 8399TIP3    H146688   1.411   3.225   4.278  2.1397 -0.8351 -0.0072
 8399TIP3    H246689   1.528   3.284   4.355  0.6546 -0.7758  2.2380
 8400TIP3   OH246690   1.588   6.647   3.380  0.7269  0.4443 -0.1804
 8400TIP3    H146691   1.561   6.681   3.465 -0.3850 -1.2754  0.1650
 8400TIP3    H246692   1.507   6.620   3.337  1.5431 -1.5411 -0.5343
 8401TIP3   OH246693   4.036   1.227  15.172  0.5598 -0.8112  0.0617
 8401TIP3    H146694   4.106   1.204  15.232  0.7417 -1.8278 -0.5383
 8401TIP3    H246695   3.955   1.206  15.220  0.5434  2.6895  1.7368
 8402TIP3   OH246696   4.840   5.100   3.704  0.0514 -0.1371 -0.8147
 8402TIP3    H146697   4.907   5.108   3.772  1.0132 -1.3275 -1.5813
 8402TIP3    H246698   4.818   5.190   3.681  2.3523  0.3084 -1.4282
 8403TIP3   OH246699   4.593   1.386   0.665 -0.3036 -0.0164 -0.2388
 8403TIP3    H146700   4.631   1.315   0.717 -0.6481 -0.4012 -0.5035
 8403TIP3    H246701   4.512   1.349   0.630 -0.4858  0.5116 -0.3792
 8404TIP3   OH246702   1.668   6.580  15.629 -0.2480 -0.4195  0.3125
 8404TIP3    H146703   1.722   6.510  15.594 -1.9154 -1.4817 -0.2156
 8404TIP3    H246704   1.656   6.640  15.555  2.4267  1.2691  1.1649
 8405TIP3   OH246705   6.572   0.589   3.949 -0.1697 -0.7167  0.5295
 8405TIP3    H146706   6.563   0.579   3.855  0.3355 -0.0750  0.4061
 8405TIP3    H246707   6.483   0.607   3.980  0.0989  2.3601 -0.2514
 8406TIP3   OH246708   1.848   5.505   4.820  0.1256  0.4437  0.3702
 8406TIP3    H146709   1.878   5.471   4.736  1.4820  2.9617 -0.2175
 8406TIP3    H246710   1.877   5.439   4.884  0.8004 -0.5409 -0.9341
 8407TIP3   OH246711   3.482   6.368  11.027  0.3537  0.6418  0.4737
 8407TIP3    H146712   3.466   6.435  10.960  1.8761 -0.1384 -0.6896
 8407TIP3    H246713   3.573   6.381  11.053  0.4488 -0.5285  0.7520
 8408TIP3   OH246714   0.874   0.016   2.557 -0.0085  0.2117 -0.2400
 8408TIP3    H146715   0.852   0.022   2.650 -2.0396 -1.2357 -0.5917
 8408TIP3    H246716   0.942  -0.051   2.552 -0.8028 -0.6261  0.0801
 8409TIP3   OH246717   3.311   5.258   5.031 -0.5481  0.0689 -0.1660
 8409TIP3    H146718   3.282   5.348   5.050  0.3756  0.5045 -0.7669
 8409TIP3    H246719   3.314   5.215   5.116 -1.1121  0.5798  0.1146
 8410TIP3   OH246720   3.953   3.445  13.293 -0.4104 -0.1862 -0.3330
 8410TIP3    H146721   3.879   3.506  13.300 -1.0862 -1.1180  0.8847
 8410TIP3    H246722   3.912   3.359  13.285  0.5351 -0.8325  1.4806
 8411TIP3   OH246723   0.783   6.506   2.067 -0.3790  0.1457  0.0506
 8411TIP3    H146724   0.691   6.491   2.047 -0.1526 -0.0607 -0.8548
 8411TIP3    H246725   0.829   6.478   1.988  0.5235 -0.6302  0.8399
 8412TIP3   OH246726   4.698   1.810   0.459  0.1289 -0.2365 -0.0605
 8412TIP3    H146727   4.675   1.842   0.372 -1.1059  0.0250  0.3468
 8412TIP3    H246728   4.615   1.810   0.507  0.5238 -1.8249  0.6621
 8413TIP3   OH246729   3.806   0.574  16.335 -0.0707  0.3851 -0.2256
 8413TIP3    H146730   3.874   0.636  16.359  2.1098 -2.6876  1.9080
 8413TIP3    H246731   3.838   0.534  16.254 -0.2472  0.2231 -0.2142
 8414TIP3   OH246732   2.937   0.381  16.753 -0.0117  0.3357 -0.0700
 8414TIP3    H146733   2.976   0.303  16.714 -0.2154 -0.2489  0.8923
 8414TIP3    H246734   2.890   0.422  16.680 -0.3633 -0.7325 -0.4561
 8415TIP3   OH246735   5.210   6.280  13.665 -0.2075 -0.7980  0.7518
 8415TIP3    H146736   5.116   6.300  13.661 -0.5444 -2.2526  1.1347
 8415TIP3    H246737   5.253   6.366  13.662 -1.5836 -0.0657  1.4188
 8416TIP3   OH246738   4.506   5.141   3.044 -0.1660 -0.0275 -0.2472
 8416TIP3    H146739   4.452   5.221   3.048 -1.4746 -0.9372  0.8560
 8416TIP3    H246740   4.566   5.149   3.118  0.2162  0.2863 -0.5889
 8417TIP3   OH246741   6.499   3.322  13.647  0.0203  0.6871 -0.7988
 8417TIP3    H146742   6.445   3.317  13.727 -1.3450  1.0002 -1.6785
 8417TIP3    H246743   6.577   3.272  13.668 -1.5226 -1.5660 -0.1811
 8418TIP3   OH246744   3.444   2.138   2.397  0.0188  0.1932  0.2377
 8418TIP3    H146745   3.532   2.133   2.359  0.1802 -0.4906  0.7139
 8418TIP3    H246746   3.456   2.117   2.489 -0.7456 -0.5646  0.1659
 8419TIP3   OH246747   0.050   5.526   4.545  0.1426  0.1632 -0.1785
 8419TIP3    H146748   0.070   5.510   4.453 -1.0071 -1.9986 -0.0944
 8419TIP3    H246749  -0.033   5.574   4.544  0.3191  0.4637 -0.2856
 8420TIP3   OH246750   1.784   4.846  14.549 -0.3532 -0.0078  0.6218
 8420TIP3    H146751   1.737   4.772  14.587  0.0201  0.2400  1.5787
 8420TIP3    H246752   1.726   4.921  14.562 -0.5681 -0.0597 -0.0128
 8421TIP3   OH246753   3.589   6.730  14.321  0.3126  0.0679 -0.4831
 8421TIP3    H146754   3.558   6.691  14.403 -0.4206 -2.0323 -1.7357
 8421TIP3    H246755   3.681   6.705  14.316  0.1994 -0.3251 -0.6031
 8422TIP3   OH246756   2.848   6.293  15.035 -0.4194  0.5111 -0.0914
 8422TIP3    H146757   2.921   6.248  15.078 -0.6289 -0.8551 -1.1018
 8422TIP3    H246758   2.889   6.360  14.982  0.0114  0.5794  0.3248
 8423TIP3   OH246759   1.659   4.202  14.741 -0.1547  0.0009  0.3941
 8423TIP3    H146760   1.753   4.216  14.725 -0.0897 -1.1281 -0.2875
 8423TIP3    H246761   1.652   4.191  14.836  0.3698  0.3573  0.4746
 8424TIP3   OH246762   3.192   6.620  12.168  0.6734  0.2243 -0.0008
 8424TIP3    H146763   3.102   6.600  12.195  0.8832  0.4028  0.8098
 8424TIP3    H246764   3.229   6.535  12.146  0.4635  0.0953  0.1370
 8425TIP3   OH246765   1.760   2.728  16.923  0.1069 -0.7504  0.7144
 8425TIP3    H146766   1.669   2.734  16.895  0.7766  2.0558 -0.9848
 8425TIP3    H246767   1.788   2.818  16.936  3.4603 -1.3771 -1.4208
 8426TIP3   OH246768   6.378   0.939  14.760  0.3231  0.1159 -0.5882
 8426TIP3    H146769   6.350   0.848  14.766  2.0168 -0.4736 -1.2435
 8426TIP3    H246770   6.450   0.947  14.823  0.4422  0.8918 -0.8046
 8427TIP3   OH246771   0.227   3.853   0.144 -0.4037 -1.1852 -0.0653
 8427TIP3    H146772   0.240   3.760   0.123  1.7192 -1.2124  1.1505
 8427TIP3    H246773   0.271   3.900   0.074 -1.1416 -1.0945 -0.4721
 8428TIP3   OH246774   5.826   1.197  11.358 -0.1451 -0.4798  0.5511
 8428TIP3    H146775   5.918   1.184  11.333  0.8719  2.4904  2.4185
 8428TIP3    H246776   5.803   1.282  11.320 -1.4337 -0.1957  1.9400
 8429TIP3   OH246777   5.048   1.325  11.234  0.4091 -0.0100  0.0602
 8429TIP3    H146778   5.118   1.337  11.298  0.8260  0.2677 -0.4403
 8429TIP3    H246779   4.970   1.308  11.286  0.7702  0.0884  0.6373
 8430TIP3   OH246780   2.285   5.134   1.965  0.3097 -0.3649 -0.6410
 8430TIP3    H146781   2.247   5.183   1.892 -0.2833  1.8503  1.1128
 8430TIP3    H246782   2.213   5.123   2.027  0.3235 -3.8305 -1.1234
 8431TIP3   OH246783   0.959   1.433  15.101 -0.0464 -0.3630 -0.4108
 8431TIP3    H146784   0.917   1.498  15.157  0.3509 -0.8512  0.4813
 8431TIP3    H246785   1.052   1.451  15.109  0.0095 -0.4216 -0.9370
 8432TIP3   OH246786   3.777   6.698   1.363 -0.0352  0.2389 -0.6975
 8432TIP3    H146787   3.784   6.791   1.342 -0.2011  0.1163 -1.2986
 8432TIP3    H246788   3.693   6.671   1.327 -0.5127  0.1176  0.4826
 8433TIP3   OH246789   3.753   5.431  15.220  0.3824  0.3176 -0.5516
 8433TIP3    H146790   3.745   5.337  15.237  1.0630  0.3058 -0.2500
 8433TIP3    H246791   3.848   5.446  15.214  0.4057  1.3983  1.7807
 8434TIP3   OH246792   3.897   1.840   1.239 -0.1507  0.9012  0.1866
 8434TIP3    H146793   3.841   1.806   1.308  2.2708 -2.9467  0.4093
 8434TIP3    H246794   3.876   1.786   1.162  1.8483  0.6930 -0.2392
 8435TIP3   OH246795   3.119   5.818  11.135 -0.2295  1.1724 -0.3751
 8435TIP3    H146796   3.139   5.782  11.048  0.5985  1.6557 -0.3950
 8435TIP3    H246797   3.205   5.836  11.173 -0.6333  2.9592 -0.2980
 8436TIP3   OH246798   5.873   5.201  11.423  0.1928 -0.4505 -0.1465
 8436TIP3    H146799   5.778   5.194  11.421  0.1867 -0.6423  0.6011
 8436TIP3    H246800   5.891   5.291  11.395 -0.3353  0.3615  1.9598
 8437TIP3   OH246801   1.556   1.515   1.095 -0.1066 -0.2382  0.7117
 8437TIP3    H146802   1.585   1.536   1.183 -0.2681  0.3249  0.6297
 8437TIP3    H246803   1.626   1.546   1.038  0.5044 -1.5945  0.7093
 8438TIP3   OH246804   3.841   0.249  11.200 -0.5802  0.9776 -0.3223
 8438TIP3    H146805   3.831   0.343  11.187 -1.4877  0.9053 -0.1911
 8438TIP3    H246806   3.784   0.229  11.275  0.5855  0.5364  0.4579
 8439TIP3   OH246807   2.267   3.263  15.581  0.5435 -0.1221  0.2291
 8439TIP3    H146808   2.220   3.321  15.641  0.0236  0.2411 -0.5192
 8439TIP3    H246809   2.256   3.304  15.495  0.2629 -1.2708 -0.2876
 8440TIP3   OH246810   2.532   0.408   3.013  0.3044  0.2104  0.3467
 8440TIP3    H146811   2.607   0.412   2.955  0.1269  3.1992  0.2100
 8440TIP3    H246812   2.469   0.469   2.974 -1.8883 -1.6602  0.8672
 8441TIP3   OH246813   4.557   0.247  13.605  0.1839  0.2733  0.1418
 8441TIP3    H146814   4.497   0.277  13.673 -1.2040 -0.1591 -0.8523
 8441TIP3    H246815   4.563   0.152  13.619  0.6669  0.3242  0.2673
 8442TIP3   OH246816   4.278   3.251  16.756 -0.2376  0.0005  0.0219
 8442TIP3    H146817   4.191   3.243  16.795  0.3536  0.5406  1.4823
 8442TIP3    H246818   4.314   3.331  16.794  1.9575 -1.6542  1.5821
 8443TIP3   OH246819   3.009   0.409   2.546 -0.2525 -0.3137 -0.6390
 8443TIP3    H146820   3.016   0.501   2.523 -1.1636 -0.1698 -0.3399
 8443TIP3    H246821   3.021   0.362   2.463 -0.3895  0.0941 -0.8906
 8444TIP3   OH246822   2.495   5.878   2.627 -0.4808  1.0264  0.4631
 8444TIP3    H146823   2.424   5.838   2.677  0.0556 -0.2023  0.2788
 8444TIP3    H246824   2.452   5.919   2.552 -1.1663  1.8490  1.2892
 8445TIP3   OH246825   5.821   6.227  13.604 -1.1607 -0.0641  0.0498
 8445TIP3    H146826   5.804   6.271  13.521  0.6839  0.5813 -0.0070
 8445TIP3    H246827   5.816   6.296  13.670  1.2781  0.2090  0.0090
 8446TIP3   OH246828   5.991   3.078   4.901 -0.3359 -0.2326  0.4298
 8446TIP3    H146829   6.005   3.173   4.907  1.7773 -0.4392 -0.7100
 8446TIP3    H246830   5.904   3.069   4.864  0.0729  1.3027 -0.9728
 8447TIP3   OH246831   0.625   5.015   4.891 -0.0349  0.1649 -0.4528
 8447TIP3    H146832   0.625   4.939   4.832 -0.0766 -0.1563 -0.0422
 8447TIP3    H246833   0.557   5.072   4.856  1.6545  1.1577 -2.2253
 8448TIP3   OH246834   1.000   5.936   4.776  0.0772 -0.0956 -0.4229
 8448TIP3    H146835   0.966   5.917   4.688  1.2494  0.1708 -0.9431
 8448TIP3    H246836   1.088   5.970   4.761  0.6703 -0.9986  0.9139
 8449TIP3   OH246837   0.491   0.430  15.328  0.5083 -0.1070 -0.0486
 8449TIP3    H146838   0.563   0.379  15.290  0.5252  0.2133 -0.4378
 8449TIP3    H246839   0.527   0.466  15.409  0.3089 -1.2272  0.5585
 8450TIP3   OH246840   5.687   5.905   0.916 -0.2420 -0.1455 -0.1661
 8450TIP3    H146841   5.654   5.994   0.904 -2.2836 -0.9909 -0.9885
 8450TIP3    H246842   5.627   5.865   0.978  0.5665 -1.0218  0.0564
 8451TIP3   OH246843   2.278   6.175   4.548  0.1288 -0.6191 -0.4211
 8451TIP3    H146844   2.323   6.221   4.619 -0.0783 -2.2461  0.8022
 8451TIP3    H246845   2.190   6.158   4.582 -0.2947 -0.5358 -1.4567
 8452TIP3   OH246846   2.687   6.412  13.174 -0.2583 -0.1007 -0.1462
 8452TIP3    H146847   2.634   6.351  13.122  1.4327 -0.1600 -1.8432
 8452TIP3    H246848   2.764   6.361  13.200  1.3383  1.3564 -1.8764
 8453TIP3   OH246849   3.734   4.023   0.594 -0.6456 -0.2812  0.0724
 8453TIP3    H146850   3.823   3.986   0.595 -0.0270  1.1053 -1.7319
 8453TIP3    H246851   3.740   4.102   0.648 -0.0048  1.4639 -2.4713
 8454TIP3   OH246852   0.470   4.856  16.494 -0.2434 -0.1216 -0.3110
 8454TIP3    H146853   0.439   4.841  16.405  1.5671  0.9821 -1.1537
 8454TIP3    H246854   0.441   4.945  16.515  2.9371  1.2299 -1.4121
 8455TIP3   OH246855   4.441   3.948   2.212  0.4146 -0.1256 -0.0957
 8455TIP3    H146856   4.531   3.955   2.244  0.0173  0.6539  0.8556
 8455TIP3    H246857   4.414   3.860   2.238 -0.0928  0.7064  2.2090
 8456TIP3   OH246858   4.641   2.532   3.780  0.8306  0.2257  0.1465
 8456TIP3    H146859   4.547   2.517   3.784  0.5448  2.2901  2.1277
 8456TIP3    H246860   4.676   2.491   3.859  1.5592 -0.1625 -0.3630
 8457TIP3   OH246861   6.293   5.242  10.713  0.6099 -0.4058  0.3292
 8457TIP3    H146862   6.219   5.254  10.773  1.2626 -3.3113  1.8239
 8457TIP3    H246863   6.366   5.217  10.770  2.3149  0.7642 -1.2962
 8458TIP3   OH246864   5.961   0.714  15.677 -0.1034  0.2729 -0.6253
 8458TIP3    H146865   6.030   0.738  15.738  0.1614  1.1995 -1.2814
 8458TIP3    H246866   5.887   0.768  15.700 -0.5739 -0.6229 -0.0124
 8459TIP3   OH246867   2.299   5.014   4.387  0.3483  0.1190  0.1066
 8459TIP3    H146868   2.223   5.073   4.391  0.1270 -0.1204 -0.4475
 8459TIP3    H246869   2.270   4.935   4.431  0.4643  0.2321  0.3840
 8460TIP3   OH246870   1.841   6.676   1.845  0.5683 -0.2841  0.4006
 8460TIP3    H146871   1.885   6.682   1.760 -0.1174  0.5422  0.0946
 8460TIP3    H246872   1.754   6.714   1.830  0.9920  1.3288  1.8498
 8461TIP3   OH246873   2.761   4.567   3.753 -0.1976  0.1995 -0.7118
 8461TIP3    H146874   2.688   4.606   3.801  1.1469  3.4927 -1.1843
 8461TIP3    H246875   2.741   4.584   3.661  0.8913  0.7030 -0.8629
 8462TIP3   OH246876   2.732   3.325   2.037 -0.2630  0.5085 -0.0047
 8462TIP3    H146877   2.736   3.414   2.001 -1.6147 -0.0666 -1.6490
 8462TIP3    H246878   2.641   3.299   2.027  0.3067 -1.4140 -0.4517
 8463TIP3   OH246879   1.989   3.294  14.558  0.3122  0.1756 -0.0807
 8463TIP3    H146880   1.902   3.285  14.597 -0.1043  0.2968 -0.9732
 8463TIP3    H246881   2.009   3.387  14.567 -0.6355  0.5848 -1.9200
 8464TIP3   OH246882   2.546   4.850  13.751  0.1994 -0.1985  0.4956
 8464TIP3    H146883   2.556   4.790  13.676 -0.8844  0.3903 -0.1260
 8464TIP3    H246884   2.495   4.800  13.815  1.1983 -0.7342  0.8900
 8465TIP3   OH246885   1.781   6.817  10.417  0.2017  0.2237  0.2628
 8465TIP3    H146886   1.817   6.900  10.448  1.4916  0.3233 -1.4795
 8465TIP3    H246887   1.695   6.840  10.382 -0.0764  0.5681  1.1561
 8466TIP3   OH246888   2.333   3.808   2.800 -0.1138  0.4146  0.0103
 8466TIP3    H146889   2.403   3.867   2.771  0.2436  0.4106  0.8581
 8466TIP3    H246890   2.253   3.860   2.788  0.3568  1.8529  2.6394
 8467TIP3   OH246891   3.995   1.424  12.900 -0.0317  0.7384 -0.5717
 8467TIP3    H146892   4.028   1.443  12.812 -2.3708 -1.2896 -1.9450
 8467TIP3    H246893   4.008   1.330  12.911 -0.6997  0.8032  0.8457
 8468TIP3   OH246894   4.213   4.372  16.336  0.0300  0.0613 -0.2403
 8468TIP3    H146895   4.162   4.444  16.298 -0.2229  0.1360  0.2336
 8468TIP3    H246896   4.272   4.415  16.399 -0.3004 -0.1720  0.2289
 8469TIP3   OH246897   1.123   4.233   6.876  0.4070  0.1699  0.3898
 8469TIP3    H146898   1.129   4.272   6.789 -1.4981 -0.7412 -0.1804
 8469TIP3    H246899   1.167   4.295   6.933 -1.2674  2.4153 -0.7086
 8470TIP3   OH246900   6.120   1.705  11.360 -0.1752 -0.5339  0.5104
 8470TIP3    H146901   6.078   1.619  11.353 -0.5850 -0.4923  2.1530
 8470TIP3    H246902   6.183   1.707  11.288 -1.0672 -1.7014 -0.3205
 8471TIP3   OH246903   3.816   0.353  12.333 -0.0379 -0.3140  0.1415
 8471TIP3    H146904   3.828   0.395  12.418  1.2082  2.3310 -1.3105
 8471TIP3    H246905   3.722   0.331  12.330 -0.6506  2.0746  1.0753
 8472TIP3   OH246906   3.210   6.285  12.945  0.3141  0.0141  0.0352
 8472TIP3    H146907   3.124   6.325  12.958 -0.4793 -1.5307 -0.3487
 8472TIP3    H246908   3.263   6.355  12.907 -0.7615  0.9861  0.2879
 8473TIP3   OH246909   4.327   0.784  10.592 -0.0212  0.2164  0.2917
 8473TIP3    H146910   4.250   0.790  10.649  0.1202  2.4315  0.2747
 8473TIP3    H246911   4.301   0.830  10.512  0.5714 -0.9397 -0.5934
 8474TIP3   OH246912   3.318   2.547  13.138  0.3865 -0.0134 -0.4449
 8474TIP3    H146913   3.338   2.615  13.202  1.6440 -0.8794  0.0998
 8474TIP3    H246914   3.278   2.594  13.065 -0.4484  1.0715  0.6862
 8475TIP3   OH246915   1.788   4.619   4.873  0.0456  0.0140 -0.2270
 8475TIP3    H146916   1.761   4.573   4.952  1.7454 -0.7134 -0.0575
 8475TIP3    H246917   1.812   4.707   4.904  2.1963 -0.7529  0.3115
 8476TIP3   OH246918   2.329   4.007  12.654 -0.1039 -0.2286  0.1175
 8476TIP3    H146919   2.346   4.001  12.560  1.9704  0.1152  0.4570
 8476TIP3    H246920   2.248   3.957  12.667 -1.3615  1.1478 -2.0914
 8477TIP3   OH246921   2.506   1.598  13.147  0.1742  0.0844 -0.2111
 8477TIP3    H146922   2.569   1.533  13.115  1.1872  0.7557  0.4004
 8477TIP3    H246923   2.476   1.643  13.069  1.3245  0.5396 -0.4015
 8478TIP3   OH246924   3.708   1.041  13.831  0.8122  0.2685 -0.5937
 8478TIP3    H146925   3.742   1.107  13.892 -1.9455  1.2907 -0.0831
 8478TIP3    H246926   3.674   1.091  13.757 -2.3580 -0.4020  0.3040
 8479TIP3   OH246927   5.676   4.966  15.847  0.5550 -0.0099  0.0371
 8479TIP3    H146928   5.686   4.986  15.754 -1.6888  1.2064  0.0224
 8479TIP3    H246929   5.659   4.872  15.850  0.5862 -0.0395 -0.7789
 8480TIP3   OH246930   2.044   6.590   5.940  0.1591 -0.4279  0.2674
 8480TIP3    H146931   1.957   6.602   5.900 -0.2341 -1.3431  0.8136
 8480TIP3    H246932   2.049   6.656   6.008 -0.4184 -0.8583  0.7311
 8481TIP3   OH246933   0.576   0.850   5.618  0.9948 -0.2387  0.2143
 8481TIP3    H146934   0.564   0.762   5.582  0.1658 -0.1170  0.1873
 8481TIP3    H246935   0.558   0.841   5.711  0.5473 -0.0301  0.1505
 8482TIP3   OH246936   3.498   6.257   3.369  0.2788 -0.0289 -0.0100
 8482TIP3    H146937   3.437   6.300   3.309  1.3648  0.8489 -0.4946
 8482TIP3    H246938   3.487   6.164   3.351 -1.4047  0.0918  0.3816
 8483TIP3   OH246939   3.641   6.649   1.725 -0.6087  0.0980  0.1589
 8483TIP3    H146940   3.632   6.633   1.819 -1.2422  0.0656  0.0973
 8483TIP3    H246941   3.660   6.743   1.718 -0.4926  0.0858  0.3232
 8484TIP3   OH246942   2.857   1.728   1.424 -0.6176 -0.5578  0.0537
 8484TIP3    H146943   2.901   1.789   1.484 -1.5668  2.0949 -1.8066
 8484TIP3    H246944   2.766   1.725   1.456 -0.8840  0.0712 -0.6254
 8485TIP3   OH246945   3.436   3.727   6.364  0.2392  0.3500  0.6174
 8485TIP3    H146946   3.419   3.820   6.348  2.6939  0.7688  0.2131
 8485TIP3    H246947   3.530   3.717   6.347 -0.6541 -2.9920 -3.2422
 8486TIP3   OH246948   1.333   4.230  15.623  0.2662  0.4632 -0.4533
 8486TIP3    H146949   1.313   4.284  15.547 -0.5179  2.2360  0.9866
 8486TIP3    H246950   1.404   4.277  15.668 -0.4871  0.3817  0.8596
 8487TIP3   OH246951   2.651   6.452  15.844  0.5513 -0.4835 -0.9107
 8487TIP3    H146952   2.658   6.357  15.847 -1.4229 -0.6507 -0.9536
 8487TIP3    H246953   2.568   6.469  15.800  0.9269  1.2603 -0.9967
 8488TIP3   OH246954   0.597   1.449   4.126 -0.2092  0.3963 -0.0700
 8488TIP3    H146955   0.547   1.531   4.118  0.1403  0.6567  0.4144
 8488TIP3    H246956   0.617   1.442   4.219  0.1130 -0.0359 -0.1708
 8489TIP3   OH246957   1.190   5.844  14.661 -0.5389 -0.0420 -0.5812
 8489TIP3    H146958   1.122   5.787  14.696 -1.1155  0.0665 -1.4928
 8489TIP3    H246959   1.162   5.862  14.571 -0.6493  2.1488 -0.1309
 8490TIP3   OH246960   0.322   3.446   4.824  0.2012 -0.2162 -0.5093
 8490TIP3    H146961   0.244   3.473   4.777  0.6136 -1.1108 -1.7373
 8490TIP3    H246962   0.291   3.383   4.889 -0.5019  1.7561  1.0890
 8491TIP3   OH246963   0.257   6.426  17.060  0.0106 -0.0656  0.0557
 8491TIP3    H146964   0.329   6.424  16.997 -0.7461  0.4140 -0.8340
 8491TIP3    H246965   0.249   6.519  17.085  0.6840 -0.3321  1.3005
 8492TIP3   OH246966   0.451   2.619   1.587 -0.4509 -0.2912 -0.3244
 8492TIP3    H146967   0.450   2.685   1.517 -1.2489 -0.5778 -0.5994
 8492TIP3    H246968   0.463   2.670   1.667  3.7745 -0.2254 -0.8999
 8493TIP3   OH246969   5.016   4.750   0.987  0.0123 -0.1079 -0.0015
 8493TIP3    H146970   5.014   4.654   0.977  2.2370 -0.1768 -0.2238
 8493TIP3    H246971   4.938   4.771   1.037 -0.0812 -2.1579  0.7654
 8494TIP3   OH246972   0.625   2.095   3.564  0.6093  0.1900  0.3360
 8494TIP3    H146973   0.590   2.016   3.523 -0.0941  0.8002 -0.2519
 8494TIP3    H246974   0.643   2.069   3.654 -2.3937  0.1362  0.9877
 8495TIP3   OH246975   2.186   0.497   4.303 -0.9792 -0.3580  0.3853
 8495TIP3    H146976   2.155   0.587   4.312 -1.2823 -0.5392  1.2069
 8495TIP3    H246977   2.115   0.451   4.258 -0.3207  0.0796 -1.1385
 8496TIP3   OH246978   3.750   2.778  11.440  0.2421  0.7109  0.0131
 8496TIP3    H146979   3.699   2.851  11.477  1.8119  1.4336  0.8455
 8496TIP3    H246980   3.753   2.796  11.346 -0.3071  1.1264  0.0698
 8497TIP3   OH246981   0.315   0.096   4.649  0.2710 -0.0708  0.2155
 8497TIP3    H146982   0.349   0.011   4.620 -0.8583 -1.3581  2.4782
 8497TIP3    H246983   0.240   0.073   4.705 -0.0771  2.4297  0.8144
 8498TIP3   OH246984   2.437   5.581   0.850 -0.3313  0.0453  0.5672
 8498TIP3    H146985   2.368   5.515   0.858 -1.8191  1.6355  1.1336
 8498TIP3    H246986   2.422   5.622   0.764 -0.4299  0.7605  0.9206
 8499TIP3   OH246987   6.482   6.365   3.078 -0.3407  0.0601  0.3842
 8499TIP3    H146988   6.516   6.449   3.110 -1.6061  1.4818 -1.8717
 8499TIP3    H246989   6.545   6.338   3.011  1.1704 -1.8784  2.4733
 8500TIP3   OH246990   6.339   0.610   5.166 -0.1881  0.3685 -0.5227
 8500TIP3    H146991   6.322   0.522   5.199 -2.4032  0.1203 -2.2420
 8500TIP3    H246992   6.321   0.667   5.240  0.0567 -0.5302  0.2410
 8501TIP3   OH246993   6.242   5.849  13.715 -0.0789 -0.2127  0.3505
 8501TIP3    H146994   6.253   5.807  13.630  1.8270  2.9911 -1.0668
 8501TIP3    H246995   6.169   5.911  13.702  0.4846  0.5844  0.9110
 8502TIP3   OH246996   0.896   2.367   4.151 -0.0169  0.0934  0.1003
 8502TIP3    H146997   0.922   2.427   4.221  0.1811  0.2163 -0.0775
 8502TIP3    H246998   0.970   2.307   4.142  0.9376  1.5020 -1.5778
 8503TIP3   OH246999   5.522   5.598  14.907  0.3878 -0.4278  0.3161
 8503TIP3    H147000   5.468   5.524  14.880  0.6640 -0.9894  1.2955
 8503TIP3    H247001   5.599   5.593  14.850  0.1370 -0.5422 -0.0155
 8504TIP3   OH247002   1.642   1.933   2.878 -0.6152 -0.1341  0.0140
 8504TIP3    H147003   1.675   1.881   2.952  0.0583 -0.6429 -0.6336
 8504TIP3    H247004   1.694   1.903   2.803 -0.6948  0.9866 -0.4991
 8505TIP3   OH247005   5.284   1.675  11.444  0.3983  0.1880 -0.1956
 8505TIP3    H147006   5.273   1.724  11.525  1.4558 -0.2449  0.2217
 8505TIP3    H247007   5.347   1.726  11.393  1.3758 -0.6492  0.1711
 8506TIP3   OH247008   0.196   2.359  13.619  0.4671 -0.7775  0.1618
 8506TIP3    H147009   0.146   2.440  13.616  0.9036 -0.4292  1.7745
 8506TIP3    H247010   0.153   2.301  13.556 -0.0882  0.5561 -0.6975
 8507TIP3   OH247011   0.321   2.428  14.792 -0.3037  0.4924 -0.3240
 8507TIP3    H147012   0.284   2.401  14.875 -1.5514 -0.3783 -1.1465
 8507TIP3    H247013   0.365   2.350  14.758  1.7042  1.3153  0.3079
 8508TIP3   OH247014   5.445   2.050  14.555 -0.2269 -0.0669  0.8678
 8508TIP3    H147015   5.465   1.991  14.482  0.9732 -0.5820  1.6013
 8508TIP3    H247016   5.373   2.104  14.523 -0.7882 -1.3669 -0.1303
 8509TIP3   OH247017   4.834   4.568   3.518  0.2666  0.0362 -0.0271
 8509TIP3    H147018   4.847   4.562   3.423 -0.7758  2.3965 -0.3708
 8509TIP3    H247019   4.906   4.623   3.549  1.5458 -2.0666  0.8298
 8510TIP3   OH247020   0.238   2.954   0.955 -0.4996  0.1881 -0.4354
 8510TIP3    H147021   0.194   2.939   0.871 -1.4301  0.2696  0.0300
 8510TIP3    H247022   0.176   3.008   1.005  0.1334  0.3045  0.2309
 8511TIP3   OH247023   6.438   5.359  16.808  0.8560  0.2267 -0.3259
 8511TIP3    H147024   6.522   5.325  16.839  1.5296  1.1321 -1.1112
 8511TIP3    H247025   6.462   5.437  16.757 -0.4777  0.5924 -0.3963
 8512TIP3   OH247026   5.678   4.662  15.020 -0.6427 -0.2638 -0.3907
 8512TIP3    H147027   5.635   4.747  15.024 -0.2429 -0.0956  0.5928
 8512TIP3    H247028   5.760   4.678  14.973 -1.4908 -0.5179 -1.9681
 8513TIP3   OH247029   2.291   5.852   2.893  0.1021  0.0915  0.2370
 8513TIP3    H147030   2.342   5.883   2.968  0.5538  0.8540 -0.3841
 8513TIP3    H247031   2.316   5.760   2.884 -1.1716 -0.4537  2.0148
 8514TIP3   OH247032   6.350   4.605  12.893  0.4159 -0.3904 -0.3018
 8514TIP3    H147033   6.385   4.521  12.923 -0.1637 -0.7195 -0.5306
 8514TIP3    H247034   6.318   4.647  12.973  0.0394 -0.7104 -0.2811
 8515TIP3   OH247035   0.515   5.786  16.203 -0.2046 -0.5896 -0.0012
 8515TIP3    H147036   0.574   5.861  16.212 -0.3129 -0.6161  1.0091
 8515TIP3    H247037   0.561   5.726  16.145 -0.1631  0.3094 -0.9060
 8516TIP3   OH247038   3.059   0.669  14.513 -0.4477  0.3376 -0.2372
 8516TIP3    H147039   3.026   0.705  14.431  0.6772 -0.3593 -0.9988
 8516TIP3    H247040   3.094   0.745  14.560 -1.8007  0.8634 -0.0323
 8517TIP3   OH247041   5.973   6.319  12.257  0.0806 -0.1501 -0.2565
 8517TIP3    H147042   5.977   6.341  12.165  0.5812 -0.8737 -0.4199
 8517TIP3    H247043   5.895   6.364  12.290 -1.6036 -1.9773 -1.6030
 8518TIP3   OH247044   6.790   5.926  13.075 -0.8159  0.2924 -0.3724
 8518TIP3    H147045   6.864   5.976  13.040  0.5577 -0.5179  1.2494
 8518TIP3    H247046   6.739   5.991  13.124 -0.6564  0.6884 -0.7239
 8519TIP3   OH247047   2.880   5.255  11.156 -0.0736 -0.1821 -0.4882
 8519TIP3    H147048   2.968   5.290  11.168 -0.2079  0.0381 -0.1510
 8519TIP3    H247049   2.852   5.289  11.071 -0.7224  1.6439  0.4236
 8520TIP3   OH247050   3.929   0.174  12.173  0.1554 -0.4128 -0.5647
 8520TIP3    H147051   3.880   0.186  12.093 -0.0763 -0.6059 -0.4541
 8520TIP3    H247052   3.899   0.243  12.232  1.6483  0.8656 -1.2670
 8521TIP3   OH247053   3.061   2.811  11.275  0.3021  0.2936 -0.0197
 8521TIP3    H147054   3.037   2.824  11.183  2.3921  1.7839 -0.3980
 8521TIP3    H247055   2.985   2.768  11.314 -1.8679  2.3969 -1.7566
 8522TIP3   OH247056   3.511   1.630   5.946  0.5343 -0.2492  0.2186
 8522TIP3    H147057   3.468   1.545   5.938  0.7814 -0.3254 -0.2810
 8522TIP3    H247058   3.516   1.664   5.857 -0.4089  0.7169  0.5148
 8523TIP3   OH247059   5.114   2.595  12.223  0.1126  0.3507  0.2612
 8523TIP3    H147060   5.052   2.548  12.279  1.5489 -2.1500 -0.1942
 8523TIP3    H247061   5.097   2.560  12.135 -0.5728  2.6003 -0.5238
 8524TIP3   OH247062   4.182   1.573  13.064 -0.3914  0.2576 -0.4571
 8524TIP3    H147063   4.178   1.659  13.022 -3.0324  0.1672 -0.4563
 8524TIP3    H247064   4.124   1.518  13.011  0.3339 -1.2139  0.2541
 8525TIP3   OH247065   2.379   5.787   1.838  0.5079 -0.1355 -0.2122
 8525TIP3    H147066   2.297   5.835   1.840 -0.5886 -1.9975  0.5018
 8525TIP3    H247067   2.425   5.815   1.917 -0.3326 -0.6010  0.4472
 8526TIP3   OH247068   1.238   1.139   1.227 -0.3878 -0.1565  0.1618
 8526TIP3    H147069   1.216   1.232   1.230  1.1096  0.2008  0.6394
 8526TIP3    H247070   1.331   1.135   1.251  0.5294 -1.4074 -3.1373
 8527TIP3   OH247071   3.025   2.733   0.843 -0.0080  0.2249 -0.0175
 8527TIP3    H147072   3.070   2.804   0.890  0.4358  0.0214 -0.1276
 8527TIP3    H247073   3.085   2.659   0.850  0.3426  0.3619 -1.4311
 8528TIP3   OH247074   4.181   1.552   3.963 -0.0441 -0.7765  0.1135
 8528TIP3    H147075   4.130   1.493   4.018 -2.8583  0.4202 -1.1153
 8528TIP3    H247076   4.190   1.632   4.015  1.0705 -1.1693  0.5386
 8529TIP3   OH247077   5.653   4.464   2.588 -0.1323 -0.0327 -0.0028
 8529TIP3    H147078   5.718   4.395   2.601  1.4577  1.0035 -2.0701
 8529TIP3    H247079   5.625   4.454   2.497 -3.1838 -0.6886  0.9666
 8530TIP3   OH247080   2.213   2.938   6.714  0.4860 -0.5099 -0.0843
 8530TIP3    H147081   2.263   2.988   6.649  0.3852  1.9241  1.6476
 8530TIP3    H247082   2.229   2.847   6.690  1.6288  0.2870 -2.6440
 8531TIP3   OH247083   4.276   3.512  16.853 -0.4401 -0.2202 -0.8297
 8531TIP3    H147084   4.216   3.577  16.817  0.0623  1.0881  0.6390
 8531TIP3    H247085   4.248   3.500  16.944 -2.4582 -4.3851 -1.8513
 8532TIP3   OH247086   5.771   3.801   0.032 -0.0706 -0.3289  0.0868
 8532TIP3    H147087   5.859   3.767   0.016  0.4470 -0.1285  2.3148
 8532TIP3    H247088   5.714   3.724   0.029 -0.1076 -0.2260 -3.1492
 8533TIP3   OH247089   2.074   2.707   0.132 -0.0374 -0.1252  0.4713
 8533TIP3    H147090   1.983   2.681   0.145 -0.2829 -1.5427 -3.5350
 8533TIP3    H247091   2.072   2.802   0.125 -0.9091  0.0050  2.1676
 8534TIP3   OH247092   5.145   1.674  15.653 -0.1818  0.0640 -0.0915
 8534TIP3    H147093   5.220   1.707  15.703  0.6524 -1.7626 -0.0950
 8534TIP3    H247094   5.104   1.752  15.617  2.5934  1.0032 -1.3305
 8535TIP3   OH247095   0.679   4.447   0.777 -0.0501  0.4978  0.2120
 8535TIP3    H147096   0.749   4.397   0.819 -1.5654 -1.2411  0.7234
 8535TIP3    H247097   0.654   4.394   0.701 -1.2069  0.7902  0.3796
 8536TIP3   OH247098   5.079   5.607   4.059  0.4602  0.3350 -0.3387
 8536TIP3    H147099   5.106   5.612   3.967 -0.2700 -0.1204 -0.5828
 8536TIP3    H247100   5.039   5.520   4.068 -0.7657  0.9312  0.0484
 8537TIP3   OH247101   3.400   2.525  14.756 -0.0014 -0.7655 -0.0918
 8537TIP3    H147102   3.420   2.479  14.837  1.9139  0.0821 -0.0499
 8537TIP3    H247103   3.478   2.513  14.702 -0.1625  0.9999 -0.7405
 8538TIP3   OH247104   1.514   6.794  16.068  0.3886  0.2643  0.1755
 8538TIP3    H147105   1.578   6.759  16.006 -0.2604  1.9491 -1.4996
 8538TIP3    H247106   1.429   6.773  16.029 -0.0322  0.9651  0.6911
 8539TIP3   OH247107   3.758   1.700  13.282 -0.2017 -0.3816  0.2006
 8539TIP3    H147108   3.778   1.793  13.273 -0.9138 -0.0429  1.7867
 8539TIP3    H247109   3.840   1.659  13.309 -0.3733  0.1523  1.5866
 8540TIP3   OH247110   2.595   6.147   0.519  0.2529 -0.0101  0.4912
 8540TIP3    H147111   2.604   6.108   0.606 -0.1073 -1.3430 -0.0699
 8540TIP3    H247112   2.537   6.223   0.533 -1.0438 -1.1040  1.1385
 8541TIP3   OH247113   3.796   1.611   3.483  0.5505 -0.0248  0.6536
 8541TIP3    H147114   3.813   1.562   3.563  0.1440 -1.0706  0.1112
 8541TIP3    H247115   3.724   1.563   3.441  0.0256  1.1454  0.2097
 8542TIP3   OH247116   1.542   0.892  13.815  0.1504  0.0392  0.3861
 8542TIP3    H147117   1.584   0.845  13.887 -1.2926 -1.6581  0.1395
 8542TIP3    H247118   1.449   0.892  13.836  0.0123  2.0217 -0.0764
 8543TIP3   OH247119   1.072   4.778  16.584  0.1054  0.4307 -0.0813
 8543TIP3    H147120   1.115   4.693  16.584  1.7099  1.2015  2.0655
 8543TIP3    H247121   1.085   4.812  16.496  1.4411 -0.5683 -0.2711
 8544TIP3   OH247122   1.795   2.092   1.904 -0.6946 -0.3447  0.3142
 8544TIP3    H147123   1.707   2.119   1.932 -0.8716 -0.3556 -0.2286
 8544TIP3    H247124   1.804   2.003   1.937 -0.7568 -0.2229  0.6645
 8545TIP3   OH247125   4.190   1.474  16.513  0.1482  0.3702  0.3239
 8545TIP3    H147126   4.121   1.537  16.492 -0.2198 -0.3586 -0.6593
 8545TIP3    H247127   4.143   1.398  16.548  0.5791  0.5530  1.3179
 8546TIP3   OH247128   5.708   5.695  11.289  0.0623 -0.3430  0.5382
 8546TIP3    H147129   5.642   5.764  11.290  0.9740  0.5592 -0.0695
 8546TIP3    H247130   5.769   5.721  11.219  0.4282 -1.7485  0.3116
 8547TIP3   OH247131   0.300   1.133   5.696 -0.2249 -0.6407 -0.3327
 8547TIP3    H147132   0.208   1.158   5.708  0.0091  1.0993 -1.8474
 8547TIP3    H247133   0.347   1.217   5.695  0.9976 -1.3249 -2.5218
 8548TIP3   OH247134   1.594   4.208   6.198 -0.2040  0.2637 -0.6242
 8548TIP3    H147135   1.640   4.271   6.252 -0.5984 -0.3272  0.4221
 8548TIP3    H247136   1.597   4.126   6.248 -0.4620 -0.3309 -1.5515
 8549TIP3   OH247137   0.733   1.950   0.562 -0.1555 -0.4050  0.2857
 8549TIP3    H147138   0.740   1.875   0.621  1.3850 -1.4969 -1.2307
 8549TIP3    H247139   0.659   1.930   0.505  0.6125 -1.0744 -0.4956
 8550TIP3   OH247140   5.002   4.852   0.039 -0.0167 -0.1800  0.5257
 8550TIP3    H147141   4.918   4.880   0.073  1.2633  3.2282  1.0496
 8550TIP3    H247142   4.999   4.874  -0.054  0.1782 -0.3690  0.4732
 8551TIP3   OH247143   1.421   4.943  11.831  0.0432 -0.2220  0.2823
 8551TIP3    H147144   1.396   4.932  11.739 -0.5564  0.6280  0.3379
 8551TIP3    H247145   1.366   4.880  11.878  0.3368 -0.6433  0.0640
 8552TIP3   OH247146   2.032   3.898  14.282  0.0320 -0.8469 -0.2402
 8552TIP3    H147147   1.944   3.934  14.286  1.3953  2.4712  1.9471
 8552TIP3    H247148   2.070   3.936  14.203 -0.0180 -1.2087 -0.4435
 8553TIP3   OH247149   5.556   0.897   0.262 -0.0573  0.6094  0.0006
 8553TIP3    H147150   5.490   0.831   0.282  0.9691 -0.1406  0.9750
 8553TIP3    H247151   5.547   0.961   0.332  0.0340  0.6721 -0.0453
 8554TIP3   OH247152   5.895   0.361   0.960 -0.2093 -0.4517  0.7967
 8554TIP3    H147153   5.943   0.442   0.979  3.1604 -2.2536  0.4006
 8554TIP3    H247154   5.909   0.306   1.036 -0.0299 -1.7480 -0.1541
 8555TIP3   OH247155   5.367   5.638  11.449 -0.3622  0.3178 -0.0472
 8555TIP3    H147156   5.424   5.572  11.409 -1.8881 -1.0274 -0.0109
 8555TIP3    H247157   5.362   5.708  11.383 -0.0230 -0.2989 -0.7367
 8556TIP3   OH247158   5.248   6.416   4.035 -0.1839 -0.0385 -0.2451
 8556TIP3    H147159   5.220   6.444   4.122  0.6345  0.5280 -0.1539
 8556TIP3    H247160   5.342   6.400   4.045 -0.2367 -0.7126 -0.8388
 8557TIP3   OH247161   0.036   6.539  10.956 -0.1065  0.3229 -0.4249
 8557TIP3    H147162  -0.019   6.563  11.031  0.3562  1.1060 -0.3291
 8557TIP3    H247163   0.069   6.622  10.923  0.3783 -0.0848 -0.9747
 8558TIP3   OH247164   2.664   6.208   1.587 -0.2798  0.0024  0.3626
 8558TIP3    H147165   2.612   6.272   1.538 -2.8021 -1.1679  1.4287
 8558TIP3    H247166   2.668   6.132   1.530  0.4335  0.1449  0.2162
 8559TIP3   OH247167   5.848   2.140  12.525 -0.1989 -0.3324 -0.0038
 8559TIP3    H147168   5.769   2.154  12.472  0.4478 -0.9395 -1.1455
 8559TIP3    H247169   5.895   2.223  12.521 -1.1546  0.2958  1.3428
 8560TIP3   OH247170   2.167   0.248   6.350  0.3286 -0.1117 -0.3099
 8560TIP3    H147171   2.157   0.245   6.445 -1.3534 -0.5958 -0.4835
 8560TIP3    H247172   2.208   0.333   6.333  0.4118  0.0794  0.8357
 8561TIP3   OH247173   5.026   2.006  11.917 -0.3515  0.1243  0.5789
 8561TIP3    H147174   4.960   2.073  11.937 -0.2798 -0.3794  2.5596
 8561TIP3    H247175   4.980   1.923  11.933  0.6268 -0.2323  1.5817
 8562TIP3   OH247176   5.539   0.074   0.477 -0.9056 -0.0121 -0.5826
 8562TIP3    H147177   5.467   0.012   0.481 -1.4273  0.6807  1.0915
 8562TIP3    H247178   5.550   0.105   0.567  0.7515  0.7229 -1.0045
 8563TIP3   OH247179   0.392   0.779  14.752  0.3274 -0.8887 -0.0054
 8563TIP3    H147180   0.378   0.715  14.822  1.5169  1.6126  2.5676
 8563TIP3    H247181   0.462   0.740  14.698  1.6189 -1.4338  2.0038
 8564TIP3   OH247182   1.735   1.728  13.145  0.2959 -0.3819 -0.1439
 8564TIP3    H147183   1.710   1.807  13.097  0.4968 -0.4828 -0.4093
 8564TIP3    H247184   1.709   1.656  13.088 -1.1806 -0.5500  0.6908
 8565TIP3   OH247185   6.472   2.750  13.900 -0.1535  0.0442  0.5825
 8565TIP3    H147186   6.440   2.783  13.984  0.2227  1.1386  0.3028
 8565TIP3    H247187   6.424   2.801  13.835  0.6945  0.2860  0.1485
 8566TIP3   OH247188   5.291   6.590  12.708 -0.2036 -0.1488 -0.1080
 8566TIP3    H147189   5.199   6.615  12.697  0.0313  0.4379 -0.7813
 8566TIP3    H247190   5.306   6.523  12.640 -0.0743 -0.0864 -0.1397
 8567TIP3   OH247191   1.061   0.274   0.956  0.4138  0.8629 -0.4812
 8567TIP3    H147192   1.043   0.191   1.000  2.5618 -0.5761 -2.2351
 8567TIP3    H247193   1.006   0.272   0.878  1.0993  0.7001 -0.9631
 8568TIP3   OH247194   0.039   3.460  14.345  0.6197  0.4789  0.3618
 8568TIP3    H147195  -0.015   3.537  14.362 -0.1991  0.0476 -0.2423
 8568TIP3    H247196  -0.024   3.389  14.330  1.3366  0.1664 -1.2868
 8569TIP3   OH247197   5.761   4.269  17.266 -0.1382  0.4531 -0.6745
 8569TIP3    H147198   5.743   4.249  17.174  2.6193 -0.4630 -1.0701
 8569TIP3    H247199   5.750   4.364  17.272  1.0908  0.7411 -2.3367
 8570TIP3   OH247200   2.089   5.662  15.764 -0.0513 -0.3128 -0.1736
 8570TIP3    H147201   2.105   5.568  15.751  2.5669 -0.1826  1.8799
 8570TIP3    H247202   2.087   5.674  15.859  0.7742  1.8693 -0.3947
 8571TIP3   OH247203   2.487   3.763   5.873 -0.3374  0.2582 -0.2206
 8571TIP3    H147204   2.446   3.727   5.794  1.0786  0.0880 -0.8857
 8571TIP3    H247205   2.496   3.688   5.932 -2.6187  0.6321  0.6567
 8572TIP3   OH247206   2.857   0.890   6.386 -0.6290  0.4171  0.3486
 8572TIP3    H147207   2.944   0.891   6.345 -0.1660 -0.4452  1.2957
 8572TIP3    H247208   2.816   0.971   6.356  0.4437  0.7670 -0.2227
 8573TIP3   OH247209   5.696   4.259  11.315  0.0019 -0.3788  0.1592
 8573TIP3    H147210   5.781   4.231  11.282  0.0479 -1.1409  0.9131
 8573TIP3    H247211   5.713   4.290  11.404 -0.3454  0.4176 -0.0451
 8574TIP3   OH247212   5.624   5.204   0.689 -0.1231 -0.7774 -0.3518
 8574TIP3    H147213   5.551   5.164   0.736  0.7634 -0.6254  1.1956
 8574TIP3    H247214   5.616   5.298   0.708 -0.9341 -0.4680 -2.1787
 8575TIP3   OH247215   1.186   0.454  10.804  0.2941  0.4288 -0.5105
 8575TIP3    H147216   1.245   0.470  10.878 -0.5786  0.1512  0.2546
 8575TIP3    H247217   1.189   0.535  10.752  2.6047 -0.1813 -1.3685
 8576TIP3   OH247218   5.572   5.077  12.509 -0.8739 -0.4358 -0.4114
 8576TIP3    H147219   5.648   5.108  12.459 -0.7866  0.2010  0.1283
 8576TIP3    H247220   5.609   5.042  12.590 -1.0667 -1.0260 -0.5748
 8577TIP3   OH247221   3.846   1.272  16.893  0.2854  0.4425 -0.2191
 8577TIP3    H147222   3.845   1.329  16.970 -1.8369 -0.3618  0.3933
 8577TIP3    H247223   3.851   1.331  16.819  0.4623  1.3136  0.4763
 8578TIP3   OH247224   2.633   0.940   2.214 -0.1150  0.5327 -0.0860
 8578TIP3    H147225   2.697   0.869   2.217  0.2406  0.6928 -2.8223
 8578TIP3    H247226   2.573   0.921   2.286  0.4814 -2.0458 -0.2180
 8579TIP3   OH247227   4.124   1.927   2.246 -0.0459  0.0320 -0.0625
 8579TIP3    H147228   4.192   1.867   2.215  0.6714  1.5921 -1.5215
 8579TIP3    H247229   4.171   2.007   2.269 -1.1436  0.4188  0.9001
 8580TIP3   OH247230   3.208   0.997   4.956  0.1068 -0.3691  0.0110
 8580TIP3    H147231   3.118   1.004   4.925 -0.5640 -0.1268  1.9565
 8580TIP3    H247232   3.211   0.914   5.003  1.0507 -0.6457 -0.5309
 8581TIP3   OH247233   5.724   1.947  14.096 -0.1159 -0.0765  0.6975
 8581TIP3    H147234   5.677   1.959  14.014  0.4332 -2.5373 -0.0093
 8581TIP3    H247235   5.786   2.019  14.099 -0.4270  0.2731 -0.8443
 8582TIP3   OH247236   2.912   6.663   2.404  0.1986  0.3351  0.1024
 8582TIP3    H147237   2.940   6.613   2.481  1.2686  3.1357  1.6074
 8582TIP3    H247238   2.990   6.666   2.348  0.6554  1.6142  0.7670
 8583TIP3   OH247239   2.343   0.793   0.748 -0.4086 -0.7839  0.0866
 8583TIP3    H147240   2.435   0.803   0.727 -0.1042  0.5395  1.9783
 8583TIP3    H247241   2.332   0.837   0.832 -2.6406 -1.4367  0.1754
 8584TIP3   OH247242   3.179   2.059   1.349  0.0701  0.2093 -0.0829
 8584TIP3    H147243   3.101   2.031   1.397  1.4676  0.9568  2.7943
 8584TIP3    H247244   3.178   2.154   1.353  0.8868  0.2392 -0.3998
 8585TIP3   OH247245   2.457   4.208  14.200 -0.4783 -0.3634 -0.4151
 8585TIP3    H147246   2.402   4.250  14.134  0.1754  2.4060  0.7179
 8585TIP3    H247247   2.411   4.222  14.283  0.7378 -0.0651  0.2321
 8586TIP3   OH247248   3.838   1.585  11.374 -0.1764 -0.0520 -0.0291
 8586TIP3    H147249   3.792   1.610  11.455 -0.3489 -0.7957  0.1175
 8586TIP3    H247250   3.914   1.642  11.370 -1.1341  1.2212 -0.2796
 8587TIP3   OH247251   2.746   1.225  14.859 -0.1756  0.0480 -0.0231
 8587TIP3    H147252   2.800   1.162  14.811 -0.9189 -0.4478 -0.2229
 8587TIP3    H247253   2.750   1.305  14.805 -1.2318 -0.5917 -1.0791
 8588TIP3   OH247254   5.286   2.946   4.280 -0.3334 -0.2365  0.3839
 8588TIP3    H147255   5.373   2.907   4.270 -0.5062 -0.6257  0.3697
 8588TIP3    H247256   5.301   3.040   4.275 -0.0435 -0.3323 -0.6474
 8589TIP3   OH247257   2.805   4.581  12.109 -0.1624  0.3505 -0.0438
 8589TIP3    H147258   2.878   4.546  12.058 -0.3549 -0.5067  0.2790
 8589TIP3    H247259   2.769   4.506  12.156 -1.0161  0.8379  0.0953
 8590TIP3   OH247260   1.388   5.057   3.176 -0.8904 -0.7393 -0.2773
 8590TIP3    H147261   1.368   4.964   3.170  1.5776 -1.2836 -0.3733
 8590TIP3    H247262   1.411   5.083   3.087  0.6304 -0.5652  0.1558
 8591TIP3   OH247263   6.597   1.969  11.093 -0.3934 -0.5398  0.0372
 8591TIP3    H147264   6.640   2.024  11.027 -0.9230  0.8309  0.8205
 8591TIP3    H247265   6.646   1.887  11.091  2.7068  1.1846  1.3474
 8592TIP3   OH247266   4.784   6.229   1.512  0.8049 -0.3325  0.1480
 8592TIP3    H147267   4.701   6.214   1.467  0.8140 -1.7681  0.5872
 8592TIP3    H247268   4.774   6.184   1.596  0.9450  1.9481  1.4212
 8593TIP3   OH247269   5.763   3.698   4.292  0.8819 -0.0560 -0.2353
 8593TIP3    H147270   5.834   3.658   4.342  1.6428  0.0996 -1.1889
 8593TIP3    H247271   5.759   3.648   4.210 -0.9955 -0.9324  0.3534
 8594TIP3   OH247272   4.494   0.764   5.622 -0.6811  0.1206 -0.1274
 8594TIP3    H147273   4.490   0.841   5.679  1.0495  1.4447 -1.7136
 8594TIP3    H247274   4.461   0.795   5.537 -0.5337 -1.0273 -0.6106
 8595TIP3   OH247275   0.309   2.286   3.317 -1.0344  1.1144  0.0028
 8595TIP3    H147276   0.253   2.213   3.288  1.1722  0.2830 -2.3393
 8595TIP3    H247277   0.265   2.364   3.284 -1.4464  0.5512 -0.8089
 8596TIP3   OH247278   2.406   2.191   5.107  0.3176 -0.3674  0.2184
 8596TIP3    H147279   2.435   2.141   5.030 -0.7128  0.1842 -0.5384
 8596TIP3    H247280   2.446   2.277   5.096 -1.4000  0.3286 -0.7201
 8597TIP3   OH247281   0.437   3.785  12.612 -0.5004 -0.4771 -0.2650
 8597TIP3    H147282   0.404   3.785  12.522  0.3776 -2.6246 -0.6207
 8597TIP3    H247283   0.529   3.761  12.603 -0.9089 -2.7588  1.3732
 8598TIP3   OH247284   1.292   4.723  12.706 -0.7114  0.4081  0.6833
 8598TIP3    H147285   1.238   4.755  12.779 -0.1726  0.7093  0.9535
 8598TIP3    H247286   1.263   4.633  12.693 -3.3169  1.4274 -1.0854
 8599TIP3   OH247287   3.583   6.404   5.737 -0.0800 -0.1889 -0.5156
 8599TIP3    H147288   3.601   6.405   5.643  0.6765  0.2625 -0.3620
 8599TIP3    H247289   3.669   6.403   5.779 -0.4115 -1.7348  0.1594
 8600TIP3   OH247290   6.579   1.038   3.143  0.2030 -0.2624 -0.0293
 8600TIP3    H147291   6.668   1.005   3.131  0.6311  0.9127 -0.0965
 8600TIP3    H247292   6.558   1.018   3.234 -0.4874 -2.9719 -0.7279
 8601TIP3   OH247293   2.877   1.182   5.661 -0.3568  0.2099 -0.0787
 8601TIP3    H147294   2.830   1.135   5.592  0.8244 -1.4791  0.2590
 8601TIP3    H247295   2.938   1.239   5.613 -3.7152  3.6237 -0.5881
 8602TIP3   OH247296   5.899   2.912  12.141  0.4617  0.1751  0.4949
 8602TIP3    H147297   5.835   2.982  12.147  0.8786  0.5159  0.9990
 8602TIP3    H247298   5.891   2.864  12.224  0.7072  0.0880  0.4701
 8603TIP3   OH247299   3.931   3.038  12.865 -0.1331 -0.3032  0.1455
 8603TIP3    H147300   3.945   2.943  12.861  0.3137 -0.2473  0.4503
 8603TIP3    H247301   3.850   3.048  12.914  0.8809 -0.4373  1.8893
 8604TIP3   OH247302   5.368   4.640   6.029  0.2040  0.2734 -0.6848
 8604TIP3    H147303   5.309   4.703   5.987  0.9092 -0.2314 -2.4656
 8604TIP3    H247304   5.452   4.685   6.034 -0.1706  0.8132  1.4204
 8605TIP3   OH247305   1.667   6.212   0.516  0.2482  0.4665 -0.8032
 8605TIP3    H147306   1.729   6.149   0.552 -0.1977  0.8226  0.6291
 8605TIP3    H247307   1.581   6.173   0.535 -0.0511  1.7889  0.6931
 8606TIP3   OH247308   1.386   2.378   1.285 -0.8761  0.2117  0.3494
 8606TIP3    H147309   1.291   2.378   1.295 -0.8019  1.9253  1.1829
 8606TIP3    H247310   1.400   2.404   1.194 -1.1671  2.0916  0.8327
 8607TIP3   OH247311   1.915   2.945  14.329  0.1930  0.4638  0.3042
 8607TIP3    H147312   1.937   2.934  14.421  1.4892 -2.7866 -0.3448
 8607TIP3    H247313   1.909   3.040  14.317  1.9327  1.0006  3.2559
 8608TIP3   OH247314   1.767   1.326  15.308  0.0995  0.8868 -0.3054
 8608TIP3    H147315   1.763   1.240  15.266  1.5448  0.4053  0.5236
 8608TIP3    H247316   1.677   1.357  15.307 -0.2524 -0.1339 -1.6555
 8609TIP3   OH247317   6.397   6.084  13.398 -0.3922 -0.4242  0.4347
 8609TIP3    H147318   6.307   6.062  13.422 -0.0950 -2.8219 -0.5047
 8609TIP3    H247319   6.450   6.013  13.435  0.9805  0.3252 -0.0659
 8610TIP3   OH247320   6.285   4.842   0.616  0.4071 -0.2666  0.7993
 8610TIP3    H147321   6.279   4.765   0.558  0.3658  0.1304  0.2711
 8610TIP3    H247322   6.309   4.914   0.557  0.8940  0.0361  1.3696
 8611TIP3   OH247323   4.015   0.418   3.439 -0.3258  1.0039 -0.5619
 8611TIP3    H147324   3.984   0.399   3.350  0.5483  3.2619 -1.3850
 8611TIP3    H247325   4.084   0.483   3.427 -0.4417  1.6087  1.8069
 8612TIP3   OH247326   5.378   1.761  15.815 -0.2784 -0.5168 -0.2875
 8612TIP3    H147327   5.451   1.823  15.824 -0.0633 -0.7020 -0.7329
 8612TIP3    H247328   5.407   1.682  15.860 -0.2245 -0.5728 -0.4198
 8613TIP3   OH247329   2.690   1.447   3.632  0.1579 -0.2202  0.1850
 8613TIP3    H147330   2.761   1.506   3.607  1.3624 -1.1172  1.4244
 8613TIP3    H247331   2.656   1.483   3.714 -1.3269  0.6244 -0.7849
 8614TIP3   OH247332   1.156   4.516  13.264 -0.3030  0.6412  0.2928
 8614TIP3    H147333   1.218   4.560  13.323 -0.6397  2.0901 -0.4005
 8614TIP3    H247334   1.187   4.538  13.176  0.5594 -2.0233 -0.1157
 8615TIP3   OH247335   4.646   0.799   4.502  0.3479 -0.1036 -0.2876
 8615TIP3    H147336   4.658   0.705   4.510  0.5987  0.0390  1.0003
 8615TIP3    H247337   4.557   0.815   4.533  0.8107  0.2640  0.8471
 8616TIP3   OH247338   1.331   1.226   4.896 -0.2718  0.3378  0.3665
 8616TIP3    H147339   1.400   1.211   4.831  0.6383 -0.2814  1.4417
 8616TIP3    H247340   1.254   1.252   4.845 -0.2938 -2.5257 -1.1517
 8617TIP3   OH247341   1.392   0.200  14.418 -0.6883  0.0322  0.3231
 8617TIP3    H147342   1.398   0.267  14.486 -0.4845 -0.7795  1.1321
 8617TIP3    H247343   1.357   0.245  14.342  0.6111  1.3324  0.4610
 8618TIP3   OH247344   0.576   1.177  13.667 -0.7832  0.0779  0.4167
 8618TIP3    H147345   0.502   1.116  13.669  0.1770 -1.0530  1.5097
 8618TIP3    H247346   0.646   1.133  13.714  0.4752  1.3245 -0.2424
 8619TIP3   OH247347   6.721   0.621  14.380 -0.3316 -0.5071 -0.2638
 8619TIP3    H147348   6.737   0.656  14.292 -0.6951 -1.4256 -0.7074
 8619TIP3    H247349   6.625   0.617  14.386 -0.2973 -0.9500 -0.0309
 8620TIP3   OH247350   2.219   0.698   1.976  0.2144 -0.4761  0.7837
 8620TIP3    H147351   2.257   0.775   2.020 -0.4475 -0.5111  1.4193
 8620TIP3    H247352   2.210   0.725   1.885  2.5604 -0.7513  0.4284
 8621TIP3   OH247353   2.797   6.699  16.902  0.3406 -0.6457  0.0476
 8621TIP3    H147354   2.786   6.692  16.807  1.0050  0.6524 -0.1357
 8621TIP3    H247355   2.714   6.669  16.938  0.8413 -3.2888 -0.8590
 8622TIP3   OH247356   0.560   3.023   5.426 -0.3930 -0.1966 -0.0462
 8622TIP3    H147357   0.467   2.999   5.420 -0.6541  1.0591 -1.3437
 8622TIP3    H247358   0.570   3.062   5.513 -1.6870  2.0604 -0.8591
 8623TIP3   OH247359   4.540   4.308  13.926 -0.5151 -0.0227 -0.0617
 8623TIP3    H147360   4.577   4.366  13.992 -2.4111 -0.0610  1.0551
 8623TIP3    H247361   4.574   4.222  13.947 -2.3712 -0.3223  1.8735
 8624TIP3   OH247362   6.601   6.049  17.024  0.1327  0.4923 -0.4660
 8624TIP3    H147363   6.521   6.023  16.978  0.3827 -0.5035 -0.3508
 8624TIP3    H247364   6.570   6.097  17.101 -0.3951 -0.6634  0.0645
 8625TIP3   OH247365   2.390   0.064  13.123  0.6257  0.0134 -0.7065
 8625TIP3    H147366   2.403   0.138  13.183 -1.1146 -0.3261  0.1310
 8625TIP3    H247367   2.336   0.099  13.053 -2.6668 -1.1226  1.1575
 8626TIP3   OH247368   5.914   6.477  11.439 -0.6482  0.4777 -0.4012
 8626TIP3    H147369   5.923   6.467  11.344  1.0710 -0.5332 -0.1428
 8626TIP3    H247370   5.870   6.396  11.467 -0.0934  0.2486 -0.1897
 8627TIP3   OH247371   6.246   4.495   5.731 -0.3097  0.4814 -0.0589
 8627TIP3    H147372   6.259   4.521   5.822 -0.7819 -1.6607  0.6387
 8627TIP3    H247373   6.315   4.431   5.713 -0.8316  0.1297 -0.8915
 8628TIP3   OH247374   0.979   5.246   2.661 -0.1213 -0.6529  1.0141
 8628TIP3    H147375   1.070   5.269   2.682 -0.6918  0.1206  2.6946
 8628TIP3    H247376   0.942   5.214   2.743 -1.8772  0.7082  0.7941
 8629TIP3   OH247377   5.403   4.862   0.337 -0.1489  0.2408 -0.5363
 8629TIP3    H147378   5.411   4.867   0.242 -2.6192 -0.8041 -0.8196
 8629TIP3    H247379   5.326   4.915   0.358 -0.3847 -0.5887  0.7502
 8630TIP3   OH247380   1.074   1.634   6.153 -0.2319 -0.1480  0.1314
 8630TIP3    H147381   1.156   1.682   6.152 -0.2241 -0.1795 -0.8652
 8630TIP3    H247382   1.007   1.700   6.134 -0.4785 -0.0654  1.2228
 8631TIP3   OH247383   5.984   2.924  14.406 -0.2289 -0.4394 -0.0106
 8631TIP3    H147384   6.070   2.936  14.446 -0.0421  1.1489 -0.8356
 8631TIP3    H247385   5.999   2.936  14.312 -1.2140 -0.9217 -0.2387
 8632TIP3   OH247386   1.997   0.873  11.443 -0.3197  0.0582 -0.2953
 8632TIP3    H147387   2.032   0.884  11.355  0.3519 -0.6423 -0.1213
 8632TIP3    H247388   2.074   0.854  11.497 -1.1821 -3.8539 -0.3053
 8633TIP3   OH247389   3.083   0.286  16.993 -0.2563  0.2515 -0.0816
 8633TIP3    H147390   3.111   0.349  17.059 -4.5205  2.4561 -0.1975
 8633TIP3    H247391   3.090   0.333  16.910  0.5556 -0.8942 -0.6804
 8634TIP3   OH247392   3.092   2.574   5.915  0.5406 -0.2384 -0.3019
 8634TIP3    H147393   3.079   2.493   5.964  0.3894  0.4596  0.8372
 8634TIP3    H247394   3.067   2.643   5.976  1.6808  0.7262 -0.9055
 8635TIP3   OH247395   2.979   4.619   3.241  0.3693  0.1738  0.0228
 8635TIP3    H147396   2.922   4.575   3.304  0.2267  2.5519  1.6182
 8635TIP3    H247397   2.964   4.573   3.158 -0.1991 -2.3564  1.4840
 8636TIP3   OH247398   0.296   1.589   4.683  0.3152  0.0152 -0.0531
 8636TIP3    H147399   0.218   1.551   4.643  0.8310  0.1873 -1.2701
 8636TIP3    H247400   0.369   1.543   4.642  0.8875  0.9223 -0.0811
 8637TIP3   OH247401   1.868   0.646   1.159 -0.5509  0.5914  0.2556
 8637TIP3    H147402   1.801   0.597   1.113 -3.2600  0.8679  3.6971
 8637TIP3    H247403   1.859   0.736   1.126 -2.0505  0.6693  0.8297
 8638TIP3   OH247404   1.711   1.821  17.020 -0.5011 -0.4912  0.0929
 8638TIP3    H147405   1.693   1.731  16.991 -0.8720  0.0156 -1.3049
 8638TIP3    H247406   1.632   1.870  16.996 -0.8335 -0.0433  2.0394
 8639TIP3   OH247407   3.162   2.431   2.781 -0.0789 -0.0703 -0.1648
 8639TIP3    H147408   3.172   2.341   2.812  0.2283 -0.3025 -0.9295
 8639TIP3    H247409   3.131   2.422   2.691  0.1562  0.5907 -0.3134
 8640TIP3   OH247410   3.723   0.215  13.918 -0.3778  0.2557 -0.1122
 8640TIP3    H147411   3.705   0.187  14.008  1.4015  0.5907  0.3554
 8640TIP3    H247412   3.818   0.209  13.909 -0.6578 -1.1970 -2.4607
 8641TIP3   OH247413   2.284   5.761   5.316 -0.5173  0.0061 -0.1078
 8641TIP3    H147414   2.313   5.730   5.401 -1.7300 -2.2308 -0.4494
 8641TIP3    H247415   2.340   5.715   5.253 -1.4480 -0.5113 -0.5827
 8642TIP3   OH247416   2.991   0.618   4.716  0.0906 -0.0256 -0.2950
 8642TIP3    H147417   2.903   0.651   4.700 -0.0403 -1.4945 -2.8514
 8642TIP3    H247418   3.022   0.667   4.792 -2.3187  1.6423 -0.3527
 8643TIP3   OH247419   3.342   4.672   2.779  0.4910 -0.1569 -0.0567
 8643TIP3    H147420   3.262   4.682   2.832 -0.7880 -0.2847 -1.9298
 8643TIP3    H247421   3.332   4.587   2.737  1.9754 -0.4945  0.2415
 8644TIP3   OH247422   3.042   3.297   3.208  0.3835 -0.1055  0.3353
 8644TIP3    H147423   2.995   3.276   3.128  1.6435  1.2215 -0.7677
 8644TIP3    H247424   3.128   3.327   3.179  0.7201  0.7675  2.1545
 8645TIP3   OH247425   0.311   2.483   2.539 -0.4825  0.7479 -0.1731
 8645TIP3    H147426   0.252   2.428   2.592 -1.0489  2.0184  0.5569
 8645TIP3    H247427   0.384   2.425   2.516 -0.4525  0.0267  1.6283
 8646TIP3   OH247428   6.454   4.544   3.741  0.2704  0.1888 -0.0134
 8646TIP3    H147429   6.492   4.597   3.811 -0.6657  0.9431 -0.0707
 8646TIP3    H247430   6.450   4.456   3.778  0.3690  0.4605  0.6580
 8647TIP3   OH247431   1.663   5.727  12.761 -0.5488  0.2461 -0.1887
 8647TIP3    H147432   1.710   5.776  12.693 -0.2851  0.7155  0.3274
 8647TIP3    H247433   1.728   5.715  12.830 -1.7205  2.5009  1.3216
 8648TIP3   OH247434   5.081   2.391   2.626 -0.3019  0.4264 -0.6719
 8648TIP3    H147435   5.123   2.477   2.630 -0.9698  0.7006  1.0621
 8648TIP3    H247436   5.006   2.403   2.567  0.4303  0.6477 -1.5686
 8649TIP3   OH247437   5.550   4.130  13.515  0.4815 -0.1597 -0.0663
 8649TIP3    H147438   5.516   4.072  13.583 -0.2417 -0.2530 -0.5026
 8649TIP3    H247439   5.526   4.087  13.433 -2.3242  1.9684 -0.4677
 8650TIP3   OH247440   0.767   2.295   4.824  0.5457  1.0728 -0.4101
 8650TIP3    H147441   0.830   2.329   4.761  2.0496 -0.3387  0.2722
 8650TIP3    H247442   0.808   2.310   4.909  0.1170 -0.1529  0.0251
 8651TIP3   OH247443   2.157   3.071  15.278 -0.1680  0.2431  0.1366
 8651TIP3    H147444   2.148   3.166  15.278  0.5006  0.3102  0.8959
 8651TIP3    H247445   2.207   3.051  15.357 -0.5569 -0.7648  0.1421
 8652TIP3   OH247446   5.975   5.449  16.948 -0.3559 -0.5552 -0.0691
 8652TIP3    H147447   6.037   5.521  16.958 -1.8769  0.9215 -0.8865
 8652TIP3    H247448   5.915   5.459  17.022 -0.1533 -1.4256  0.2165
 8653TIP3   OH247449   0.542   4.972  10.863  0.1144  0.2719  0.6877
 8653TIP3    H147450   0.567   4.975  10.955  0.4777  0.6091  0.5789
 8653TIP3    H247451   0.620   4.941  10.817  0.6118  2.0757  0.2561
 8654TIP3   OH247452   5.134   1.133   3.779  0.2510  0.2963  0.3759
 8654TIP3    H147453   5.225   1.116   3.802 -0.1721 -2.0933  0.3764
 8654TIP3    H247454   5.126   1.105   3.688 -0.8907 -1.1178  0.8962
 8655TIP3   OH247455   6.463   1.731  14.584 -0.0441 -0.1469  0.3970
 8655TIP3    H147456   6.527   1.788  14.627  0.1422  0.7053 -0.9989
 8655TIP3    H247457   6.405   1.791  14.537 -1.4253 -0.9626  1.0149
 8656TIP3   OH247458   3.973   4.299   2.680 -0.1476  0.0080  0.3916
 8656TIP3    H147459   3.944   4.363   2.615 -0.6144 -0.1696  0.4247
 8656TIP3    H247460   3.966   4.344   2.764 -0.4698 -0.0811  0.4144
 8657TIP3   OH247461   1.842   1.242  17.184 -0.2984 -0.0215  0.5564
 8657TIP3    H147462   1.784   1.217  17.113 -0.8982  0.9405  0.7117
 8657TIP3    H247463   1.921   1.190  17.169 -0.0015  0.9458 -1.4198
 8658TIP3   OH247464   2.750   1.657   3.191 -0.7546 -1.0003 -0.0802
 8658TIP3    H147465   2.844   1.641   3.180 -0.9690 -1.0705 -2.0586
 8658TIP3    H247466   2.745   1.744   3.230  0.1204 -0.1839 -1.7155
 8659TIP3   OH247467   6.024   4.078  14.230  0.1780  0.2257  0.0786
 8659TIP3    H147468   5.975   4.136  14.289 -0.2838 -1.9105  1.8767
 8659TIP3    H247469   6.114   4.083  14.262 -0.2258 -1.6130  1.5844
 8660TIP3   OH247470   5.828   6.469   5.493 -0.1904  0.7261  0.5029
 8660TIP3    H147471   5.785   6.464   5.408 -1.7157 -1.1559  1.3456
 8660TIP3    H247472   5.756   6.473   5.556  0.8579 -0.7387  1.8489
 8661TIP3   OH247473   6.610   1.494  14.102 -0.4964 -0.4328 -0.4892
 8661TIP3    H147474   6.698   1.520  14.074 -0.7674  0.9495 -0.1047
 8661TIP3    H247475   6.551   1.546  14.048 -1.0413  0.5748  1.0404
 8662TIP3   OH247476   6.055   1.348   2.453  0.0856 -0.2616 -0.5396
 8662TIP3    H147477   6.074   1.418   2.516  0.7157 -0.1716 -0.8303
 8662TIP3    H247478   5.962   1.328   2.468  0.0566  0.2152 -0.0378
 8663TIP3   OH247479   2.833   5.551   1.488  0.4083 -0.5407  0.0443
 8663TIP3    H147480   2.891   5.519   1.419 -1.2451  1.0689 -2.1692
 8663TIP3    H247481   2.751   5.504   1.474 -0.4092  0.8844 -0.0523
 8664TIP3   OH247482   0.861   1.296  14.225  0.0601 -0.3556 -0.6206
 8664TIP3    H147483   0.777   1.283  14.182 -0.4985 -0.7308  0.5797
 8664TIP3    H247484   0.846   1.273  14.316  1.2588  0.3726 -0.2257
 8665TIP3   OH247485   3.428   5.790   1.692  0.5321 -0.1483 -0.0725
 8665TIP3    H147486   3.509   5.746   1.717  0.1272 -0.6214  0.4205
 8665TIP3    H247487   3.398   5.743   1.615  0.3857 -0.3958  0.1329
 8666TIP3   OH247488   3.003   5.610  15.321 -0.5293  0.1756  0.2568
 8666TIP3    H147489   2.977   5.519  15.307 -1.2756  0.3739  0.3503
 8666TIP3    H247490   3.095   5.613  15.293 -0.2219 -0.8164  1.1368
 8667TIP3   OH247491   0.409   1.524   1.355 -0.5982 -0.7276 -0.2835
 8667TIP3    H147492   0.389   1.612   1.387  0.0183 -0.8463  0.4281
 8667TIP3    H247493   0.452   1.538   1.271  1.7356 -0.2467  0.9577
 8668TIP3   OH247494   1.407   5.400  17.270 -0.0746  0.3041  0.1408
 8668TIP3    H147495   1.333   5.445  17.228  0.6315 -0.1611 -1.6101
 8668TIP3    H247496   1.468   5.383  17.199  0.8286 -1.1235  1.2518
 8669TIP3   OH247497   2.830   4.011   4.026 -0.0705 -0.3535  0.1878
 8669TIP3    H147498   2.848   4.105   4.019  1.9557 -0.7228  0.1785
 8669TIP3    H247499   2.878   3.982   4.103 -0.6031 -1.4080  0.1407
 8670TIP3   OH247500   0.266   4.673  15.708 -0.1088 -0.1654  0.3759
 8670TIP3    H147501   0.332   4.742  15.713 -1.3063  0.9725  1.1058
 8670TIP3    H247502   0.261   4.651  15.615 -0.1977  1.2487  0.0288
 8671TIP3   OH247503   6.611   5.237  13.380 -0.3500  0.1275 -0.1224
 8671TIP3    H147504   6.553   5.244  13.305  0.8085  1.1339 -0.9557
 8671TIP3    H247505   6.699   5.237  13.342  0.1935 -2.0357  1.0536
 8672TIP3   OH247506   4.975   1.023   1.025  0.1828 -0.2256 -0.2621
 8672TIP3    H147507   4.986   0.939   1.070  0.3678 -0.3556 -0.5463
 8672TIP3    H247508   4.902   1.065   1.069 -0.7153 -1.0731 -0.9282
 8673TIP3   OH247509   5.508   3.400   1.512  0.0579  0.0794  0.3334
 8673TIP3    H147510   5.593   3.415   1.470 -0.6171 -1.1740 -1.5860
 8673TIP3    H247511   5.447   3.454   1.461 -1.1384 -3.1387 -1.8056
 8674TIP3   OH247512   2.471   2.512  14.642  1.0209 -0.6552 -0.1941
 8674TIP3    H147513   2.552   2.559  14.664  1.5872 -0.9768 -1.6088
 8674TIP3    H247514   2.457   2.453  14.716  1.1805  0.5771  0.8397
 8675TIP3   OH247515   4.769   6.507   0.289  0.0813 -0.2355 -0.1738
 8675TIP3    H147516   4.748   6.572   0.222 -1.8967 -1.3007 -0.5952
 8675TIP3    H247517   4.844   6.545   0.336 -1.2951  2.5393 -0.1433
 8676TIP3   OH247518   4.942   6.086   3.383  0.3308  0.1429 -0.1971
 8676TIP3    H147519   5.018   6.042   3.346  2.0284  0.8440  2.2797
 8676TIP3    H247520   4.870   6.024   3.373  2.3491 -2.6524  1.9284
 8677TIP3   OH247521   3.474   5.610   4.551  0.4137 -0.2329  0.2326
 8677TIP3    H147522   3.532   5.679   4.584  2.2803 -1.0200 -1.2916
 8677TIP3    H247523   3.487   5.611   4.457  0.4859 -2.6701  0.1764
 8678TIP3   OH247524   2.053   0.555  14.740 -0.0949 -0.3388  0.1697
 8678TIP3    H147525   2.144   0.529  14.724  0.2794  0.9939  0.0629
 8678TIP3    H247526   2.043   0.638  14.693 -2.0595 -1.6185 -1.8041
 8679TIP3   OH247527   5.078   6.159  13.066  0.2905 -0.4619 -0.1721
 8679TIP3    H147528   5.082   6.183  13.158 -0.8662 -0.1488 -0.1956
 8679TIP3    H247529   5.079   6.063  13.065  0.2296 -0.4636  0.1621
 8680TIP3   OH247530   0.358   2.304   0.876 -0.5406  0.3282 -0.5585
 8680TIP3    H147531   0.398   2.229   0.832 -1.1348 -0.1980 -0.1973
 8680TIP3    H247532   0.432   2.362   0.897  0.0165 -0.5941  0.0230
 8681TIP3   OH247533   5.394   2.974   4.579 -0.0931  0.7245  0.5651
 8681TIP3    H147534   5.447   3.014   4.510 -0.0778  0.1730  0.2564
 8681TIP3    H247535   5.333   2.917   4.532  1.8982 -1.9926  1.1909
 8682TIP3   OH247536   2.198   1.417  12.004  0.5411 -0.1270 -0.2977
 8682TIP3    H147537   2.268   1.418  11.940 -0.1905 -2.4021 -1.1815
 8682TIP3    H247538   2.243   1.409  12.089  1.4542  1.8601 -0.5646
 8683TIP3   OH247539   1.644   0.206   1.988 -0.1959  0.2049  0.0703
 8683TIP3    H147540   1.671   0.292   1.957  2.0157 -0.4653  0.0179
 8683TIP3    H247541   1.580   0.224   2.057 -0.9133  1.8313 -1.0022
 8684TIP3   OH247542   0.040   5.749  14.476  0.4134 -0.1965 -0.0529
 8684TIP3    H147543  -0.040   5.733  14.425  0.6415  0.6578 -0.7015
 8684TIP3    H247544   0.097   5.795  14.415  1.1499 -0.2208  0.6208
 8685TIP3   OH247545   0.207   1.979  13.656  0.2015  0.0851  0.0664
 8685TIP3    H147546   0.234   2.007  13.569 -1.5154  0.3991 -0.3752
 8685TIP3    H247547   0.157   2.053  13.690  1.3913  0.2199  1.5695
 8686TIP3   OH247548   0.959   2.288  15.848  0.4190 -0.8928 -0.8276
 8686TIP3    H147549   0.989   2.242  15.926 -0.1451  0.0401 -0.0382
 8686TIP3    H247550   0.958   2.380  15.874 -1.9185 -0.7792 -1.2189
 8687TIP3   OH247551   1.145   1.316   3.866 -0.1616 -0.2022 -0.6942
 8687TIP3    H147552   1.228   1.332   3.912 -0.8292 -0.0652  0.4694
 8687TIP3    H247553   1.143   1.381   3.796 -0.7273  1.8628  1.1859
 8688TIP3   OH247554   3.436   0.150   4.866  0.8101 -0.1401  0.2938
 8688TIP3    H147555   3.475   0.080   4.918 -2.5796 -1.7864  0.7177
 8688TIP3    H247556   3.385   0.201   4.929  1.5018  1.4459 -0.4022
 8689TIP3   OH247557   1.862   1.607   5.586 -0.1707  0.0328  0.4326
 8689TIP3    H147558   1.847   1.685   5.640 -0.8879 -0.6213  1.1901
 8689TIP3    H247559   1.775   1.580   5.558  0.1857  0.3073 -0.9992
 8690TIP3   OH247560   1.649   1.511  13.011 -0.1437 -0.9719 -0.0047
 8690TIP3    H147561   1.666   1.417  13.017  0.2805 -0.9586 -0.9488
 8690TIP3    H247562   1.556   1.517  12.992 -0.0340 -1.2336 -0.6568
 8691TIP3   OH247563   6.114   2.047   0.499 -0.0081  0.2043  0.1323
 8691TIP3    H147564   6.116   2.088   0.585 -0.1846 -0.5865  0.5174
 8691TIP3    H247565   6.178   1.976   0.505  0.2895  0.4126 -0.5249
 8692TIP3   OH247566   4.486   2.520  16.316  0.0892 -0.1576  0.4681
 8692TIP3    H147567   4.406   2.495  16.270  0.0709 -0.5074  0.6801
 8692TIP3    H247568   4.547   2.448  16.297  0.8503  0.8327 -0.9376
 8693TIP3   OH247569   5.065   3.422   2.721  0.2006  0.1956 -0.0022
 8693TIP3    H147570   5.031   3.358   2.783  0.8405 -0.6711 -0.5282
 8693TIP3    H247571   5.139   3.463   2.766 -0.2625  0.6212  0.3668
 8694TIP3   OH247572   5.658   6.566  11.839  0.3739 -0.2278 -0.2478
 8694TIP3    H147573   5.565   6.557  11.820  0.4707 -0.5265 -0.6078
 8694TIP3    H247574   5.673   6.509  11.915  0.3687 -0.6251 -0.5390
 8695TIP3   OH247575   0.739   2.822   5.452 -0.0982  0.3436  0.3149
 8695TIP3    H147576   0.686   2.897   5.422 -0.1844  0.2599  0.2551
 8695TIP3    H247577   0.821   2.860   5.482 -0.3278  0.5095  0.7314
 8696TIP3   OH247578   6.385   4.506   5.443 -0.3475 -0.2736  0.2658
 8696TIP3    H147579   6.307   4.457   5.469  1.0381 -1.9274  1.3883
 8696TIP3    H247580   6.416   4.547   5.523  1.5530 -1.9829  0.4549
 8697TIP3   OH247581   6.530   4.122  15.460  0.4600  0.4070  0.1568
 8697TIP3    H147582   6.516   4.192  15.524 -0.2221 -0.2375  0.7364
 8697TIP3    H247583   6.617   4.138  15.425  0.5207  1.2355  0.6700
 8698TIP3   OH247584   4.532   3.323  12.984 -0.0473  0.4297 -0.2905
 8698TIP3    H147585   4.621   3.317  12.951 -0.2731  1.5484 -1.1554
 8698TIP3    H247586   4.540   3.365  13.069  0.2585  0.5412 -0.3738
 8699TIP3   OH247587   4.233   4.618   4.253 -0.2102  0.0695  0.0281
 8699TIP3    H147588   4.173   4.617   4.179  0.2757 -1.7292 -0.3591
 8699TIP3    H247589   4.179   4.645   4.328 -1.5049 -1.5567 -0.3029
 8700TIP3   OH247590   1.497   4.230   5.367 -0.5128  0.3002  0.1113
 8700TIP3    H147591   1.529   4.296   5.429  2.7517 -0.2764 -0.8739
 8700TIP3    H247592   1.522   4.265   5.281  0.0290 -1.5951 -0.5079
 8701TIP3   OH247593   6.390   3.895   1.057  0.1811  0.0391  0.1260
 8701TIP3    H147594   6.356   3.971   1.104  0.7118 -0.1806  0.8617
 8701TIP3    H247595   6.425   3.837   1.125  1.8874  0.1790 -0.6021
 8702TIP3   OH247596   4.431   0.208   3.427  0.0366  0.4657  0.6092
 8702TIP3    H147597   4.512   0.212   3.376 -0.5036  0.4991 -0.2617
 8702TIP3    H247598   4.460   0.198   3.518  1.0099  0.0059  0.2553
 8703TIP3   OH247599   5.267   0.674   5.934 -0.1375  0.6039  0.4278
 8703TIP3    H147600   5.342   0.698   5.988  0.6406 -1.4834  0.3307
 8703TIP3    H247601   5.236   0.592   5.973 -0.9662  0.2712 -0.9056
 8704TIP3   OH247602   2.871   2.164   2.832 -0.0533 -0.0258  0.7797
 8704TIP3    H147603   2.961   2.187   2.854 -0.1128 -0.1898  1.1985
 8704TIP3    H247604   2.859   2.196   2.742 -0.3517  2.2307  1.5940
 8705TIP3   OH247605   4.833   2.493   4.164  0.1678  0.0583 -0.6731
 8705TIP3    H147606   4.809   2.534   4.247  1.6433  1.7164 -1.0353
 8705TIP3    H247607   4.927   2.512   4.155 -0.2312  0.8911 -3.2723
 8706TIP3   OH247608   3.915   2.143  13.651  0.2289 -0.1842  0.5653
 8706TIP3    H147609   3.926   2.202  13.576  0.5244 -0.2208  0.5811
 8706TIP3    H247610   3.900   2.202  13.725  0.4292 -0.1306  0.5641
 8707TIP3   OH247611   6.024   5.071   0.430  0.1895  0.1215  0.1389
 8707TIP3    H147612   6.000   5.134   0.362  1.0453 -0.5226 -0.7749
 8707TIP3    H247613   6.114   5.093   0.452  0.0062  0.1500  0.8635
 8708TIP3   OH247614   0.534   6.785  13.429  0.0280  0.1387  0.0694
 8708TIP3    H147615   0.459   6.784  13.370  0.3369 -0.1462 -0.3221
 8708TIP3    H247616   0.504   6.741  13.508 -0.2094  0.0162 -0.0918
 8709TIP3   OH247617   3.199   1.128   0.192  0.1705  0.1847  0.0217
 8709TIP3    H147618   3.202   1.055   0.254 -1.2778  0.7215  0.7420
 8709TIP3    H247619   3.172   1.203   0.245 -3.0215  0.2524 -1.5785
 8710TIP3   OH247620   4.788   2.938   0.572  0.0153 -0.3559 -0.2594
 8710TIP3    H147621   4.839   2.870   0.615 -1.0287  0.0722  1.7284
 8710TIP3    H247622   4.697   2.917   0.593 -0.4679  0.2968 -1.6425
 8711TIP3   OH247623   1.930   6.182   1.097  0.1301 -0.8099  0.2371
 8711TIP3    H147624   1.911   6.276   1.096 -0.1368 -0.8662 -0.2216
 8711TIP3    H247625   1.849   6.141   1.067  0.4950 -1.1417 -0.2993
 8712TIP3   OH247626   5.623   1.403  13.161  0.3667 -0.7418  0.3367
 8712TIP3    H147627   5.640   1.328  13.104  3.2595 -0.1967  0.3957
 8712TIP3    H247628   5.621   1.478  13.102  0.9453 -0.4683  0.6579
 8713TIP3   OH247629   0.915   1.933   4.846  0.2194 -0.1826 -0.1080
 8713TIP3    H147630   0.903   1.858   4.904  1.0330  0.1838  0.5537
 8713TIP3    H247631   0.836   1.986   4.857  0.6005  0.1601  1.0959
 8714TIP3   OH247632   5.124   1.806  15.333  0.3833 -0.1579 -0.2100
 8714TIP3    H147633   5.218   1.808  15.348  0.2717 -1.6676  0.7139
 8714TIP3    H247634   5.104   1.895  15.302  1.4284  1.6201  3.7955
 8715TIP3   OH247635   3.252   1.398  11.609 -0.3191  0.4914 -0.2246
 8715TIP3    H147636   3.231   1.350  11.689  0.2338  2.6908  1.2698
 8715TIP3    H247637   3.231   1.489  11.629  2.8908  1.5674 -1.4486
 8716TIP3   OH247638   4.927   1.039  17.285  0.1957 -0.0814  0.3917
 8716TIP3    H147639   4.844   1.080  17.260 -0.0220 -0.7739 -0.0500
 8716TIP3    H247640   4.994   1.092  17.242 -0.0973 -0.3531 -0.4095
 8717TIP3   OH247641   6.462   3.203  14.122  0.1189 -0.6865  0.3109
 8717TIP3    H147642   6.506   3.132  14.169  1.0820  0.1351  0.6557
 8717TIP3    H247643   6.531   3.267  14.105 -0.7895  0.2707  0.1946
 8718TIP3   OH247644   2.480   1.077  14.656  0.0637  0.1519  0.1741
 8718TIP3    H147645   2.536   1.000  14.649  1.2554  0.8654  1.6446
 8718TIP3    H247646   2.448   1.091  14.567  0.9024 -1.2438 -0.3684
 8719TIP3   OH247647   2.410   6.164  15.997 -0.0394 -0.0739 -0.5451
 8719TIP3    H147648   2.394   6.070  15.986 -2.9314  0.3594 -0.4855
 8719TIP3    H247649   2.385   6.203  15.913  0.1773  0.7343 -0.2406
 8720TIP3   OH247650   1.470   1.082  17.164 -0.3570  0.7115 -0.2015
 8720TIP3    H147651   1.409   1.064  17.093 -0.5011 -1.6585  0.4654
 8720TIP3    H247652   1.557   1.074  17.124 -0.3971 -2.3412  0.1940
 8721TIP3   OH247653   0.862   5.150   5.742  0.2632  0.1571  0.0254
 8721TIP3    H147654   0.804   5.181   5.811 -2.0934  0.3051 -1.9669
 8721TIP3    H247655   0.826   5.065   5.717  1.3705 -0.0986 -0.7415
 8722TIP3   OH247656   2.104   1.449   6.774 -0.3908 -0.4574 -0.1799
 8722TIP3    H147657   2.027   1.480   6.821 -0.6164 -1.1473 -0.0946
 8722TIP3    H247658   2.135   1.374   6.824  0.5886  0.0662  0.0216
 8723TIP3   OH247659   0.786   2.307   1.802  0.3952 -0.0417  0.4006
 8723TIP3    H147660   0.812   2.240   1.740  0.8303  0.9395 -0.4923
 8723TIP3    H247661   0.853   2.303   1.871  1.1993  0.3976 -0.3449
 8724TIP3   OH247662   6.351   1.113  11.674  0.5186 -0.1667  0.5530
 8724TIP3    H147663   6.356   1.087  11.582 -0.1733 -1.9223  0.9932
 8724TIP3    H247664   6.438   1.093  11.708  0.8630  0.7462  0.2212
 8725TIP3   OH247665   2.897   2.189  12.844  0.3975 -0.1144  0.1652
 8725TIP3    H147666   2.917   2.134  12.920  0.0582  1.6676  1.5771
 8725TIP3    H247667   2.972   2.176  12.785  0.9766 -1.0263  1.0889
 8726TIP3   OH247668   1.130   2.869  14.584  1.0179  0.0650 -0.8339
 8726TIP3    H147669   1.122   2.891  14.491 -2.8641  0.2085 -0.5397
 8726TIP3    H247670   1.137   2.954  14.629 -1.8676  0.2733 -0.6769
 8727TIP3   OH247671   3.456   2.785   6.415 -0.2510  0.1070 -0.5921
 8727TIP3    H147672   3.549   2.803   6.398 -0.9694  2.4247 -2.2681
 8727TIP3    H247673   3.443   2.808   6.507  0.8834 -0.4371 -0.2902
 8728TIP3   OH247674   3.487   5.434   3.508  0.4475  0.6443  0.2263
 8728TIP3    H147675   3.567   5.383   3.520 -0.2767 -1.1259 -2.1433
 8728TIP3    H247676   3.516   5.525   3.515  2.6199  0.0220 -0.2171
 8729TIP3   OH247677   2.765   4.089   5.394  0.0272  0.1474  0.0881
 8729TIP3    H147678   2.701   4.029   5.433  1.4268 -0.4888  1.4792
 8729TIP3    H247679   2.726   4.176   5.406 -0.2617 -0.1709  1.5850
 8730TIP3   OH247680   1.604   6.729   4.880 -0.3216  0.2201 -0.3504
 8730TIP3    H147681   1.600   6.639   4.911 -2.1972  0.3249 -0.1943
 8730TIP3    H247682   1.684   6.733   4.828 -0.0506 -1.4411 -0.1020
 8731TIP3   OH247683   1.690   5.442  16.234  0.3349  0.3427  0.7227
 8731TIP3    H147684   1.775   5.448  16.189 -0.3519 -0.8084 -0.7692
 8731TIP3    H247685   1.641   5.518  16.203  0.1103 -0.0692  0.0820
 8732TIP3   OH247686   5.254   4.688  17.248  0.1467 -0.5826 -0.2689
 8732TIP3    H147687   5.334   4.700  17.300 -0.5753  0.8453  0.5317
 8732TIP3    H247688   5.188   4.742  17.293 -0.3397  1.1922 -3.0150
 8733TIP3   OH247689   6.092   0.275  17.066 -0.5783 -0.1127 -0.5050
 8733TIP3    H147690   6.170   0.287  17.121 -0.3732  0.1308 -0.8428
 8733TIP3    H247691   6.019   0.304  17.121 -0.4376 -0.3964 -0.1654
 8734TIP3   OH247692   5.886   0.544  16.504 -0.0972  0.6269 -0.2119
 8734TIP3    H147693   5.866   0.608  16.572 -0.1046  0.7269 -0.3087
 8734TIP3    H247694   5.982   0.543  16.499 -0.1367  1.9490 -1.4655
 8735TIP3   OH247695   1.575   4.634   4.695  0.4748 -0.0367 -0.4826
 8735TIP3    H147696   1.642   4.619   4.761 -0.6675 -0.1526  0.6683
 8735TIP3    H247697   1.509   4.688   4.739  0.5474  1.3998 -2.0640
 8736TIP3   OH247698   3.151   2.085   4.005  0.4936  0.1251  0.0999
 8736TIP3    H147699   3.176   2.051   4.091  0.3113 -0.3528 -0.0343
 8736TIP3    H247700   3.159   2.180   4.014  1.9102  0.0145  0.2120
 8737TIP3   OH247701   5.616   6.603  16.693  0.2448 -0.1714  0.1361
 8737TIP3    H147702   5.636   6.657  16.769  0.8282 -1.2134  0.7363
 8737TIP3    H247703   5.569   6.661  16.633  1.5195  1.2027  0.4518
 8738TIP3   OH247704   1.294   6.163  13.695 -0.3065 -0.8181 -0.3875
 8738TIP3    H147705   1.361   6.226  13.723 -0.2248 -1.1536  0.1851
 8738TIP3    H247706   1.259   6.200  13.614 -0.4896  0.1480  0.1140
 8739TIP3   OH247707   2.229   0.487  10.753  0.1833 -0.2059  0.2805
 8739TIP3    H147708   2.144   0.460  10.719  0.2174 -1.1005  0.8761
 8739TIP3    H247709   2.292   0.432  10.707  0.3868 -0.0148  0.3296
 8740TIP3   OH247710   4.419   2.343   2.445  0.4105 -0.3632 -0.9646
 8740TIP3    H147711   4.425   2.289   2.524  0.7868  1.9927  0.6783
 8740TIP3    H247712   4.495   2.317   2.392  1.0634 -0.8179  0.1851
 8741TIP3   OH247713   5.930   4.340  12.057  0.1534  0.1918  0.2201
 8741TIP3    H147714   5.857   4.366  12.113 -0.0421  0.4192 -0.1350
 8741TIP3    H247715   5.918   4.391  11.977 -0.1004 -0.8366 -0.3963
 8742TIP3   OH247716   5.816   1.206  14.511 -0.6065 -0.0281  0.5636
 8742TIP3    H147717   5.742   1.258  14.541 -1.4368 -0.8090 -0.1138
 8742TIP3    H247718   5.799   1.193  14.417  0.0549 -0.7632  0.5450
 8743TIP3   OH247719   5.844   4.074  15.972 -0.0694  0.2219  0.4138
 8743TIP3    H147720   5.872   4.008  15.909 -0.3707  1.2476 -0.8317
 8743TIP3    H247721   5.886   4.049  16.054 -1.2532 -2.2375  0.2881
 8744TIP3   OH247722   5.958   5.094  10.604 -0.3665 -0.9513 -0.0193
 8744TIP3    H147723   5.891   5.161  10.588 -0.9615 -1.1599  1.4699
 8744TIP3    H247724   5.988   5.068  10.517 -0.3683  1.0000 -0.6297
 8745TIP3   OH247725   6.814   1.940  12.672  0.3906  0.0285  0.3432
 8745TIP3    H147726   6.754   1.903  12.736 -0.6582  0.9915 -0.0633
 8745TIP3    H247727   6.777   2.026  12.651  2.0947  0.8011  0.3516
 8746TIP3   OH247728   1.850   6.338  13.087  0.5714  0.0288  0.0576
 8746TIP3    H147729   1.901   6.374  13.160  1.1991  0.5358 -0.6292
 8746TIP3    H247730   1.831   6.413  13.031 -2.0291  0.0771  0.9308
 8747TIP3   OH247731   2.909   0.515  15.222  0.0180 -0.2039  0.4329
 8747TIP3    H147732   2.981   0.499  15.161  0.7285  0.8766  0.9656
 8747TIP3    H247733   2.942   0.484  15.306 -0.2530  0.0299  0.6232
 8748TIP3   OH247734   6.782   0.170  17.230 -0.1303 -0.5205 -0.3328
 8748TIP3    H147735   6.827   0.174  17.314 -1.6638  0.1349  0.4665
 8748TIP3    H247736   6.853   0.167  17.165  1.0700  1.6827  0.8257
 8749TIP3   OH247737   3.094   3.235   6.441  0.2374 -0.1546  0.0901
 8749TIP3    H147738   3.122   3.309   6.495  0.7414  0.7006 -1.3116
 8749TIP3    H247739   3.016   3.267   6.395  2.0033  0.4963 -2.5870
 8750TIP3   OH247740   4.616   6.671  15.106  0.0868  0.1806 -0.0576
 8750TIP3    H147741   4.668   6.597  15.136 -1.0902 -0.1217  1.3687
 8750TIP3    H247742   4.542   6.631  15.060 -0.1335  0.4820  0.0313
 8751TIP3   OH247743   2.999   0.382  15.796  0.0118  0.4969  0.1655
 8751TIP3    H147744   3.078   0.413  15.751  0.4815  2.6145  2.3507
 8751TIP3    H247745   3.011   0.408  15.887 -3.2755  1.0111  0.5201
 8752TIP3   OH247746   1.986   5.270  14.888  0.2824 -0.4827 -0.2076
 8752TIP3    H147747   2.005   5.280  14.795  0.8301  0.5235  0.0088
 8752TIP3    H247748   1.895   5.238  14.891  0.7493 -1.9538 -1.1194
 8753TIP3   OH247749   4.917   5.170   4.610 -0.4472  0.2046  0.0965
 8753TIP3    H147750   4.886   5.238   4.551  0.2926  0.5276  0.0666
 8753TIP3    H247751   4.996   5.135   4.568  0.2645  0.6529  1.0283
 8754TIP3   OH247752   1.594   1.297   0.431 -0.6308 -0.0699 -0.0677
 8754TIP3    H147753   1.604   1.325   0.340  0.2418  1.3174  0.4396
 8754TIP3    H247754   1.615   1.204   0.430 -0.7993 -0.0993 -1.3161
 8755TIP3   OH247755   4.117   2.340  16.910  0.0133 -0.2231 -0.3461
 8755TIP3    H147756   4.059   2.294  16.971 -0.8018  1.4585  0.1895
 8755TIP3    H247757   4.204   2.310  16.932 -0.4291 -0.8378  0.5950
 8756TIP3   OH247758   4.523   5.574   3.089 -0.9302  0.2257  0.2036
 8756TIP3    H147759   4.471   5.498   3.063  0.9607 -1.0011 -0.1430
 8756TIP3    H247760   4.614   5.546   3.075 -0.2092  2.5725  0.0555
 8757TIP3   OH247761   3.130   4.981  12.589  0.2528 -0.5044  0.6031
 8757TIP3    H147762   3.216   5.004  12.553 -0.7183 -0.6581 -1.9654
 8757TIP3    H247763   3.116   5.044  12.659  1.1015  1.5787 -1.0272
 8758TIP3   OH247764   0.785   5.994  15.503 -0.2171  0.0566 -0.2470
 8758TIP3    H147765   0.757   5.932  15.570  1.4698 -1.3043 -0.7672
 8758TIP3    H247766   0.793   6.077  15.550 -3.2686  0.1005  0.2871
 8759TIP3   OH247767   0.684   5.973   6.050 -0.2762  0.5124  0.7097
 8759TIP3    H147768   0.597   6.007   6.072 -0.4216  0.2761  0.4987
 8759TIP3    H247769   0.689   5.889   6.096 -1.0184 -0.5186 -1.0516
 8760TIP3   OH247770   2.394   5.829   5.581 -0.0917  0.2239 -0.0005
 8760TIP3    H147771   2.428   5.864   5.663 -0.0910 -0.2107  0.1895
 8760TIP3    H247772   2.429   5.740   5.577 -1.3315 -0.2842  0.2811
 8761TIP3   OH247773   0.552   2.751  12.466  0.5900 -0.4574  0.2711
 8761TIP3    H147774   0.601   2.829  12.492 -1.1703  1.5573 -2.2038
 8761TIP3    H247775   0.477   2.750  12.526 -1.2860  1.8586 -1.9141
 8762TIP3   OH247776   0.325   4.475  16.418  0.0116 -0.3185 -0.2249
 8762TIP3    H147777   0.295   4.523  16.341  0.0239  0.3598  0.1828
 8762TIP3    H247778   0.331   4.542  16.486  1.6794 -0.5722 -0.0866
 8763TIP3   OH247779   5.628   6.451   2.319  0.4998  0.1005 -0.1846
 8763TIP3    H147780   5.600   6.368   2.356  0.0416  1.1206  1.8078
 8763TIP3    H247781   5.548   6.488   2.280  0.3955  0.2419  0.1618
 8764TIP3   OH247782   2.565   4.667  15.210  0.3620  0.1320 -0.4510
 8764TIP3    H147783   2.544   4.753  15.246 -0.5437  0.2353 -1.1933
 8764TIP3    H247784   2.510   4.606  15.260 -0.2243  0.1762 -1.0318
 8765TIP3   OH247785   4.375   0.918  16.061 -0.3898 -0.1322  0.2150
 8765TIP3    H147786   4.360   0.990  16.121 -0.3665 -2.5407  3.2375
 8765TIP3    H247787   4.465   0.889  16.079 -0.4926 -1.1188 -0.7582
 8766TIP3   OH247788   2.687   3.093  16.380  0.6420  0.1070 -0.1506
 8766TIP3    H147789   2.754   3.025  16.380  0.5042 -0.0251  0.5287
 8766TIP3    H247790   2.709   3.147  16.304  1.1079 -0.3395 -0.3392
 8767TIP3   OH247791   6.623   1.790  16.129 -0.1931  0.2942 -0.3452
 8767TIP3    H147792   6.687   1.719  16.135  1.3794  1.6605 -0.5688
 8767TIP3    H247793   6.552   1.755  16.076  0.7216 -0.9945 -0.7237
 8768TIP3   OH247794   1.993   2.748  15.018  0.2020 -0.0065 -0.6062
 8768TIP3    H147795   1.970   2.663  15.055  2.1168  0.1322  0.9679
 8768TIP3    H247796   1.909   2.784  14.986 -1.3595 -0.6485  2.5493
 8769TIP3   OH247797   3.385   1.118   1.717  0.1207 -0.5746  0.1633
 8769TIP3    H147798   3.326   1.059   1.671 -2.6834  1.3866  1.1299
 8769TIP3    H247799   3.328   1.184   1.756  2.8679  0.8018  2.0292
 8770TIP3   OH247800   0.627   3.531   1.937  0.5877  0.5723  0.9150
 8770TIP3    H147801   0.680   3.559   1.863  0.4583  0.6895  0.8670
 8770TIP3    H247802   0.639   3.436   1.941  0.2508  0.5125  0.4807
 8771TIP3   OH247803   1.297   4.803  15.727 -0.7127 -0.1866  0.0256
 8771TIP3    H147804   1.231   4.826  15.793 -0.4916  0.3207  0.0685
 8771TIP3    H247805   1.362   4.873  15.733 -1.7602  1.0079 -2.2347
 8772TIP3   OH247806   1.160   1.713   1.892 -0.7274  0.9074 -0.0821
 8772TIP3    H147807   1.232   1.662   1.928 -1.1725 -0.2876 -0.8538
 8772TIP3    H247808   1.089   1.649   1.881 -1.3806  1.7523 -0.7946
 8773TIP3   OH247809   5.061   6.493  15.211  0.2551 -0.2285 -0.1973
 8773TIP3    H147810   5.016   6.578  15.215  2.2876  1.0981 -3.5273
 8773TIP3    H247811   5.141   6.506  15.261  0.5224 -0.1829 -0.6307
 8774TIP3   OH247812   1.952   4.269  12.294  1.0244 -0.1435  0.8986
 8774TIP3    H147813   1.976   4.357  12.320  0.4492  0.4087 -0.4027
 8774TIP3    H247814   1.987   4.259  12.206 -0.7231 -0.4455  0.2177
 8775TIP3   OH247815   2.452   6.656   2.408 -0.9299 -0.5235  0.0011
 8775TIP3    H147816   2.495   6.718   2.467 -0.3793  0.5121 -1.4631
 8775TIP3    H247817   2.504   6.576   2.415 -0.7303 -0.3313  0.7400
 8776TIP3   OH247818   5.623   4.179  15.519  0.3874 -0.2042  0.0445
 8776TIP3    H147819   5.655   4.184  15.429  3.7110  2.2181  1.2938
 8776TIP3    H247820   5.591   4.267  15.539 -0.2706 -0.7064  1.2865
 8777TIP3   OH247821   1.362   3.759   5.593  0.2348  0.1256  0.1413
 8777TIP3    H147822   1.321   3.695   5.652  0.1712  1.2213  1.3018
 8777TIP3    H247823   1.360   3.841   5.642  0.5986  0.9551 -1.2206
 8778TIP3   OH247824   5.551   0.474  14.008  0.1063  0.4664  0.3088
 8778TIP3    H147825   5.542   0.531  13.932 -0.4560  0.0450  0.0541
 8778TIP3    H247826   5.543   0.532  14.084 -0.0562  0.7764  0.0520
 8779TIP3   OH247827   0.454   4.516  14.978 -0.0259 -0.0621 -0.0676
 8779TIP3    H147828   0.406   4.456  15.035  1.1363 -0.7072  0.2517
 8779TIP3    H247829   0.525   4.549  15.032 -1.2297  2.4237  0.0728
 8780TIP3   OH247830   3.891   1.430  10.615 -0.0726 -0.3483 -0.3884
 8780TIP3    H147831   3.979   1.453  10.587 -0.3113 -0.2559 -1.0715
 8780TIP3    H247832   3.904   1.379  10.695  0.6486 -1.2309 -1.0624
 8781TIP3   OH247833   2.876   5.396   4.573  0.1357 -0.5194 -0.1626
 8781TIP3    H147834   2.909   5.326   4.630 -0.6531  0.7132  1.8310
 8781TIP3    H247835   2.786   5.370   4.553  0.3147 -0.7960 -0.6351
 8782TIP3   OH247836   1.652   1.042  14.272 -0.2323 -0.5797  0.0204
 8782TIP3    H147837   1.667   1.070  14.182  0.7768 -2.1322 -0.3230
 8782TIP3    H247838   1.732   1.064  14.319 -0.4028 -0.6042  0.3254
 8783TIP3   OH247839   6.181   4.463   1.217 -0.3378  0.6199  0.0126
 8783TIP3    H147840   6.146   4.457   1.128 -1.7471 -2.6746  0.7007
 8783TIP3    H247841   6.265   4.507   1.207  0.0096 -0.6239 -3.1330
 8784TIP3   OH247842   3.444   6.272   6.457 -0.1995 -0.3347  0.5360
 8784TIP3    H147843   3.433   6.180   6.434  1.6255 -0.4763  0.1327
 8784TIP3    H247844   3.464   6.270   6.551 -1.1736 -0.2672  0.7463
 8785TIP3   OH247845   3.186   2.737   1.717 -0.4011  0.3759 -0.9572
 8785TIP3    H147846   3.264   2.789   1.699 -0.9884  1.0296 -1.6475
 8785TIP3    H247847   3.197   2.658   1.663  0.0557  0.2009 -0.6085
 8786TIP3   OH247848   2.702   4.627  15.574 -0.6986 -0.0649  0.0926
 8786TIP3    H147849   2.607   4.628  15.574 -0.7105 -0.2829 -0.7510
 8786TIP3    H247850   2.726   4.550  15.625 -0.9905 -0.5359 -0.4793
 8787TIP3   OH247851   1.813   0.761  11.591  0.4471  0.7028 -0.2784
 8787TIP3    H147852   1.858   0.822  11.532 -1.4796  2.2729 -0.1809
 8787TIP3    H247853   1.876   0.690  11.605  1.9709  1.6666 -2.0192
 8788TIP3   OH247854   6.548   3.117  15.755  0.1785 -0.2797 -0.0670
 8788TIP3    H147855   6.596   3.112  15.672  0.0203  1.5237 -0.2735
 8788TIP3    H247856   6.462   3.080  15.734  0.6479 -1.2838 -0.2920
 8789TIP3   OH247857   4.565   4.349  11.100  1.4839  0.0944  0.2160
 8789TIP3    H147858   4.522   4.427  11.134 -0.1730 -0.3426 -0.8135
 8789TIP3    H247859   4.493   4.293  11.071  2.7078 -1.2610 -0.2485
 8790TIP3   OH247860   5.143   4.427   2.748 -0.2779 -0.0753 -0.5550
 8790TIP3    H147861   5.104   4.434   2.835 -1.5959  0.8047 -1.1847
 8790TIP3    H247862   5.234   4.402   2.763 -0.2665  0.9164  1.0989
 8791TIP3   OH247863   5.478   5.729   3.699  0.4779  0.0517  0.0490
 8791TIP3    H147864   5.503   5.817   3.725  0.3629  0.4299 -1.1119
 8791TIP3    H247865   5.461   5.735   3.605 -0.1186 -1.0730  0.0749
 8792TIP3   OH247866   4.678   4.495  15.549  0.1483  0.1219 -0.4844
 8792TIP3    H147867   4.609   4.487  15.483 -0.6067  1.0930  0.1581
 8792TIP3    H247868   4.673   4.587  15.578  1.8212  0.2456 -0.5343
 8793TIP3   OH247869   4.720   6.431  13.765  0.3345 -0.2750 -0.0114
 8793TIP3    H147870   4.682   6.510  13.802  1.3791 -0.1736  0.8778
 8793TIP3    H247871   4.677   6.359  13.810  0.0225 -0.1971 -0.1830
 8794TIP3   OH247872   6.615   0.831  12.719 -0.1539  0.1138 -0.0698
 8794TIP3    H147873   6.569   0.914  12.733  0.3010  0.4191 -0.3542
 8794TIP3    H247874   6.608   0.785  12.803  1.3128  1.2976  0.7229
 8795TIP3   OH247875   6.720   0.830  12.134  0.0271  0.3957 -0.0340
 8795TIP3    H147876   6.649   0.814  12.072 -1.7144  1.9399  1.5160
 8795TIP3    H247877   6.678   0.869  12.210  2.4991  0.9972  1.0841
 8796TIP3   OH247878   0.831   0.524   6.761  0.3564 -0.0760 -0.3889
 8796TIP3    H147879   0.797   0.599   6.713 -0.0855  0.9079  1.4476
 8796TIP3    H247880   0.754   0.473   6.784  0.4351  0.2408  0.5818
 8797TIP3   OH247881   0.089   0.287  14.663 -0.0556 -0.4811 -0.0317
 8797TIP3    H147882   0.182   0.269  14.673  0.0681  0.1496 -0.0236
 8797TIP3    H247883   0.085   0.380  14.641 -0.7087 -0.3971  0.4287
 8798TIP3   OH247884   3.151   1.149   0.990 -0.4679 -0.0135 -0.3067
 8798TIP3    H147885   3.231   1.166   0.941 -0.6722  0.7588 -0.3896
 8798TIP3    H247886   3.088   1.118   0.925 -1.1341  2.2423 -0.8057
 8799TIP3   OH247887   1.731   1.168   3.179  0.7750 -0.0520  0.1769
 8799TIP3    H147888   1.692   1.105   3.119 -0.7877 -0.4394  1.5485
 8799TIP3    H247889   1.825   1.151   3.174  0.5149 -1.2823 -0.8222
 8800TIP3   OH247890   0.769   6.652   5.874 -0.0525 -0.0202 -0.1678
 8800TIP3    H147891   0.769   6.696   5.789 -0.5663 -1.0410 -0.7085
 8800TIP3    H247892   0.706   6.702   5.927 -1.3575 -0.6648 -1.0812
 8801TIP3   OH247893   5.711   0.156   4.516  0.1427 -0.5430 -0.5051
 8801TIP3    H147894   5.720   0.250   4.531 -1.3203 -0.8281  2.4498
 8801TIP3    H247895   5.789   0.118   4.556 -0.4710 -0.7581  0.5133
 8802TIP3   OH247896   6.315   3.750  12.936 -0.0044 -0.1728 -0.7736
 8802TIP3    H147897   6.371   3.686  12.979  0.4718 -0.0715 -1.2453
 8802TIP3    H247898   6.258   3.783  13.007  0.7237 -0.0594 -0.2311
 8803TIP3   OH247899   1.875   0.502  12.272 -0.3337 -0.0252 -0.0052
 8803TIP3    H147900   1.948   0.522  12.213  0.4431 -2.3180  0.1468
 8803TIP3    H247901   1.799   0.499  12.215  0.0895 -0.1904 -0.5645
 8804TIP3   OH247902   4.812   2.047   2.206  0.4153  0.0818 -0.1444
 8804TIP3    H147903   4.861   1.986   2.150 -1.1471  0.1264 -1.5895
 8804TIP3    H247904   4.792   1.996   2.284 -1.7644 -1.6582 -1.7711
 8805TIP3   OH247905   2.096   4.002  14.026 -0.5083  0.5198  0.2160
 8805TIP3    H147906   2.077   3.973  13.937  0.7568  1.2575 -0.3149
 8805TIP3    H247907   2.185   3.972  14.043 -1.1377 -0.5552  1.6434
 8806TIP3   OH247908   3.658   4.569  15.619  0.4996 -0.2317 -0.1220
 8806TIP3    H147909   3.629   4.614  15.539 -0.3706  0.8649  0.7853
 8806TIP3    H247910   3.596   4.498  15.630 -0.9191  1.1385  0.9324
 8807TIP3   OH247911   0.042   1.219  15.710 -0.1329 -0.0894 -0.5401
 8807TIP3    H147912  -0.012   1.173  15.645 -1.8987  0.2851  0.6280
 8807TIP3    H247913   0.105   1.153  15.739 -0.9464 -0.9969 -0.7987
 8808TIP3   OH247914   2.812   0.220  11.770  0.3854  0.5462  0.3798
 8808TIP3    H147915   2.884   0.157  11.773  0.7689  0.9488 -0.2369
 8808TIP3    H247916   2.816   0.256  11.682  0.9432  2.3432  1.1189
 8809TIP3   OH247917   2.178   4.654  11.578  0.0064  0.1378 -0.3310
 8809TIP3    H147918   2.100   4.705  11.600  0.3368  0.3478  0.3434
 8809TIP3    H247919   2.228   4.649  11.659  0.0383 -1.1488 -0.4196
 8810TIP3   OH247920   2.004   4.363   0.612 -0.0723 -0.0765 -0.1978
 8810TIP3    H147921   1.930   4.396   0.561 -0.3288 -0.1591  0.1139
 8810TIP3    H247922   1.991   4.399   0.700 -0.5655 -1.3005  0.2499
 8811TIP3   OH247923   5.851   2.359   1.522 -0.4409 -0.3529 -0.4861
 8811TIP3    H147924   5.809   2.433   1.565 -1.0176 -0.7766 -0.3102
 8811TIP3    H247925   5.881   2.303   1.593  1.0314  0.2749 -0.5979
 8812TIP3   OH247926   5.867   4.063  14.533  0.1821 -0.2475  0.2973
 8812TIP3    H147927   5.813   4.086  14.609 -0.9196 -1.8719  0.0313
 8812TIP3    H247928   5.860   4.139  14.475 -4.2106 -1.5090 -1.0229
 8813TIP3   OH247929   1.915   3.617  16.999 -0.5675 -0.0193  0.0859
 8813TIP3    H147930   1.976   3.656  16.936  0.0576 -1.5640 -0.2862
 8813TIP3    H247931   1.958   3.628  17.084 -1.0433  1.3465  0.1588
 8814TIP3   OH247932   1.698   6.623   4.325 -0.1520 -0.1629 -1.0031
 8814TIP3    H147933   1.781   6.595   4.285  0.6038  0.0353  0.3937
 8814TIP3    H247934   1.688   6.714   4.298  2.0647  1.0381  1.9095
 8815TIP3   OH247935   0.405   5.956  12.378 -1.0928  0.1764  0.3074
 8815TIP3    H147936   0.399   5.894  12.305  0.7311  1.3351 -0.8517
 8815TIP3    H247937   0.373   6.039  12.341  1.7145  1.2514  0.2275
 8816TIP3   OH247938   6.200   2.587   3.256 -0.6960  0.3922  0.1873
 8816TIP3    H147939   6.223   2.495   3.245 -1.6868  0.1901 -0.2174
 8816TIP3    H247940   6.281   2.635   3.239 -0.4349 -0.3465 -0.6715
 8817TIP3   OH247941   6.280   3.149  10.933 -0.2688 -0.0950  0.4527
 8817TIP3    H147942   6.330   3.229  10.920 -0.7192  0.5597  2.5035
 8817TIP3    H247943   6.345   3.079  10.939  0.1785  0.2529 -0.4358
 8818TIP3   OH247944   0.631   2.106   4.606  0.2508  0.2770 -0.6128
 8818TIP3    H147945   0.559   2.159   4.574 -1.4973 -0.8779  1.2930
 8818TIP3    H247946   0.632   2.030   4.548 -0.8569 -0.2761  0.0706
 8819TIP3   OH247947   1.990   3.601  12.194 -0.0914  0.4842  0.1396
 8819TIP3    H147948   1.896   3.609  12.208  0.0849 -0.1173  1.8629
 8819TIP3    H247949   2.028   3.608  12.282  1.2602 -2.0043 -0.1986
 8820TIP3   OH247950   5.753   4.703  12.941 -0.0170  0.3175  0.7998
 8820TIP3    H147951   5.701   4.765  12.992 -2.7350 -2.2325  1.3171
 8820TIP3    H247952   5.774   4.633  13.003 -0.9032 -1.4505 -0.8271
 8821TIP3   OH247953   0.738   3.824  11.453 -0.5209  0.4456 -0.1170
 8821TIP3    H147954   0.788   3.755  11.498 -0.1877  0.4700 -0.4533
 8821TIP3    H247955   0.689   3.867  11.523 -2.4632 -1.5599 -0.1668
 8822TIP3   OH247956   6.086   6.014   3.425 -0.3821  0.1629  0.2921
 8822TIP3    H147957   6.067   6.005   3.331 -0.4240 -2.1254  0.4947
 8822TIP3    H247958   6.010   5.976   3.468 -0.1698  0.8315  1.2576
 8823TIP3   OH247959   6.168   3.919  13.781  0.1032  0.1123 -0.8639
 8823TIP3    H147960   6.121   3.994  13.744 -0.0152 -0.1102 -1.1702
 8823TIP3    H247961   6.256   3.924  13.742  1.4715  2.4968  2.3205
 8824TIP3   OH247962   0.446   4.790  15.219  0.3331  0.5247 -0.6240
 8824TIP3    H147963   0.481   4.850  15.153  0.6222  0.2991 -0.6781
 8824TIP3    H247964   0.510   4.718  15.222 -0.4059 -0.1556 -1.1109
 8825TIP3   OH247965   6.078   4.283  17.269 -0.0774  0.7004 -0.1236
 8825TIP3    H147966   6.061   4.283  17.363  1.5342  1.7067  0.1941
 8825TIP3    H247967   6.049   4.369  17.239 -0.4399  0.4430 -0.5146
 8826TIP3   OH247968   6.047   0.590   1.031  0.0783 -0.3036  0.6502
 8826TIP3    H147969   6.017   0.659   1.090 -0.4578 -0.6922  0.8442
 8826TIP3    H247970   6.141   0.583   1.047  0.3591  1.2516 -0.2899
 8827TIP3   OH247971   4.623   1.028   3.395 -0.1136 -0.5322 -0.6550
 8827TIP3    H147972   4.665   1.105   3.357  1.7467 -0.8395  0.6999
 8827TIP3    H247973   4.530   1.050   3.399  0.2824  1.2635 -1.1323
 8828TIP3   OH247974   1.282   0.155  15.985  0.5891  0.3960  0.4055
 8828TIP3    H147975   1.243   0.186  15.903  0.1143 -0.5947  0.2556
 8828TIP3    H247976   1.308   0.065  15.967  1.7185  0.6063  0.9298
 8829TIP3   OH247977   1.997   5.235  16.329 -0.7387  0.1027  0.3325
 8829TIP3    H147978   1.985   5.300  16.399 -1.7616  0.5787 -0.2608
 8829TIP3    H247979   1.922   5.176  16.338 -0.7760  0.0595 -0.2452
 8830TIP3   OH247980   5.652   0.408   3.558 -0.0640  0.1425 -0.5420
 8830TIP3    H147981   5.607   0.486   3.591  0.4278 -0.0411  0.5816
 8830TIP3    H247982   5.587   0.339   3.561  0.0434  0.0754  0.2669
 8831TIP3   OH247983   5.358   2.749  13.953 -0.0481  0.0703 -0.0840
 8831TIP3    H147984   5.375   2.838  13.923 -0.2219  0.8012  1.9193
 8831TIP3    H247985   5.393   2.693  13.884  0.6046  1.6890 -1.0802
 8832TIP3   OH247986   1.372   0.236   1.215  0.2686  0.0276  0.2967
 8832TIP3    H147987   1.456   0.257   1.254 -0.0952 -1.0557  1.6745
 8832TIP3    H247988   1.319   0.201   1.287 -1.9033  2.1736 -0.1789
 8833TIP3   OH247989   0.988   2.752   4.056 -1.3680 -0.4698 -0.0644
 8833TIP3    H147990   0.996   2.736   4.150 -1.2180  0.2567  0.0481
 8833TIP3    H247991   1.022   2.672   4.016 -0.0266 -0.2088  0.4941
 8834TIP3   OH247992   2.758   2.244  16.689 -0.1573  0.5518  0.7763
 8834TIP3    H147993   2.751   2.299  16.610  0.9227 -0.6028 -0.1591
 8834TIP3    H247994   2.719   2.160  16.663  3.7910 -1.2200  0.0557
 8835TIP3   OH247995   2.697   2.379  16.456  0.4607  0.7847  0.0040
 8835TIP3    H147996   2.657   2.452  16.504  0.6907  1.8758 -1.4118
 8835TIP3    H247997   2.626   2.345  16.402  0.3258 -0.1343  0.7505
 8836TIP3   OH247998   6.169   4.552  12.683 -0.1910  0.1425 -0.3563
 8836TIP3    H147999   6.118   4.471  12.685 -0.8849  0.6052  1.0227
 8836TIP3    H248000   6.240   4.537  12.745  1.0540 -0.2830 -1.8500
 8837TIP3   OH248001   1.126   0.519  16.135 -0.1363  0.2382 -0.2297
 8837TIP3    H148002   1.079   0.509  16.218 -1.4936 -0.1027 -1.0298
 8837TIP3    H248003   1.217   0.497  16.156 -0.1177  1.8284  1.5476
 8838TIP3   OH248004   1.215   5.179  16.737 -0.1033 -0.2061  0.4049
 8838TIP3    H148005   1.298   5.228  16.731 -0.7011  0.7805 -0.0124
 8838TIP3    H248006   1.223   5.111  16.670  0.1432  0.2396 -0.0237
 8839TIP3   OH248007   1.623   3.027   4.175  0.4288 -0.1111  0.3197
 8839TIP3    H148008   1.556   3.021   4.243  1.0120 -1.5962  0.7934
 8839TIP3    H248009   1.643   2.936   4.153  1.9464  0.3150 -0.1482
 8840TIP3   OH248010   2.505   0.250   3.738  0.2747 -0.2540 -0.3716
 8840TIP3    H148011   2.525   0.222   3.648  0.9084  1.4464 -0.7739
 8840TIP3    H248012   2.570   0.204   3.791  2.8114  2.1256 -1.2747
 8841TIP3   OH248013   6.103   5.046   5.442  0.0571  0.4544 -0.1864
 8841TIP3    H148014   6.031   5.036   5.505  0.5249  0.4771  0.3607
 8841TIP3    H248015   6.078   4.991   5.368  0.4790 -1.2657  0.8998
 8842TIP3   OH248016   5.360   3.918   2.957  0.5548  0.5927 -0.2097
 8842TIP3    H148017   5.407   3.849   3.005  2.0422  1.0432 -1.0036
 8842TIP3    H248018   5.426   3.985   2.940 -0.3063  1.0956 -1.6340
 8843TIP3   OH248019   6.795   2.128  14.567  0.3135  0.1813 -0.3618
 8843TIP3    H148020   6.720   2.109  14.510  1.2230 -1.3333 -1.1002
 8843TIP3    H248021   6.843   2.045  14.570  1.0193  0.6383  1.5162
 8844TIP3   OH248022   5.142   2.641   4.761 -0.1360  0.3485 -0.0692
 8844TIP3    H148023   5.080   2.714   4.763  1.2011  1.5003  0.6351
 8844TIP3    H248024   5.101   2.575   4.704 -1.7203  1.3176 -0.0691
 8845TIP3   OH248025   0.595   3.998   3.171 -0.0217 -0.2857  0.1786
 8845TIP3    H148026   0.552   3.960   3.247 -1.2694  0.5492 -0.1019
 8845TIP3    H248027   0.524   4.034   3.118  0.8238 -0.9230 -1.4320
 8846TIP3   OH248028   2.470   0.050  16.592 -0.3627  0.1821 -0.1651
 8846TIP3    H148029   2.461  -0.045  16.588 -1.3927  0.2785 -0.3170
 8846TIP3    H248030   2.564   0.065  16.607 -0.3262 -0.8791  0.7387
 8847TIP3   OH248031   5.292   1.272   1.034 -0.3643 -0.4864  0.0227
 8847TIP3    H148032   5.215   1.313   1.075 -0.1469  0.5521 -0.5884
 8847TIP3    H248033   5.288   1.300   0.943 -0.3199 -2.0202 -0.4667
 8848TIP3   OH248034   0.666   1.563  14.714 -0.3413  0.4425  0.2304
 8848TIP3    H148035   0.746   1.598  14.752  0.1740 -0.3146 -0.1570
 8848TIP3    H248036   0.685   1.553  14.621 -0.9634  0.4807  0.0942
 8849TIP3   OH248037   3.436   4.304   1.747  0.0796  0.4465 -0.1850
 8849TIP3    H148038   3.486   4.370   1.795 -1.5641 -0.3656  2.7775
 8849TIP3    H248039   3.357   4.349   1.718  0.5502  0.6437 -1.1848
 8850TIP3   OH248040   0.869   3.920  12.631 -0.0996  0.5080 -0.2418
 8850TIP3    H148041   0.887   3.873  12.550 -0.2655  1.1484 -0.6483
 8850TIP3    H248042   0.811   3.992  12.606  0.7482  1.3798  0.2524
 8851TIP3   OH248043   0.410   2.883  15.391 -0.4694 -0.6050  0.0078
 8851TIP3    H148044   0.446   2.811  15.338 -0.2141 -1.2677  1.0799
 8851TIP3    H248045   0.320   2.892  15.360 -0.4596 -1.2801 -0.2382
 8852TIP3   OH248046   0.414   5.603  13.096 -0.0230  0.3268 -0.5534
 8852TIP3    H148047   0.362   5.554  13.160 -0.1910 -0.1669 -1.0578
 8852TIP3    H248048   0.417   5.692  13.130  0.9907 -0.2198  0.7919
 8853TIP3   OH248049   5.654   5.294   3.775 -0.4499 -0.1151 -0.4401
 8853TIP3    H148050   5.708   5.339   3.710 -0.2664 -0.5807 -0.6153
 8853TIP3    H248051   5.653   5.352   3.851  0.5067 -0.2211 -0.3452
 8854TIP3   OH248052   4.500   5.698  12.824 -0.0000  0.4848  0.2739
 8854TIP3    H148053   4.519   5.789  12.847  0.3642  0.5920 -0.4233
 8854TIP3    H248054   4.548   5.646  12.888 -0.5352  0.7852  0.9214
 8855TIP3   OH248055   2.218   4.301   2.846 -0.6202 -0.1014 -0.3369
 8855TIP3    H148056   2.191   4.245   2.920  2.0340 -1.7244 -0.5209
 8855TIP3    H248057   2.202   4.247   2.769 -2.5650  1.2663 -0.9110
 8856TIP3   OH248058   2.760   1.657  13.633  0.3425 -0.0095  0.2691
 8856TIP3    H148059   2.772   1.573  13.590  0.9359  0.8378 -1.2728
 8856TIP3    H248060   2.685   1.644  13.691  0.2887 -1.5258 -0.1176
 8857TIP3   OH248061   4.263   4.967   1.297 -0.3635 -0.1786 -0.0224
 8857TIP3    H148062   4.187   4.951   1.352  1.2212 -1.0239  1.9801
 8857TIP3    H248063   4.288   5.058   1.315  0.2604 -0.5097  0.8111
 8858TIP3   OH248064   3.170   4.261   0.059  0.7552  0.0609  0.4375
 8858TIP3    H148065   3.176   4.254  -0.036  1.4269 -0.1747  0.4998
 8858TIP3    H248066   3.143   4.174   0.089 -0.3105  0.3673  0.3956
 8859TIP3   OH248067   3.432   1.754   0.272  0.4063 -0.2144 -0.3472
 8859TIP3    H148068   3.371   1.816   0.313  0.9132 -0.6676  1.1010
 8859TIP3    H248069   3.428   1.775   0.178 -2.5754 -0.7518 -0.3811
 8860TIP3   OH248070   2.126   3.279  17.052  0.7201  0.2971 -0.6052
 8860TIP3    H148071   2.060   3.261  17.118  1.1268  2.0951  0.3025
 8860TIP3    H248072   2.172   3.195  17.041 -0.7982 -0.5925 -0.2667
 8861TIP3   OH248073   0.970   3.779  15.913  0.1215  0.1084  0.4526
 8861TIP3    H148074   0.934   3.735  15.836 -0.8490  0.5718  0.6273
 8861TIP3    H248075   0.984   3.708  15.976  0.4723 -0.2123  0.0149
 8862TIP3   OH248076   2.226   5.273  12.474 -0.7001 -0.1446 -0.5036
 8862TIP3    H148077   2.135   5.299  12.461 -1.1949 -0.7118  1.5708
 8862TIP3    H248078   2.268   5.348  12.517 -0.3424 -0.0971 -0.9334
 8863TIP3   OH248079   1.363   6.110  13.253 -0.2107 -0.2196 -0.0688
 8863TIP3    H148080   1.285   6.083  13.204 -0.5184 -0.7672  0.7150
 8863TIP3    H248081   1.434   6.107  13.189 -0.5491 -1.2118 -0.4110
 8864TIP3   OH248082   3.119   2.665  10.626  0.0520 -0.1893 -0.9712
 8864TIP3    H148083   3.089   2.680  10.715  1.1255  0.5375 -0.7212
 8864TIP3    H248084   3.052   2.706  10.571 -0.4436 -0.3544 -0.4863
 8865TIP3   OH248085   3.867   2.343  13.835  0.2200  0.0360 -0.7634
 8865TIP3    H148086   3.950   2.376  13.869 -0.4312  0.4990  0.3993
 8865TIP3    H248087   3.810   2.419  13.834 -0.4975 -0.4971 -0.5833
 8866TIP3   OH248088   0.712   5.560  13.829 -0.0115  0.2269 -0.1926
 8866TIP3    H148089   0.725   5.572  13.923 -1.3060 -1.0824  0.1779
 8866TIP3    H248090   0.793   5.590  13.790  0.3501  1.2706  1.3104
 8867TIP3   OH248091   3.396   2.551  16.196 -0.6686  0.7703 -0.0798
 8867TIP3    H148092   3.412   2.561  16.102 -1.8461  2.1294 -0.1618
 8867TIP3    H248093   3.396   2.641  16.230  2.1571  0.1666  1.6674
 8868TIP3   OH248094   2.798   2.716   3.309  0.3262 -0.4975 -0.1036
 8868TIP3    H148095   2.796   2.626   3.275 -1.7347  0.3966 -2.4626
 8868TIP3    H248096   2.711   2.750   3.291  0.4183  1.3303  2.6613
 8869TIP3   OH248097   1.623   4.303   4.823 -0.1877 -0.2702  0.4110
 8869TIP3    H148098   1.595   4.212   4.809 -1.1311  0.3514 -2.0971
 8869TIP3    H248099   1.655   4.332   4.738  1.3990  1.3381  1.5187
 8870TIP3   OH248100   5.801   0.351  15.518  0.5295 -0.2598 -0.5522
 8870TIP3    H148101   5.787   0.444  15.503  2.6703 -0.1942 -2.3787
 8870TIP3    H248102   5.895   0.338  15.508  0.3833 -2.4865  0.5206
 8871TIP3   OH248103   1.879   0.495  15.938 -0.0709 -0.3700 -0.5486
 8871TIP3    H148104   1.948   0.451  15.888  1.1990 -1.3251  1.9691
 8871TIP3    H248105   1.833   0.423  15.983 -1.1591  0.4779 -0.2848
 8872TIP3   OH248106   0.403   3.272  14.401 -0.2583  0.4365  0.5141
 8872TIP3    H148107   0.476   3.222  14.437 -1.6191 -1.4074  0.7912
 8872TIP3    H248108   0.342   3.282  14.474 -1.3485 -0.0989 -0.2981
 8873TIP3   OH248109   5.044   0.630   4.226  0.3553  0.0140 -0.3338
 8873TIP3    H148110   4.960   0.585   4.230 -0.6686  2.0250  1.2635
 8873TIP3    H248111   5.036   0.689   4.150  1.1502 -1.3486 -1.5081
 8874TIP3   OH248112   4.003   3.838  15.790 -0.2072  0.0161 -0.5160
 8874TIP3    H148113   3.959   3.866  15.870 -2.0722 -1.5914 -0.9270
 8874TIP3    H248114   4.096   3.844  15.810 -0.6448  0.3258  1.5266
 8875TIP3   OH248115   6.103   3.527   0.406  0.3997  0.0386  0.1369
 8875TIP3    H148116   6.029   3.499   0.352  0.6130  0.7206 -0.5207
 8875TIP3    H248117   6.112   3.621   0.389  0.3032  0.3246  1.5763
 8876TIP3   OH248118   4.788   2.627   2.277 -0.3478 -0.5060  0.4446
 8876TIP3    H148119   4.814   2.583   2.196 -0.5071  0.9506 -0.4138
 8876TIP3    H248120   4.694   2.642   2.266 -0.2703  0.1635  0.6657
 8877TIP3   OH248121   0.505   5.249  12.810 -0.3866  0.0413  0.2945
 8877TIP3    H148122   0.507   5.177  12.874  1.6244 -1.0392 -0.9194
 8877TIP3    H248123   0.440   5.222  12.745 -0.7444  0.0499  0.6455
 8878TIP3   OH248124   0.246   0.843   4.238 -0.1534 -0.6707 -0.1621
 8878TIP3    H148125   0.207   0.910   4.182  1.9444  0.9419  0.2753
 8878TIP3    H248126   0.209   0.761   4.204 -0.2960  0.4105 -2.7734
 8879TIP3   OH248127   0.041   5.587   3.826 -0.3153  0.3589 -0.3613
 8879TIP3    H148128   0.135   5.605   3.829 -0.0142 -1.1531 -0.2757
 8879TIP3    H248129   0.019   5.560   3.916 -0.3046 -1.7225 -0.9487
 8880TIP3   OH248130   0.794   0.409  14.922 -0.1499  0.4346  0.1841
 8880TIP3    H148131   0.778   0.486  14.977  1.9208  1.3497 -0.4342
 8880TIP3    H248132   0.867   0.435  14.865 -0.7875 -1.2641 -1.4688
 8881TIP3   OH248133   4.033   4.890  14.211  0.3955  0.6678 -0.0688
 8881TIP3    H148134   4.058   4.809  14.256 -0.5186 -0.1070 -0.9319
 8881TIP3    H248135   3.959   4.924  14.261 -1.0249 -0.5267 -1.3359
 8882TIP3   OH248136   1.457   4.701   5.555  0.4191 -0.2724 -0.4007
 8882TIP3    H148137   1.455   4.757   5.478 -1.6073 -0.1775 -0.3036
 8882TIP3    H248138   1.446   4.760   5.629  1.9899 -0.4043 -0.0496
 8883TIP3   OH248139   3.310   2.284   1.649  0.1072  0.0091 -0.1892
 8883TIP3    H148140   3.356   2.204   1.675  0.3563 -0.5105 -2.1282
 8883TIP3    H248141   3.378   2.338   1.609 -0.5084  0.2546 -0.8976
 8884TIP3   OH248142   4.249   6.594   1.364 -0.2686  0.5001 -0.2598
 8884TIP3    H148143   4.155   6.597   1.344 -0.5504  0.5319  1.0149
 8884TIP3    H248144   4.287   6.666   1.315 -0.9374  0.5656 -0.6809
 8885TIP3   OH248145   0.808   0.563   4.489 -0.2686  0.4134  0.2235
 8885TIP3    H148146   0.758   0.642   4.473 -1.4824  0.0203  1.9929
 8885TIP3    H248147   0.771   0.526   4.570  0.3984 -1.8370 -0.4513
 8886TIP3   OH248148   0.238   1.882  15.254 -0.1396  0.4419  0.0019
 8886TIP3    H148149   0.294   1.954  15.226 -1.3537  1.2402 -0.3840
 8886TIP3    H248150   0.297   1.823  15.302  1.5303  0.0547 -2.4633
 8887TIP3   OH248151   4.072   4.582   5.739 -0.2326 -0.3549 -0.4717
 8887TIP3    H148152   4.050   4.653   5.678 -0.4022 -0.6712 -0.7799
 8887TIP3    H248153   4.031   4.608   5.821 -1.0081 -0.5017 -0.8032
 8888TIP3   OH248154   6.615   5.938   6.410  0.5549 -0.5546 -0.6698
 8888TIP3    H148155   6.685   5.878   6.435  0.4362 -0.7378 -0.7774
 8888TIP3    H248156   6.537   5.883   6.404  0.3542 -0.3113 -0.3247
 8889TIP3   OH248157   6.274   3.326   6.649 -0.0011 -0.4402 -0.3411
 8889TIP3    H148158   6.273   3.396   6.714 -0.5641 -0.9165  0.1699
 8889TIP3    H248159   6.354   3.277   6.668 -0.2256 -0.6473  0.0617
 8890TIP3   OH248160   5.203   4.001   2.309  0.1438  0.9685 -0.3814
 8890TIP3    H148161   5.278   4.022   2.254 -0.0196  4.8364  0.7368
 8890TIP3    H248162   5.127   4.016   2.254  0.0754  1.7487 -0.0823
 8891TIP3   OH248163   6.078   0.883  13.667 -0.0945  0.0044  0.2943
 8891TIP3    H148164   6.104   0.897  13.575  1.1460  0.8683  0.7536
 8891TIP3    H248165   5.992   0.924  13.674  0.1515  0.6363 -0.2887
 8892TIP3   OH248166   4.224   0.694  12.386 -0.3008  0.1667  0.2683
 8892TIP3    H148167   4.198   0.605  12.410  1.1882 -0.8682 -1.7948
 8892TIP3    H248168   4.263   0.729  12.466  1.1314 -1.8304  0.4872
 8893TIP3   OH248169   6.536   5.385   2.237  0.2448  0.4013  0.1223
 8893TIP3    H148170   6.538   5.289   2.227  0.3218  0.5035 -0.8766
 8893TIP3    H248171   6.468   5.413   2.176 -0.4973  0.9039  1.1612
 8894TIP3   OH248172   2.794   2.566   6.089  0.1813  0.0627  0.0010
 8894TIP3    H148173   2.848   2.496   6.052  0.3137  0.2961 -0.2469
 8894TIP3    H248174   2.751   2.525   6.164  1.0173 -0.0156  0.4529
 8895TIP3   OH248175   1.062   0.172  16.780  0.4142  0.6777  0.3561
 8895TIP3    H148176   1.139   0.124  16.809 -0.0786 -0.0228  0.5398
 8895TIP3    H248177   1.026   0.211  16.860  0.0632  0.2307  0.4235
 8896TIP3   OH248178   3.513   5.671  10.049 -0.4298  0.2825 -0.2984
 8896TIP3    H148179   3.481   5.721  10.124  0.8108 -1.2827  1.2919
 8896TIP3    H248180   3.434   5.640  10.005 -1.1459 -1.4629  2.1751
 8897TIP3   OH248181   0.411   3.373   2.689  0.0495 -0.3241  0.0120
 8897TIP3    H148182   0.356   3.410   2.757  1.1635  0.3252  0.5822
 8897TIP3    H248183   0.428   3.283   2.717  1.3079  0.2445  1.0999
 8898TIP3   OH248184   3.312   3.687   2.428 -0.4641  0.2765 -0.2001
 8898TIP3    H148185   3.257   3.757   2.464  0.6876  1.1449 -0.1221
 8898TIP3    H248186   3.381   3.674   2.494  2.2331  2.5588 -2.4786
 8899TIP3   OH248187   0.858   1.981   0.863  0.3642 -0.6994 -0.6183
 8899TIP3    H148188   0.786   1.920   0.876  1.2253 -1.4475  0.7069
 8899TIP3    H248189   0.855   2.002   0.770 -0.5238 -2.0149 -0.8960
 8900TIP3   OH248190   0.381   6.756  12.010 -0.3391 -0.1814 -0.2175
 8900TIP3    H148191   0.350   6.667  11.991  1.3380 -0.8440  0.0332
 8900TIP3    H248192   0.355   6.771  12.101 -0.1378 -0.6434 -0.0785
 8901TIP3   OH248193   3.209   6.045  13.687  0.2172 -0.3421  0.0682
 8901TIP3    H148194   3.278   5.997  13.642  0.7372 -0.5134  1.0613
 8901TIP3    H248195   3.221   6.025  13.779 -0.3689  0.6472  0.3645
 8902TIP3   OH248196   1.178   5.798   1.542 -0.0996 -0.9331  0.4225
 8902TIP3    H148197   1.197   5.831   1.629 -0.3698 -0.3829  0.2728
 8902TIP3    H248198   1.157   5.876   1.490  2.0847 -1.0487 -0.6678
 8903TIP3   OH248199   1.258   4.183   0.213 -0.2053  0.3287 -0.4429
 8903TIP3    H148200   1.322   4.128   0.167 -0.7189 -0.9295  0.3047
 8903TIP3    H248201   1.185   4.190   0.152 -0.3399 -0.2493 -0.3590
 8904TIP3   OH248202   5.787   0.844  12.330 -0.1052  0.4829  0.0016
 8904TIP3    H148203   5.854   0.911  12.344 -0.2921  0.3078  1.8029
 8904TIP3    H248204   5.835   0.761  12.331 -0.1148  0.4690 -0.4960
 8905TIP3   OH248205   5.342   0.928   5.015 -0.5161 -0.3061  0.2106
 8905TIP3    H148206   5.344   1.013   5.058 -1.7134 -0.3744  0.4428
 8905TIP3    H248207   5.275   0.878   5.064 -2.2356 -0.2376 -1.9749
 8906TIP3   OH248208   6.554   0.425  12.965 -0.3073  0.0225  0.0167
 8906TIP3    H148209   6.503   0.446  13.043 -0.2225 -0.9477  0.3351
 8906TIP3    H248210   6.493   0.441  12.892 -0.6667  0.0662  0.3265
 8907TIP3   OH248211   1.936   6.329   1.440 -0.5410 -0.3115  0.2784
 8907TIP3    H148212   1.872   6.371   1.381  1.5511 -2.1070 -3.4746
 8907TIP3    H248213   2.021   6.357   1.407  0.7126 -1.0258  2.7973
 8908TIP3   OH248214   3.147   1.846   4.540 -0.3437  0.0883 -0.8471
 8908TIP3    H148215   3.173   1.774   4.597  0.1144  0.5661 -0.4477
 8908TIP3    H248216   3.167   1.816   4.451  1.5792  0.4481 -0.5522
 8909TIP3   OH248217   5.302   6.314  15.283 -0.1342 -0.5760 -0.2650
 8909TIP3    H148218   5.279   6.271  15.365 -0.8634  0.6512  0.2013
 8909TIP3    H248219   5.329   6.243  15.225 -0.4523 -1.5493  0.7538
 8910TIP3   OH248220   2.131   2.161  13.072  0.8454  1.0441 -0.5042
 8910TIP3    H148221   2.110   2.093  13.135 -0.1553  0.4984 -1.4143
 8910TIP3    H248222   2.218   2.139  13.040  0.1529 -0.3480 -1.4798
 8911TIP3   OH248223   4.694   3.999  14.370 -0.2496  0.1831  0.6862
 8911TIP3    H148224   4.733   3.951  14.443 -0.8553 -0.4558  0.5890
 8911TIP3    H248225   4.743   4.082  14.368  1.3076 -0.7245  0.3743
 8912TIP3   OH248226   5.569   5.487   1.495 -0.1943  0.0444  0.8111
 8912TIP3    H148227   5.599   5.396   1.491 -1.9979 -0.6928  3.2344
 8912TIP3    H248228   5.636   5.532   1.547  0.3624 -0.0218  0.1616
 8913TIP3   OH248229   3.643   1.007   5.207  0.1869 -0.5722  0.2667
 8913TIP3    H148230   3.707   1.008   5.136 -0.0809  0.8430  0.0410
 8913TIP3    H248231   3.570   1.060   5.175 -0.4388 -0.8856  1.1402
 8914TIP3   OH248232   5.701   6.273  16.450 -0.1277  0.2207 -0.3177
 8914TIP3    H148233   5.671   6.198  16.503  2.4848 -0.8252 -0.2436
 8914TIP3    H248234   5.708   6.238  16.361 -2.5101  1.4296 -1.0265
 8915TIP3   OH248235   0.933   0.350  16.562 -0.0472  0.5749 -0.5911
 8915TIP3    H148236   0.971   0.285  16.620  0.3849  0.3547 -1.1157
 8915TIP3    H248237   0.868   0.395  16.615  0.6425  0.6581  0.1788
 8916TIP3   OH248238   2.881   1.980  16.158  0.2428  0.4730 -0.2068
 8916TIP3    H148239   2.859   2.038  16.085 -1.2854 -1.0172 -0.9567
 8916TIP3    H248240   2.817   1.910  16.153  0.7381 -0.1728  1.9902
 8917TIP3   OH248241   4.124   4.931  13.577  0.0147 -0.0176  0.1018
 8917TIP3    H148242   4.052   4.984  13.614  0.3918  1.5906 -1.3712
 8917TIP3    H248243   4.139   4.863  13.642 -0.1809  1.9670  2.3118
 8918TIP3   OH248244   2.180   2.802   4.581  0.5132  0.0887 -0.0538
 8918TIP3    H148245   2.088   2.786   4.561  0.3740  1.3923 -0.4763
 8918TIP3    H248246   2.198   2.745   4.656 -0.0540 -1.7829 -1.2907
 8919TIP3   OH248247   4.295   1.026  10.826  0.2325 -0.2874 -0.7732
 8919TIP3    H148248   4.330   0.967  10.759  1.6502 -0.1399 -0.1876
 8919TIP3    H248249   4.202   1.036  10.803  0.4817 -0.9666 -2.1689
 8920TIP3   OH248250   3.030   6.634  13.757  0.1279  0.3622 -0.2544
 8920TIP3    H148251   2.975   6.579  13.702 -1.8315  0.1663  1.8235
 8920TIP3    H248252   2.968   6.693  13.800  1.5561  0.2575  1.9994
 8921TIP3   OH248253   6.617   3.947   3.167 -0.0828 -0.3489  0.0700
 8921TIP3    H148254   6.708   3.966   3.187 -0.1004 -0.6193  0.4114
 8921TIP3    H248255   6.582   3.910   3.248 -0.2135 -1.2472 -0.3885
 8922TIP3   OH248256   3.964   2.698   6.378  0.4566 -0.1437 -0.1751
 8922TIP3    H148257   4.018   2.710   6.456  1.2405  2.0912 -1.0264
 8922TIP3    H248258   4.025   2.709   6.305 -0.8090  0.7730 -1.1207
 8923TIP3   OH248259   5.100   3.934   5.985  0.3085  0.0448  0.2646
 8923TIP3    H148260   5.145   3.990   6.049  0.5098 -0.8295  0.9059
 8923TIP3    H248261   5.041   3.993   5.938 -0.7957  0.4638  2.1403
 8924TIP3   OH248262   6.592   3.022  16.375  0.5008  0.0155  0.0536
 8924TIP3    H148263   6.622   2.960  16.442  2.3315  1.9377  1.0759
 8924TIP3    H248264   6.673   3.054  16.334 -0.3852  1.9447 -0.2385
 8925TIP3   OH248265   0.697   1.937   1.896 -0.0347 -0.4386  0.5702
 8925TIP3    H148266   0.784   1.969   1.873 -0.6721  1.4545  0.7175
 8925TIP3    H248267   0.712   1.872   1.964  1.1727  1.1507  1.8619
 8926TIP3   OH248268   0.325   6.777  13.236  0.2938  0.3886  0.2645
 8926TIP3    H148269   0.256   6.840  13.214  0.3760  0.0572 -0.9320
 8926TIP3    H248270   0.399   6.801  13.181  0.0239 -1.3089 -0.8833
 8927TIP3   OH248271   3.101   6.644  13.129 -0.4162  0.1854 -0.2949
 8927TIP3    H148272   3.174   6.694  13.092 -0.2787 -0.0132 -0.2956
 8927TIP3    H248273   3.141   6.562  13.159 -0.3571  0.7169  1.1153
 8928TIP3   OH248274   6.649   6.647  11.895  0.8093  0.5417 -0.6144
 8928TIP3    H148275   6.568   6.625  11.850  1.0714  1.3843 -1.5101
 8928TIP3    H248276   6.695   6.563  11.905 -0.6102 -0.0889  0.8097
 8929TIP3   OH248277   3.571   1.375  11.874  0.2600  0.4000  0.1616
 8929TIP3    H148278   3.511   1.325  11.819  0.3951 -1.0907  1.3533
 8929TIP3    H248279   3.651   1.382  11.823 -0.2606  0.7177 -0.6273
 8930TIP3   OH248280   1.432   4.573  16.509  0.0735 -0.7905  0.5346
 8930TIP3    H148281   1.428   4.532  16.422  0.2472 -0.3867  0.3341
 8930TIP3    H248282   1.521   4.557  16.539 -0.4337 -2.2395  1.2878
 8931TIP3   OH248283   1.925   5.071   0.231 -0.0875 -0.0683  0.0323
 8931TIP3    H148284   1.880   4.987   0.238 -0.5687  0.0882 -1.1466
 8931TIP3    H248285   1.916   5.096   0.140  1.4044  0.5234  0.0260
 8932TIP3   OH248286   2.354   3.464   5.476  0.3800  0.0827  0.0318
 8932TIP3    H148287   2.317   3.502   5.396  1.7300  0.1615 -0.5635
 8932TIP3    H248288   2.313   3.377   5.482 -0.3872  0.4183 -0.2643
 8933TIP3   OH248289   4.517   4.935  17.135 -0.0702  0.1498 -0.2183
 8933TIP3    H148290   4.441   4.994  17.136 -1.4489 -1.5055 -2.2923
 8933TIP3    H248291   4.482   4.853  17.100  2.5067 -0.9294 -0.3133
 8934TIP3   OH248292   1.047   6.154   0.859  0.4621 -0.1666 -0.2655
 8934TIP3    H148293   0.958   6.129   0.883  1.0368 -1.8085  0.2855
 8934TIP3    H248294   1.041   6.179   0.767 -0.4584 -0.9673 -0.4350
 8935TIP3   OH248295   6.805   2.214  12.292  0.2316 -0.5983  0.3040
 8935TIP3    H148296   6.762   2.166  12.220  0.9251 -1.8264  0.6986
 8935TIP3    H248297   6.883   2.251  12.252  0.9657 -1.8380  0.5742
 8936TIP3   OH248298   5.837   6.568   0.502  0.0146 -0.2928 -0.2163
 8936TIP3    H148299   5.886   6.646   0.531  0.1455 -0.1290 -0.8626
 8936TIP3    H248300   5.859   6.501   0.566 -0.8706  0.4791  0.9116
 8937TIP3   OH248301   5.143   2.084  12.407  0.0314 -0.1496 -0.3466
 8937TIP3    H148302   5.079   2.101  12.338 -0.2365  0.2753  0.0091
 8937TIP3    H248303   5.095   2.030  12.471  0.1127 -0.0720 -0.2195
 8938TIP3   OH248304   0.328   3.650  11.174  0.0884  0.2528  0.0683
 8938TIP3    H148305   0.326   3.578  11.111 -0.1333  0.3535 -0.0369
 8938TIP3    H248306   0.412   3.639  11.219  0.7201  0.8177 -0.9680
 8939TIP3   OH248307   0.525   2.845  11.637 -0.1436 -0.7510  0.4806
 8939TIP3    H148308   0.610   2.865  11.598 -0.3513  0.2184  0.4947
 8939TIP3    H248309   0.541   2.770  11.694 -0.0107 -2.7517 -2.0938
 8940TIP3   OH248310   0.428   2.908   6.408 -0.5880 -0.0548  0.4543
 8940TIP3    H148311   0.352   2.860   6.440 -0.2674 -1.2217 -0.4705
 8940TIP3    H248312   0.486   2.915   6.484 -1.5788  0.7561  1.1352
 8941TIP3   OH248313   1.828   6.076   3.075 -0.4231 -0.6025  0.2916
 8941TIP3    H148314   1.870   6.016   3.136  0.0786 -1.1481 -0.5749
 8941TIP3    H248315   1.846   6.039   2.988 -1.0431  0.2059 -0.1947
 8942TIP3   OH248316   2.213   5.090   2.860  0.2881  0.5381 -0.7039
 8942TIP3    H148317   2.243   5.004   2.831 -0.3062  0.5014 -1.2171
 8942TIP3    H248318   2.240   5.149   2.790  0.6347  0.7659 -0.3835
 8943TIP3   OH248319   5.469   6.249   2.436 -0.1944  0.9336 -0.0295
 8943TIP3    H148320   5.452   6.234   2.528  0.3948  0.2312 -0.0347
 8943TIP3    H248321   5.393   6.299   2.405 -0.5568  0.8602  0.7442
 8944TIP3   OH248322   5.058   2.735   4.263  0.4621  0.1961  0.0517
 8944TIP3    H148323   5.146   2.770   4.248 -0.0301  1.1657 -0.6198
 8944TIP3    H248324   5.018   2.732   4.176  0.1674 -1.1766  0.2153
 8945TIP3   OH248325   3.703   2.687   6.644  0.7981 -0.1732 -0.0741
 8945TIP3    H148326   3.770   2.669   6.578  2.2552 -1.1820  1.6424
 8945TIP3    H248327   3.744   2.751   6.702  0.6589 -1.5370  1.5489
 8946TIP3   OH248328   0.722   5.886  14.494 -0.2049  0.2118 -0.2048
 8946TIP3    H148329   0.633   5.862  14.471 -0.2272 -0.0313  0.1277
 8946TIP3    H248330   0.732   5.857  14.585 -0.4276  2.0190  0.4073
 8947TIP3   OH248331   1.686   4.404   0.550  0.3422  0.0960  0.0758
 8947TIP3    H148332   1.613   4.412   0.611 -0.5877  0.3499 -1.0548
 8947TIP3    H248333   1.731   4.488   0.555  1.3219 -0.4951  1.7067
 8948TIP3   OH248334   0.591   4.844  13.637 -0.3134 -0.7801 -0.6724
 8948TIP3    H148335   0.552   4.853  13.550  1.9851  0.4932 -1.6496
 8948TIP3    H248336   0.669   4.900  13.633  0.3851 -1.5155  1.8787
 8949TIP3   OH248337   3.926   4.739  12.610  0.3039  0.8733  0.0121
 8949TIP3    H148338   3.934   4.828  12.578 -0.4007  0.3505 -1.6784
 8949TIP3    H248339   4.007   4.723  12.658  1.4404  1.6617 -1.5954
 8950TIP3   OH248340   3.886   2.543  16.116  0.4979 -0.2832  0.2292
 8950TIP3    H148341   3.923   2.461  16.150  0.8920 -0.1950  0.0068
 8950TIP3    H248342   3.838   2.517  16.038 -1.3590 -0.6670  1.4519
 8951TIP3   OH248343   5.903   3.471   1.260 -0.1808 -0.2823  0.1699
 8951TIP3    H148344   5.907   3.553   1.211  0.1098 -0.5651 -0.2897
 8951TIP3    H248345   5.865   3.408   1.198  0.6206 -0.7544  0.1496
 8952TIP3   OH248346   4.054   2.615   5.127 -0.0938  0.1862  0.0470
 8952TIP3    H148347   4.008   2.531   5.113 -0.7123  0.4923  0.2200
 8952TIP3    H248348   3.991   2.681   5.098 -0.1246  0.6593  1.1888
 8953TIP3   OH248349   1.234   1.031   0.150  0.2925  0.0485 -0.1225
 8953TIP3    H148350   1.207   1.085   0.076 -0.1023  0.3030  0.2079
 8953TIP3    H248351   1.233   0.941   0.117  1.8773  0.3203 -0.9590
 8954TIP3   OH248352   4.306   0.174  15.596 -0.0287 -0.3001 -0.3447
 8954TIP3    H148353   4.375   0.165  15.662 -1.1169  0.9108  1.0235
 8954TIP3    H248354   4.349   0.212  15.520  0.5179  2.0356  1.0810
 8955TIP3   OH248355   0.895   6.547   1.472  0.1843  0.1078  0.5123
 8955TIP3    H148356   0.872   6.603   1.398 -0.1790  0.8745  1.1854
 8955TIP3    H248357   0.985   6.520   1.456  0.1346  0.3479 -0.1596
 8956TIP3   OH248358   4.358   2.724  16.460  0.3704  0.1003 -0.3757
 8956TIP3    H148359   4.415   2.658  16.421  0.7137 -0.6473  1.3772
 8956TIP3    H248360   4.279   2.676  16.485  1.4153 -0.0672  2.7325
 8957TIP3   OH248361   4.443   2.936   6.016  0.3243  0.1384 -0.2607
 8957TIP3    H148362   4.440   3.025   6.049  0.4681 -0.7333  2.2050
 8957TIP3    H248363   4.353   2.903   6.029  0.1243  0.0874 -1.6741
 8958TIP3   OH248364   4.501   6.581  13.225 -0.2628  0.0927 -0.4330
 8958TIP3    H148365   4.525   6.670  13.199 -1.6833  0.9441  1.0752
 8958TIP3    H248366   4.577   6.549  13.274  1.2115 -0.4395 -2.9248
 8959TIP3   OH248367   0.450   4.805   3.093 -0.1531  0.8857  0.1384
 8959TIP3    H148368   0.503   4.774   3.019 -1.0297 -0.7439  0.1678
 8959TIP3    H248369   0.499   4.775   3.170 -0.3807  0.6347  0.1851
 8960TIP3   OH248370   4.697   4.638   1.117  0.1448  0.2029  0.1929
 8960TIP3    H148371   4.660   4.674   1.037 -0.7207  0.0993  0.5386
 8960TIP3    H248372   4.690   4.710   1.180  0.8298  0.2872  0.1775
 8961TIP3   OH248373   1.194   3.692  12.516 -0.1773 -0.2689 -0.0856
 8961TIP3    H148374   1.252   3.679  12.441 -0.9029  1.0534 -0.8842
 8961TIP3    H248375   1.136   3.616  12.514  0.1398 -0.5041 -0.5387
 8962TIP3   OH248376   6.455   0.876   0.140 -0.3553  0.1110  0.0671
 8962TIP3    H148377   6.421   0.961   0.169 -0.4299 -0.1485  0.7364
 8962TIP3    H248378   6.385   0.814   0.160  0.1518 -0.2878  0.6143
 8963TIP3   OH248379   0.933   5.158   2.418  0.2298  0.1359  0.0352
 8963TIP3    H148380   0.983   5.168   2.499  0.7099  0.6815 -0.3188
 8963TIP3    H248381   0.841   5.163   2.445  0.3948  2.2252  0.3218
 8964TIP3   OH248382   5.474   0.237  15.858 -0.1903 -0.1499  0.0790
 8964TIP3    H148383   5.419   0.158  15.864  1.8618 -1.6165  0.1785
 8964TIP3    H248384   5.487   0.250  15.764  0.8272 -0.9216  0.1040
 8965TIP3   OH248385   2.858   3.592  14.598  0.3888  0.1661  0.2625
 8965TIP3    H148386   2.853   3.536  14.520 -0.7285 -1.8132  1.7218
 8965TIP3    H248387   2.808   3.670  14.575  0.5272 -0.1530 -1.1855
 8966TIP3   OH248388   2.744   1.018  15.762  0.7395  0.1466 -0.5385
 8966TIP3    H148389   2.741   1.097  15.817  1.4428  0.1249 -0.4652
 8966TIP3    H248390   2.660   1.017  15.717 -0.4994 -0.7079  1.7347
 8967TIP3   OH248391   0.989   1.291  13.519  0.3840 -0.2734 -0.1043
 8967TIP3    H148392   0.963   1.327  13.604 -1.9860  2.0624 -1.7753
 8967TIP3    H248393   1.071   1.337  13.498  1.5285 -1.5840  1.3084
 8968TIP3   OH248394   2.569   4.720  17.113  0.7058  0.4863  0.3729
 8968TIP3    H148395   2.631   4.703  17.042  1.4133 -0.1323  1.1258
 8968TIP3    H248396   2.591   4.655  17.180 -0.4982  0.5239  0.8172
 8969TIP3   OH248397   1.730   6.470  12.526  0.0145  0.8304 -0.7473
 8969TIP3    H148398   1.803   6.463  12.465 -0.6993  1.8038 -1.7220
 8969TIP3    H248399   1.653   6.483  12.471 -1.1554 -1.7665  0.1737
 8970TIP3   OH248400   0.801   3.521  15.021  0.2521 -0.0144  0.0693
 8970TIP3    H148401   0.815   3.442  14.968 -0.6532 -0.3936  0.3928
 8970TIP3    H248402   0.714   3.552  14.996  1.0717  1.5310 -0.8864
 8971TIP3   OH248403   3.058   2.098   5.180 -0.3438 -0.1322 -0.0791
 8971TIP3    H148404   3.090   2.021   5.133 -1.0763  0.2976 -1.3165
 8971TIP3    H248405   3.102   2.094   5.265 -0.6396 -2.0951  0.0049
 8972TIP3   OH248406   6.119   3.477   1.442 -0.3763  0.0581 -0.1244
 8972TIP3    H148407   6.051   3.496   1.378  1.3230 -0.0479 -2.0237
 8972TIP3    H248408   6.149   3.563   1.472 -1.4934  0.0989  0.8838
 8973TIP3   OH248409   2.266   0.571  16.091 -0.1361  0.1943  0.1315
 8973TIP3    H148410   2.351   0.598  16.056  0.0661  1.0012  1.1903
 8973TIP3    H248411   2.262   0.477  16.077 -0.4073  0.6090 -2.7459
 8974TIP3   OH248412   4.839   3.019  14.837 -0.8449  0.5398 -0.2474
 8974TIP3    H148413   4.781   3.069  14.894 -0.5900  0.4338  0.1125
 8974TIP3    H248414   4.782   2.957  14.792 -0.8094 -0.5682  1.1980
 8975TIP3   OH248415   5.992   6.339   1.589  0.5752 -0.0421 -0.1737
 8975TIP3    H148416   5.910   6.379   1.560 -0.0819 -1.5406 -0.4365
 8975TIP3    H248417   6.046   6.336   1.510  0.4619 -0.0444 -0.2516
 8976TIP3   OH248418   1.143   1.832  11.481 -0.4308 -0.0069 -0.2615
 8976TIP3    H148419   1.098   1.750  11.504 -0.9303  0.4194  0.2720
 8976TIP3    H248420   1.232   1.804  11.460  0.0263 -0.4187  2.0901
 8977TIP3   OH248421   3.921   4.057   5.736 -0.7822 -0.2950  0.5210
 8977TIP3    H148422   3.885   3.985   5.685 -0.5670 -0.1222  0.1266
 8977TIP3    H248423   3.976   4.105   5.675 -0.0048 -0.4591  1.0822
 8978TIP3   OH248424   4.504   3.303   2.757 -0.2341  0.4447 -0.2355
 8978TIP3    H148425   4.570   3.365   2.790 -0.7632  1.5317 -1.1863
 8978TIP3    H248426   4.479   3.337   2.671 -0.3767 -1.2294 -0.8719
 8979TIP3   OH248427   5.480   0.368  11.182 -0.4883  0.2922 -0.6336
 8979TIP3    H148428   5.481   0.454  11.139 -1.9423 -0.3259 -1.9481
 8979TIP3    H248429   5.485   0.305  11.110 -1.1024 -0.7493  0.2176
 8980TIP3   OH248430   2.216   6.110  14.879 -0.1198 -0.2843 -0.1374
 8980TIP3    H148431   2.288   6.068  14.832 -0.2314  1.1515 -1.6530
 8980TIP3    H248432   2.254   6.137  14.963  0.7080 -0.8276 -0.3396
 8981TIP3   OH248433   2.889   4.599   5.665 -0.4764 -0.2645 -0.2129
 8981TIP3    H148434   2.901   4.675   5.722 -0.7274 -0.2344 -0.2011
 8981TIP3    H248435   2.966   4.601   5.607 -0.2529 -0.2612  0.0829
 8982TIP3   OH248436   0.734   6.625   3.823  0.3758 -0.2932  0.0678
 8982TIP3    H148437   0.823   6.608   3.857  0.8060  1.7858  0.0266
 8982TIP3    H248438   0.737   6.716   3.793 -1.5084 -0.5172 -0.8268
 8983TIP3   OH248439   5.148   5.812  13.050 -0.1639 -0.2028 -0.4287
 8983TIP3    H148440   5.232   5.844  13.017  0.1750  0.4938  1.0745
 8983TIP3    H248441   5.171   5.748  13.117 -0.8481 -1.7411 -1.6382
 8984TIP3   OH248442   1.152   4.109  12.697 -0.4350  0.2008 -0.1249
 8984TIP3    H148443   1.219   4.101  12.629 -0.3018 -1.5672  0.1906
 8984TIP3    H248444   1.181   4.051  12.767 -0.6308  1.9363  1.4142
 8985TIP3   OH248445   1.989   3.677  12.989  0.0492  0.6068  0.6397
 8985TIP3    H148446   2.010   3.757  13.038  0.6197 -0.0316  1.4562
 8985TIP3    H248447   2.039   3.609  13.033  0.9537  0.0869 -1.1546
 8986TIP3   OH248448   4.175   4.088   1.298  0.0158 -0.7413 -0.0603
 8986TIP3    H148449   4.223   4.070   1.217 -1.9468  0.0977 -1.4693
 8986TIP3    H248450   4.101   4.027   1.296 -0.6150 -0.0145  0.5675
 8987TIP3   OH248451   2.425   1.128  13.324 -0.1345  0.5954 -0.2842
 8987TIP3    H148452   2.481   1.114  13.400  0.5642  1.7104 -0.5777
 8987TIP3    H248453   2.410   1.223  13.322  0.7037  0.7269 -2.1021
 8988TIP3   OH248454   5.813   5.753  16.637  0.5163  0.2647  0.2097
 8988TIP3    H148455   5.770   5.667  16.633 -1.9715  1.4272  0.6346
 8988TIP3    H248456   5.897   5.737  16.679  0.2805 -2.0341 -0.1432
 8989TIP3   OH248457   3.295   5.531   5.087 -0.0630 -0.4099  0.3039
 8989TIP3    H148458   3.304   5.607   5.144 -3.1243  1.9695 -2.1761
 8989TIP3    H248459   3.361   5.544   5.019 -1.2142  0.5704 -0.6442
 8990TIP3   OH248460   1.094   2.910  11.380  0.4122  0.5493 -0.2754
 8990TIP3    H148461   1.088   2.987  11.436 -0.3664 -0.2641  0.7714
 8990TIP3    H248462   1.100   2.945  11.291  0.5926  1.8207  0.2342
 8991TIP3   OH248463   0.027   0.666   1.885  0.2173  0.4004 -0.2209
 8991TIP3    H148464   0.025   0.648   1.979  0.2761 -0.5599 -0.4037
 8991TIP3    H248465  -0.061   0.646   1.855 -0.7043  3.5742  0.1375
 8992TIP3   OH248466   0.928   0.306   6.060 -0.4988  0.4776  0.1886
 8992TIP3    H148467   0.872   0.359   6.117 -1.1309 -1.6513  1.6226
 8992TIP3    H248468   1.017   0.329   6.085 -0.7703  0.0180  1.6328
 8993TIP3   OH248469   0.307   0.465   1.531  0.5409  0.3206 -0.1978
 8993TIP3    H148470   0.363   0.512   1.470  0.2442 -1.6212 -2.0400
 8993TIP3    H248471   0.359   0.390   1.559 -0.7415 -0.9932 -1.2136
 8994TIP3   OH248472   0.770   4.477   1.351 -0.1575  0.2309 -0.2901
 8994TIP3    H148473   0.824   4.481   1.272  0.8403 -1.5887  0.2755
 8994TIP3    H248474   0.819   4.527   1.416 -0.5521  0.9905 -0.5756
 8995TIP3   OH248475   0.728   0.956   4.641  0.3973  0.2093  0.2167
 8995TIP3    H148476   0.716   0.895   4.714 -1.5587 -0.3413 -0.5325
 8995TIP3    H248477   0.713   1.043   4.680 -0.6825 -0.0849  0.4795
 8996TIP3   OH248478   6.490   5.965   2.921  0.1703 -0.1208 -0.5336
 8996TIP3    H148479   6.521   6.013   2.998  0.4637  0.3864 -0.9636
 8996TIP3    H248480   6.448   6.032   2.866 -0.8410 -0.6382 -0.3960
 8997TIP3   OH248481   3.929   6.297   1.026 -0.1981  0.3436  0.0634
 8997TIP3    H148482   3.924   6.241   0.948  1.2598  1.0655 -0.5592
 8997TIP3    H248483   3.841   6.292   1.065 -0.6952 -0.6701 -1.1669
 8998TIP3   OH248484   5.971   3.561  15.926 -0.1271 -0.3468 -0.5643
 8998TIP3    H148485   5.944   3.498  15.860 -2.1817  1.3818 -1.4684
 8998TIP3    H248486   6.063   3.580  15.906 -0.0595 -1.5901 -1.4617
 8999TIP3   OH248487   4.833   6.505  14.384 -0.1980 -0.3300 -0.5763
 8999TIP3    H148488   4.866   6.415  14.387  1.6200  0.3005 -0.6242
 8999TIP3    H248489   4.790   6.518  14.469  2.8955 -0.0707  1.0579
 9000TIP3   OH248490   6.480   3.802   5.693 -0.2244  0.4432  0.2953
 9000TIP3    H148491   6.451   3.887   5.728 -0.9217 -0.1573  1.1891
 9000TIP3    H248492   6.498   3.749   5.771 -2.7278 -1.2362 -0.2398
 9001TIP3   OH248493   0.354   4.240   3.072 -0.0429  0.0609  0.5445
 9001TIP3    H148494   0.369   4.232   3.166  0.0006 -1.6210  0.4190
 9001TIP3    H248495   0.305   4.161   3.049  1.5177 -0.4531 -1.1489
 9002TIP3   OH248496   6.372   6.665   0.359 -0.8954 -0.7230 -1.0144
 9002TIP3    H148497   6.347   6.654   0.267 -0.7246 -1.9152 -0.9265
 9002TIP3    H248498   6.465   6.642   0.362 -0.7146  0.0490 -0.6763
 9003TIP3   OH248499   1.641   0.532  14.495 -0.5280 -0.2165  0.3734
 9003TIP3    H148500   1.566   0.549  14.438 -0.3313  0.2846  0.2646
 9003TIP3    H248501   1.603   0.523  14.583 -0.7164  0.0155  0.3164
 9004TIP3   OH248502   4.424   5.211   6.276  0.1785  0.4959  0.6409
 9004TIP3    H148503   4.517   5.195   6.291 -0.4478 -2.6335  1.6102
 9004TIP3    H248504   4.416   5.221   6.181  1.5891  1.5704  0.6237
 9005TIP3   OH248505   2.674   1.729   6.432  0.0806 -0.2776 -0.8053
 9005TIP3    H148506   2.614   1.721   6.358 -0.1495 -0.6236 -0.5836
 9005TIP3    H248507   2.620   1.708   6.508 -0.3732  2.6595 -0.2578
 9006TIP3   OH248508   0.436   5.879  11.005 -0.1534 -0.2725  0.0388
 9006TIP3    H148509   0.344   5.904  11.003  0.1398  0.9022  0.7349
 9006TIP3    H248510   0.446   5.818  10.931 -1.9244 -2.0243  1.2024
 9007TIP3   OH248511   5.825   2.277  17.016 -0.8238 -0.7987 -0.1646
 9007TIP3    H148512   5.881   2.208  16.979  0.7607  0.0493  0.5775
 9007TIP3    H248513   5.746   2.274  16.963 -0.0553 -2.0065 -1.2948
 9008TIP3   OH248514   5.426   0.888   4.155 -0.4350  0.5965 -0.6943
 9008TIP3    H148515   5.441   0.839   4.236 -0.9518 -0.3335 -1.1610
 9008TIP3    H248516   5.477   0.968   4.166  0.1922  0.0817  0.1865
 9009TIP3   OH248517   6.164   2.873   1.908 -0.3587  0.7013  0.2106
 9009TIP3    H148518   6.074   2.841   1.897 -0.4387  0.4766  1.3926
 9009TIP3    H248519   6.218   2.794   1.905 -0.1180  0.8997 -1.1672
 9010TIP3   OH248520   6.556   2.137   0.208  0.6208 -0.1135  0.0849
 9010TIP3    H148521   6.535   2.092   0.125 -0.1985 -0.3563  0.4172
 9010TIP3    H248522   6.541   2.229   0.189  1.6521 -0.0381 -0.4022
 9011TIP3   OH248523   0.930   5.274  17.135  0.1881 -0.4096 -0.2611
 9011TIP3    H148524   1.020   5.242  17.143 -0.0908 -0.5139  3.5781
 9011TIP3    H248525   0.877   5.195  17.132  0.0739 -0.3611  0.3217
 9012TIP3   OH248526   5.599   6.556   1.765 -0.1715  0.1570 -0.0419
 9012TIP3    H148527   5.686   6.592   1.776 -0.5053  1.4863 -1.6936
 9012TIP3    H248528   5.612   6.475   1.715  0.1438  0.1470  0.0563
 9013TIP3   OH248529   4.586   4.939  16.847 -0.0770 -0.4101 -0.0485
 9013TIP3    H148530   4.575   4.912  16.938  0.5539 -0.5515 -0.0080
 9013TIP3    H248531   4.505   4.984  16.825 -0.4783 -0.9065  0.3956
 9014TIP3   OH248532   2.533   5.182  14.642  0.1507 -0.1523 -0.5270
 9014TIP3    H148533   2.570   5.255  14.692 -0.4656  0.1685 -0.5358
 9014TIP3    H248534   2.573   5.104  14.681  0.2270  0.1414 -0.0160
 9015TIP3   OH248535   2.798   6.740  11.255 -0.3024  0.5800 -0.2596
 9015TIP3    H148536   2.793   6.792  11.336  0.7403 -0.8919  0.7724
 9015TIP3    H248537   2.800   6.805  11.185  0.4684  1.9275  0.9790
 9016TIP3   OH248538   4.562   4.477  15.128 -0.1451 -0.3231 -0.1713
 9016TIP3    H148539   4.602   4.547  15.077  3.2012 -0.2531  2.3353
 9016TIP3    H248540   4.472   4.471  15.096  1.1630  1.2158 -4.3832
 9017TIP3   OH248541   6.511   2.790  12.307 -0.3047  0.3624  0.2513
 9017TIP3    H148542   6.605   2.772  12.312 -0.2772  0.0506 -1.1750
 9017TIP3    H248543   6.470   2.706  12.329 -0.2742  0.7425  1.8231
 9018TIP3   OH248544   2.928   4.186  12.508 -0.3413 -0.2635  0.1600
 9018TIP3    H148545   2.833   4.175  12.499 -0.4718 -0.6061  1.7502
 9018TIP3    H248546   2.938   4.258  12.571  0.4590  0.0459 -0.3123
 9019TIP3   OH248547   6.070   3.724  13.418 -0.9158  0.3254  0.0102
 9019TIP3    H148548   6.049   3.729  13.512  0.0272  0.6295  0.2052
 9019TIP3    H248549   5.987   3.745  13.375 -1.1921  0.8838  0.7787
 9020TIP3   OH248550   0.942   2.517  16.963  0.1474  0.4786 -0.1587
 9020TIP3    H148551   0.914   2.459  16.893  1.2288  2.4143 -2.2468
 9020TIP3    H248552   0.998   2.581  16.920  0.1758  2.1884  2.3369
 9021TIP3   OH248553   3.701   6.427   3.118  0.0265 -0.2064  0.0464
 9021TIP3    H148554   3.780   6.480   3.129 -1.1110  1.2118  1.6341
 9021TIP3    H248555   3.644   6.455   3.190 -1.5522 -1.8686 -0.5455
 9022TIP3   OH248556   3.725   5.805   3.869 -0.1944 -0.7500 -0.1232
 9022TIP3    H148557   3.653   5.809   3.931 -0.0192 -0.8077  0.0871
 9022TIP3    H248558   3.773   5.725   3.892  0.5234 -0.1806  0.4041
 9023TIP3   OH248559   6.733   0.512  15.711 -0.2578  0.3661 -0.2943
 9023TIP3    H148560   6.698   0.587  15.759 -2.3471  0.5958 -2.1005
 9023TIP3    H248561   6.733   0.540  15.619  0.1110 -1.3918 -0.8497
 9024TIP3   OH248562   1.951   0.532  17.229 -0.5343 -0.2640 -0.0194
 9024TIP3    H148563   1.973   0.520  17.322 -1.0157 -3.4611 -0.2556
 9024TIP3    H248564   1.967   0.625  17.212  0.8326  0.0923  2.9285
 9025TIP3   OH248565   6.227   4.387  14.555 -0.3913  0.0144  0.3771
 9025TIP3    H148566   6.316   4.367  14.525 -0.1450 -0.9545  1.7281
 9025TIP3    H248567   6.177   4.397  14.474  0.5135 -1.4390 -0.3990
 9026TIP3   OH248568   5.485   3.358   2.426 -0.0680 -0.2272  0.3375
 9026TIP3    H148569   5.531   3.280   2.394  1.7243  0.5860  0.8935
 9026TIP3    H248570   5.482   3.417   2.351  0.7429  0.1492  0.6027
 9027TIP3   OH248571   6.215   5.852   3.096 -0.8416  0.5572 -0.2464
 9027TIP3    H148572   6.196   5.946   3.098 -0.7819  0.5411  2.1288
 9027TIP3    H248573   6.295   5.842   3.148 -1.1295 -0.8741 -0.0500
 9028TIP3   OH248574   1.910   4.193  11.679 -0.0519 -0.5858 -0.2191
 9028TIP3    H148575   1.911   4.277  11.634 -0.1406  0.4895  1.7316
 9028TIP3    H248576   2.002   4.165  11.679  0.0301 -0.3172 -0.5516
 9029TIP3   OH248577   4.857   2.057  10.816 -0.2314 -0.3742  0.4029
 9029TIP3    H148578   4.908   2.127  10.858  2.0381 -1.5314 -0.3615
 9029TIP3    H248579   4.858   2.080  10.723  2.3279 -2.4858 -0.1426
 9030TIP3   OH248580   1.562   4.153   6.659 -0.0226 -0.0463 -0.1190
 9030TIP3    H148581   1.648   4.117   6.638  0.1484  0.4719 -0.3098
 9030TIP3    H248582   1.576   4.247   6.669 -0.5312  0.0172  0.0318
 9031TIP3   OH248583   2.513   2.848   2.773  0.4444  0.4569 -0.2502
 9031TIP3    H148584   2.523   2.840   2.868 -0.3188  0.3643 -0.1742
 9031TIP3    H248585   2.597   2.883   2.743  0.6600  0.5638  0.4676
 9032TIP3   OH248586   6.630   4.500  11.715 -0.4300 -0.1764  0.6728
 9032TIP3    H148587   6.587   4.586  11.713  1.8007  1.0140  1.9588
 9032TIP3    H248588   6.621   4.468  11.625  0.5813  2.3897 -0.4000
 9033TIP3   OH248589   1.414   3.802   4.321 -0.6746 -0.3796 -0.0298
 9033TIP3    H148590   1.393   3.794   4.228 -1.4150 -0.1501  0.1089
 9033TIP3    H248591   1.436   3.895   4.332  1.5945 -0.8420 -0.3953
 9034TIP3   OH248592   0.963   3.710   1.528  0.7673 -0.2686  0.4820
 9034TIP3    H148593   0.953   3.799   1.493 -0.9445 -0.2428  0.9781
 9034TIP3    H248594   1.020   3.721   1.603 -1.3965  0.8415  2.0275
 9035TIP3   OH248595   4.452   3.028   4.010 -0.1394  0.3009 -0.0210
 9035TIP3    H148596   4.420   2.939   3.997 -0.1951  0.0116  2.0081
 9035TIP3    H248597   4.542   3.026   3.978  0.0268 -0.6212  0.4965
 9036TIP3   OH248598   2.085   6.371  16.068  0.4996  0.1491 -0.2114
 9036TIP3    H148599   2.101   6.456  16.110 -0.3722 -0.0073  0.4375
 9036TIP3    H248600   1.995   6.376  16.035  0.5742 -0.3878 -0.5052
 9037TIP3   OH248601   5.693   0.130  13.606 -0.0271 -0.6171 -0.1344
 9037TIP3    H148602   5.759   0.173  13.661  0.6732 -1.7458 -0.0696
 9037TIP3    H248603   5.616   0.187  13.610  0.7050  0.3366  0.3823
 9038TIP3   OH248604   6.395   1.267   4.205 -0.4266 -0.1525  0.4465
 9038TIP3    H148605   6.335   1.337   4.231 -0.9201 -0.6958  0.7890
 9038TIP3    H248606   6.426   1.230   4.288  0.3099  0.0688  0.2700
 9039TIP3   OH248607   1.894   5.788  14.486 -0.0451  0.3604 -0.4994
 9039TIP3    H148608   1.865   5.869  14.446 -1.4393  0.1263  0.0016
 9039TIP3    H248609   1.823   5.764  14.546  1.9678  0.7057  2.1322
 9040TIP3   OH248610   2.667   6.513   2.481  0.5261 -0.1321  0.1564
 9040TIP3    H148611   2.746   6.538   2.433 -0.1891 -1.0688 -1.5446
 9040TIP3    H248612   2.639   6.593   2.524  1.2102  0.7234 -0.9659
 9041TIP3   OH248613   1.297   5.246   4.571  0.1006 -0.0635  0.1734
 9041TIP3    H148614   1.263   5.259   4.483  1.3420 -1.1021 -0.4814
 9041TIP3    H248615   1.369   5.309   4.578 -0.3587  0.4186  0.6688
 9042TIP3   OH248616   4.665   4.468   5.527  0.3388  0.4642 -0.0202
 9042TIP3    H148617   4.730   4.539   5.524  0.7010  0.4161  3.8383
 9042TIP3    H248618   4.715   4.391   5.555 -0.8307 -0.3046 -0.0048
 9043TIP3   OH248619   4.192   6.293   5.561  0.1232 -0.0555  0.0192
 9043TIP3    H148620   4.256   6.363   5.574 -0.4270  0.5920 -0.6791
 9043TIP3    H248621   4.136   6.297   5.638 -0.2756  0.6806 -0.3032
 9044TIP3   OH248622   5.431   4.291  12.327  0.3107  0.7336  0.0915
 9044TIP3    H148623   5.366   4.297  12.397  1.5211  1.2855  1.1728
 9044TIP3    H248624   5.457   4.199  12.326  2.4229  1.2862  2.3165
 9045TIP3   OH248625   3.424   1.104  13.866  0.1431  0.0553  0.3485
 9045TIP3    H148626   3.500   1.046  13.860 -0.6427 -1.2405  2.2335
 9045TIP3    H248627   3.354   1.056  13.822  0.0343  0.5544 -0.0226
 9046TIP3   OH248628   5.165   2.324  15.160  0.3345  0.4917  0.2932
 9046TIP3    H148629   5.155   2.413  15.124 -0.5344  0.3531  0.1812
 9046TIP3    H248630   5.248   2.293  15.123  1.0020  1.5200  0.8972
 9047TIP3   OH248631   0.107   2.762  12.069 -0.2167  0.0930 -0.0376
 9047TIP3    H148632   0.188   2.800  12.102 -0.0947 -0.2719  0.0896
 9047TIP3    H248633   0.039   2.791  12.130  0.0814 -0.9566  0.8006
 9048TIP3   OH248634   0.328   2.799  12.697 -0.6080  0.2710  0.4153
 9048TIP3    H148635   0.269   2.744  12.749 -0.2288 -0.3514  0.1895
 9048TIP3    H248636   0.376   2.850  12.762  0.3376 -0.9829  0.7224
 9049TIP3   OH248637   3.676   3.976  11.148 -0.4708  0.3306 -0.0039
 9049TIP3    H148638   3.586   3.946  11.162 -0.1997  0.9574  3.5070
 9049TIP3    H248639   3.677   4.005  11.057 -4.3158  1.9285  0.3412
 9050TIP3   OH248640   1.965   2.121  13.572 -0.5319 -0.1470 -0.4586
 9050TIP3    H148641   1.993   2.030  13.580  0.4355  0.0644 -1.2827
 9050TIP3    H248642   1.977   2.141  13.479 -0.0090  1.0446 -0.1457
 9051TIP3   OH248643   4.718   3.087   0.921  0.0649 -0.2837  0.1309
 9051TIP3    H148644   4.739   3.015   0.980 -0.7110 -0.0038  0.7548
 9051TIP3    H248645   4.622   3.093   0.924  0.1019  0.4854 -0.2519
 9052TIP3   OH248646   3.764   4.395   3.075 -0.2432  0.7229 -0.0862
 9052TIP3    H148647   3.712   4.315   3.080 -1.4413  1.5210  0.7301
 9052TIP3    H248648   3.699   4.465   3.077  0.8783  1.7635  1.3375
 9053TIP3   OH248649   5.867   3.968   3.024  0.1108 -0.0166 -0.1439
 9053TIP3    H148650   5.882   3.933   3.112  0.0980  0.8177  0.1948
 9053TIP3    H248651   5.841   4.059   3.038 -0.4729 -0.0427 -0.9814
 9054TIP3   OH248652   4.495   4.688   0.060 -0.1567 -0.2162  0.8465
 9054TIP3    H148653   4.437   4.647   0.124 -1.4164 -0.3618 -0.3843
 9054TIP3    H248654   4.482   4.638  -0.021  0.1599  1.0353  0.0076
 9055TIP3   OH248655   0.230   2.803  12.443 -0.2953  0.2535  0.0393
 9055TIP3    H148656   0.264   2.725  12.399 -3.1432 -1.5949  0.9592
 9055TIP3    H248657   0.257   2.793  12.535  0.1516  0.8522 -0.0239
 9056TIP3   OH248658   3.500   5.950   4.838 -0.1714 -0.0146  0.9976
 9056TIP3    H148659   3.457   6.011   4.777  0.0437  0.7235  1.5724
 9056TIP3    H248660   3.439   5.943   4.911 -0.4519 -0.9409  0.6832
 9057TIP3   OH248661   2.970   5.195   4.066  0.2040  0.2980 -0.2763
 9057TIP3    H148662   3.060   5.167   4.085 -0.4469 -1.5375  0.1676
 9057TIP3    H248663   2.977   5.241   3.982  1.5239  0.0158 -0.3376
 9058TIP3   OH248664   5.686   3.597   0.342  0.0376  0.2498  0.1875
 9058TIP3    H148665   5.640   3.569   0.262  1.8240  1.1191 -1.1560
 9058TIP3    H248666   5.684   3.692   0.339 -3.0676  0.3933  3.0719
 9059TIP3   OH248667   2.020   6.750  13.603  0.6447 -0.0587  0.4998
 9059TIP3    H148668   2.017   6.841  13.634  1.2324  0.7817 -1.8285
 9059TIP3    H248669   2.086   6.708  13.658  1.5319  1.3396  0.5348
 9060TIP3   OH248670   6.180   5.301   4.629  0.1676 -0.0269  0.4438
 9060TIP3    H148671   6.222   5.281   4.713 -1.5849 -0.2830  1.2722
 9060TIP3    H248672   6.131   5.382   4.644  1.5456  1.0917 -0.9442
 9061TIP3   OH248673   2.099   6.426   4.004 -0.0360  0.2151  0.4854
 9061TIP3    H148674   2.191   6.445   4.020  0.3005 -0.2394 -0.8287
 9061TIP3    H248675   2.095   6.331   3.995 -0.3559  0.3709 -1.1051
 9062TIP3   OH248676   1.827   5.500  16.931  0.1526  0.0825  0.2817
 9062TIP3    H148677   1.835   5.587  16.892 -1.8920  0.0959 -0.1716
 9062TIP3    H248678   1.840   5.515  17.024 -0.4050  0.9331  0.2376
 9063TIP3   OH248679   6.308   1.080   3.335  0.1415  0.2241 -0.1692
 9063TIP3    H148680   6.395   1.084   3.375  0.3363 -0.8165 -0.4786
 9063TIP3    H248681   6.249   1.115   3.402  0.7702  0.7587  0.1108
 9064TIP3   OH248682   2.961   6.379  13.270 -0.2808 -0.4640 -0.0290
 9064TIP3    H148683   2.936   6.428  13.349 -0.1804  0.1931 -0.3980
 9064TIP3    H248684   3.010   6.304  13.303 -0.5436 -0.3836  0.5559
 9065TIP3   OH248685   3.470   3.380   5.309  0.5760  0.3468 -0.1098
 9065TIP3    H148686   3.464   3.404   5.216  2.3519  1.3666  0.0099
 9065TIP3    H248687   3.532   3.306   5.310 -0.2561 -0.3527  0.1588
 9066TIP3   OH248688   1.286   3.744  16.187  0.2997 -0.1648 -0.1891
 9066TIP3    H148689   1.361   3.794  16.157 -1.3755  0.9464 -2.7297
 9066TIP3    H248690   1.265   3.685  16.115 -1.8219  0.2132  0.0664
 9067TIP3   OH248691   4.635   4.686  11.656  0.7002 -0.4389  0.6384
 9067TIP3    H148692   4.617   4.754  11.591 -0.6487 -1.8451 -0.4954
 9067TIP3    H248693   4.562   4.691  11.717  0.1368 -1.4400  0.0572
 9068TIP3   OH248694   3.604   3.805   2.998 -0.4214 -0.0581  0.3129
 9068TIP3    H148695   3.677   3.742   2.997  0.6926  1.1718  1.8155
 9068TIP3    H248696   3.613   3.853   2.916  0.0616 -0.3848  0.1680
 9069TIP3   OH248697   3.768   4.709  16.878 -0.0451 -0.0034  0.1984
 9069TIP3    H148698   3.854   4.689  16.915  1.0742  0.4071 -2.0852
 9069TIP3    H248699   3.763   4.805  16.880  0.0421  0.0261 -0.7096
 9070TIP3   OH248700   2.240   2.753   5.582  0.0687  0.1794  0.0059
 9070TIP3    H148701   2.153   2.744   5.621 -0.2150 -1.9252 -1.0574
 9070TIP3    H248702   2.295   2.786   5.653 -1.2425  0.0093  1.1273
 9071TIP3   OH248703   0.590   3.664  13.159  0.4113  0.6347  0.0958
 9071TIP3    H148704   0.610   3.720  13.235  2.3690 -1.4527  1.2032
 9071TIP3    H248705   0.599   3.575  13.193 -0.0715 -0.3381 -2.2805
 9072TIP3   OH248706   2.790   4.976  16.835 -0.3823 -0.3011 -0.2726
 9072TIP3    H148707   2.827   4.889  16.815  0.6383 -0.0183  0.3869
 9072TIP3    H248708   2.815   4.993  16.926 -1.3525  0.2983 -0.1060
 9073TIP3   OH248709   3.646   0.753   1.561 -0.2444 -0.2925 -0.1695
 9073TIP3    H148710   3.630   0.829   1.616 -2.4643 -1.7742  1.2663
 9073TIP3    H248711   3.712   0.703   1.608  0.4889  0.2157 -0.6366
 9074TIP3   OH248712   5.458   0.969  12.510 -0.1560 -0.2728 -0.5558
 9074TIP3    H148713   5.368   0.986  12.481  0.1011 -2.9809 -3.2544
 9074TIP3    H248714   5.510   1.038  12.468 -0.6272 -0.4588 -1.4678
 9075TIP3   OH248715   6.780   2.115   0.334 -0.0961  0.3225 -0.5313
 9075TIP3    H148716   6.692   2.120   0.298 -0.3991  1.0816  0.3051
 9075TIP3    H248717   6.834   2.165   0.273 -0.8883  2.9895  0.9254
 9076TIP3   OH248718   4.460   0.259   0.347  0.0880  0.5916  0.4630
 9076TIP3    H148719   4.461   0.203   0.425  1.5300 -1.2963 -0.8763
 9076TIP3    H248720   4.548   0.252   0.310  0.0781  3.1940 -0.1561
 9077TIP3   OH248721   5.872   2.035   3.579 -0.1909 -0.3186  0.7342
 9077TIP3    H148722   5.862   1.964   3.642  1.5238 -0.9145  0.3821
 9077TIP3    H248723   5.912   2.106   3.629 -1.0895  0.0841  0.8818
 9078TIP3   OH248724   1.120   1.865   3.175 -0.0662 -0.1213 -0.5844
 9078TIP3    H148725   1.202   1.891   3.132  0.8915 -1.2417  0.5227
 9078TIP3    H248726   1.147   1.828   3.259 -1.9846  2.9057  1.4690
 9079TIP3   OH248727   1.651   5.499  14.891 -0.3994  0.6492  0.3519
 9079TIP3    H148728   1.644   5.592  14.915  0.6618  0.3265  1.9492
 9079TIP3    H248729   1.605   5.493  14.807 -1.1248  2.4787  0.5894
 9080TIP3   OH248730   2.238   1.100  12.662 -0.1652  0.0022  0.0021
 9080TIP3    H148731   2.179   1.173  12.681  1.5129  1.8060 -1.5628
 9080TIP3    H248732   2.262   1.111  12.570  3.0797 -0.3189  0.7384
 9081TIP3   OH248733   4.880   0.795  13.311  0.1481  0.0502 -0.8314
 9081TIP3    H148734   4.874   0.865  13.247  0.0577  1.4602  0.6882
 9081TIP3    H248735   4.805   0.809  13.370  1.4808  0.1403  0.8866
 9082TIP3   OH248736   1.237   3.136   3.434 -0.1232 -0.2167  0.5659
 9082TIP3    H148737   1.173   3.207   3.441  0.1106  0.1552 -0.8045
 9082TIP3    H248738   1.185   3.057   3.445 -0.8290  0.0837 -0.4417
 9083TIP3   OH248739   5.473   5.307  13.519 -0.3470  0.5770 -0.1822
 9083TIP3    H148740   5.391   5.348  13.494 -0.2594  0.1982 -1.1150
 9083TIP3    H248741   5.507   5.361  13.590 -0.1389  2.2103 -1.5069
 9084TIP3   OH248742   4.102   6.375   5.141 -0.2299 -0.2447  0.1720
 9084TIP3    H148743   4.113   6.458   5.188 -1.0758  0.8817 -1.5594
 9084TIP3    H248744   4.189   6.354   5.108 -0.4303  1.2233 -1.3911
 9085TIP3   OH248745   4.349   1.197   0.141 -0.3722  0.0909 -0.4783
 9085TIP3    H148746   4.390   1.242   0.067 -0.8436  0.2531 -0.6388
 9085TIP3    H248747   4.423   1.161   0.190 -0.0414  0.2413 -0.8601
 9086TIP3   OH248748   6.442   1.174  11.222 -0.4516 -0.0268 -0.0371
 9086TIP3    H148749   6.517   1.163  11.281 -0.0074 -0.9631 -0.7650
 9086TIP3    H248750   6.449   1.265  11.192 -0.2523  0.2283  0.7646
 9087TIP3   OH248751   1.926   5.817  11.985  0.2852  0.0111 -0.4829
 9087TIP3    H148752   1.846   5.767  11.968  1.6359 -2.1067 -0.7734
 9087TIP3    H248753   1.974   5.815  11.903  1.8527 -1.0007  0.4288
 9088TIP3   OH248754   5.164   4.349   0.546  0.3558  0.7464 -0.1744
 9088TIP3    H148755   5.174   4.382   0.456 -1.2984  1.3377 -0.1468
 9088TIP3    H248756   5.117   4.418   0.592 -3.3001 -1.6762 -0.1484
 9089TIP3   OH248757   1.969   3.839  16.609  0.4016 -0.3098  0.0205
 9089TIP3    H148758   2.024   3.876  16.678 -0.1014 -0.6533  0.6143
 9089TIP3    H248759   1.994   3.747  16.605 -0.3381 -0.5418  0.5163
 9090TIP3   OH248760   0.884   1.841   2.965 -0.5670 -0.6366 -0.4808
 9090TIP3    H148761   0.945   1.860   3.036 -0.8299  1.4794 -0.7838
 9090TIP3    H248762   0.797   1.852   3.004 -0.7091  1.2561 -1.3013
 9091TIP3   OH248763   0.006   3.106  12.718 -0.2463  0.0500 -0.0286
 9091TIP3    H148764   0.047   3.047  12.781  0.0839 -1.5841 -1.7170
 9091TIP3    H248765  -0.025   3.048  12.648 -0.6609  1.8067 -1.3355
 9092TIP3   OH248766   5.267   6.390  11.509  0.6974 -0.1942 -0.2993
 9092TIP3    H148767   5.201   6.430  11.452  0.6752 -0.3451 -0.3796
 9092TIP3    H248768   5.305   6.320  11.455  1.6507  0.5681 -0.6209
 9093TIP3   OH248769   1.663   4.582   0.125  0.0966  0.1941  0.4266
 9093TIP3    H148770   1.586   4.631   0.153  0.6608  1.1108  0.4009
 9093TIP3    H248771   1.650   4.494   0.159 -1.3592  0.1193 -0.2740
 9094TIP3   OH248772   2.544   2.229   0.287 -0.0273  0.1262 -0.6127
 9094TIP3    H148773   2.633   2.212   0.318 -0.4701  0.2488  0.7629
 9094TIP3    H248774   2.491   2.163   0.332 -0.7453  0.5976 -0.7696
 9095TIP3   OH248775   4.554   4.362   5.848  0.1141  0.5272  0.7044
 9095TIP3    H148776   4.628   4.308   5.877  1.5870  1.8620 -0.4919
 9095TIP3    H248777   4.525   4.321   5.767  0.9158  1.2139  0.0582
 9096TIP3   OH248778   3.403   0.157  12.124 -0.1665 -0.3488 -0.0084
 9096TIP3    H148779   3.360   0.096  12.065  0.4097 -2.2123  1.4377
 9096TIP3    H248780   3.482   0.111  12.152 -0.1743  0.6942  1.8026
 9097TIP3   OH248781   2.355   1.736  11.918 -0.0664  0.2730  0.8390
 9097TIP3    H148782   2.361   1.665  11.854  0.9032  0.1908  1.0196
 9097TIP3    H248783   2.313   1.807  11.870  0.3344  0.0942  0.2147
 9098TIP3   OH248784   6.554   4.837  14.003 -0.2306 -0.2476 -0.0716
 9098TIP3    H148785   6.525   4.906  13.943 -1.1761  0.1142  0.7888
 9098TIP3    H248786   6.568   4.882  14.086  2.0146 -0.5756 -0.2455
 9099TIP3   OH248787   4.962   4.501  15.589 -0.1124  0.1134 -0.5228
 9099TIP3    H148788   4.899   4.481  15.659 -0.5968  2.5635 -0.2282
 9099TIP3    H248789   4.914   4.560  15.530  0.9452 -0.3729 -1.8972
 9100TIP3   OH248790   2.026   1.839  16.855 -0.3332  0.2164 -0.5356
 9100TIP3    H148791   1.937   1.869  16.839 -0.6956  0.1284  1.1601
 9100TIP3    H248792   2.073   1.918  16.882  0.2651  0.3790 -2.0265
 9101TIP3   OH248793   3.817   3.895  14.670  0.4247 -0.1245 -0.1310
 9101TIP3    H148794   3.836   3.978  14.713  0.6656  0.0104 -0.5015
 9101TIP3    H248795   3.881   3.834  14.708 -0.8325 -0.5515  1.3975
 9102TIP3   OH248796   3.397   5.287   4.319  0.0336  0.8570 -0.2365
 9102TIP3    H148797   3.323   5.343   4.296 -1.1892  0.0602  1.6366
 9102TIP3    H248798   3.380   5.204   4.274  0.3202  1.0131 -0.6336
 9103TIP3   OH248799   3.950   6.371  15.112  0.2580  0.0092 -0.5672
 9103TIP3    H148800   4.004   6.310  15.062  1.3751  0.3317  0.2418
 9103TIP3    H248801   3.893   6.315  15.164  0.4743 -0.3329 -0.6939
 9104TIP3   OH248802   0.995   4.649   0.961  0.4285 -0.2949 -0.3995
 9104TIP3    H148803   0.953   4.568   0.932  1.6289 -0.9989 -0.1748
 9104TIP3    H248804   0.922   4.711   0.970 -0.8251 -2.0356  1.8333
 9105TIP3   OH248805   5.234   4.108  13.614  0.1044  0.2072 -0.1178
 9105TIP3    H148806   5.275   4.194  13.624 -0.7587  0.8384 -1.7987
 9105TIP3    H248807   5.199   4.108  13.525  1.3151 -2.4469 -0.6446
 9106TIP3   OH248808   3.050   3.993  12.655  0.3726  0.4917  0.1618
 9106TIP3    H148809   3.025   4.072  12.608 -2.5902  0.4386  1.5169
 9106TIP3    H248810   3.106   4.023  12.726  0.5146  1.1811 -0.2370
 9107TIP3   OH248811   4.398   4.526   5.426 -0.0407  0.1579 -0.1589
 9107TIP3    H148812   4.411   4.618   5.406 -1.9913  0.0877 -1.9294
 9107TIP3    H248813   4.451   4.480   5.361 -0.7087  0.0130 -0.6045
 9108TIP3   OH248814   3.001   6.075   2.511  0.4978 -0.0744  0.5247
 9108TIP3    H148815   2.920   6.093   2.462 -0.1532  0.7347  1.8760
 9108TIP3    H248816   3.006   5.980   2.513  1.1652 -0.1316 -2.1340
 9109TIP3   OH248817   2.513   1.224  15.057 -0.0669  0.2134 -0.3344
 9109TIP3    H148818   2.455   1.281  15.007 -1.6142 -1.7281 -0.8606
 9109TIP3    H248819   2.597   1.229  15.012 -1.2962 -1.1101 -2.9112
 9110TIP3   OH248820   4.728   5.753  12.082  0.0608 -0.3030 -0.8094
 9110TIP3    H148821   4.648   5.721  12.039  0.0022  0.3218 -1.1776
 9110TIP3    H248822   4.745   5.689  12.151 -2.3592  1.0816  1.1127
 9111TIP3   OH248823   1.204   1.233  11.263 -0.3207  0.1644 -0.0724
 9111TIP3    H148824   1.115   1.204  11.244 -0.4865 -0.9550  2.2551
 9111TIP3    H248825   1.259   1.173  11.213 -0.7872 -1.8710  1.7508
 9112TIP3   OH248826   3.275   3.493  16.058 -0.0514 -0.5590 -0.1330
 9112TIP3    H148827   3.250   3.571  16.108  1.7419  2.7281 -4.0413
 9112TIP3    H248828   3.196   3.473  16.006 -0.0636 -0.4634 -0.1537
 9113TIP3   OH248829   4.878   0.504  15.027  0.2050  0.4744 -0.7524
 9113TIP3    H148830   4.866   0.415  15.058  1.7731  0.1170 -1.1357
 9113TIP3    H248831   4.943   0.542  15.087 -0.2093  1.2482 -0.7869
 9114TIP3   OH248832   4.603   5.392   0.827 -0.1092 -0.2820  0.0845
 9114TIP3    H148833   4.578   5.301   0.846 -2.4475  0.3004 -0.0797
 9114TIP3    H248834   4.564   5.442   0.899 -2.0099  0.9987 -1.8021
 9115TIP3   OH248835   1.131   3.056   2.985  0.5744 -0.4674 -0.1386
 9115TIP3    H148836   1.156   3.028   2.897 -1.2700 -1.1808 -0.4609
 9115TIP3    H248837   1.119   2.975   3.034 -2.5186 -0.2193 -0.4207
 9116TIP3   OH248838   6.158   5.637   5.755  0.2133  0.4660  0.0880
 9116TIP3    H148839   6.131   5.545   5.752 -1.0179  0.8023  0.3996
 9116TIP3    H248840   6.231   5.638   5.817  0.5745 -0.3836 -0.3167
 9117TIP3   OH248841   6.316   1.005   2.793 -0.2175  0.2301 -0.7513
 9117TIP3    H148842   6.240   1.048   2.831  0.4629  3.1318 -2.4614
 9117TIP3    H248843   6.280   0.935   2.739 -1.4158 -0.9628  1.5624
 9118TIP3   OH248844   2.588   3.421  11.182  0.1457  0.4614  0.2954
 9118TIP3    H148845   2.623   3.380  11.260  0.4281  1.4354  0.6874
 9118TIP3    H248846   2.498   3.443  11.205 -0.5347 -1.4114 -0.4761
 9119TIP3   OH248847   3.474   4.792  11.647 -0.2631 -0.3830 -0.0734
 9119TIP3    H148848   3.566   4.807  11.624 -0.2511 -1.0198 -0.4492
 9119TIP3    H248849   3.475   4.774  11.741 -0.3250  2.3297  0.4794
 9120TIP3   OH248850   0.332   0.374  14.778 -0.1154  0.2274  0.0845
 9120TIP3    H148851   0.319   0.339  14.866 -0.2565 -0.5858 -0.2526
 9120TIP3    H248852   0.389   0.450  14.791  1.3397 -0.9534  0.6715
 9121TIP3   OH248853   5.006   5.924  16.303 -0.0865  0.3775  0.6562
 9121TIP3    H148854   4.963   5.984  16.364  0.2249  1.0323  0.2294
 9121TIP3    H248855   4.938   5.902  16.239 -0.8600 -1.4640  2.0355
 9122TIP3   OH248856   5.253   4.120  17.131  0.9920  0.3475  0.4610
 9122TIP3    H148857   5.278   4.197  17.080  1.7271  1.6549  2.7425
 9122TIP3    H248858   5.335   4.088  17.168  0.4065 -0.2234  1.2857
 9123TIP3   OH248859   3.555   4.821  13.216  0.8250  0.0116  0.0100
 9123TIP3    H148860   3.505   4.749  13.255  2.0137 -0.7610  0.1011
 9123TIP3    H248861   3.602   4.860  13.289  1.6507 -0.2955 -0.3608
 9124TIP3   OH248862   5.280   1.248  12.330  0.4185  0.4354 -0.6864
 9124TIP3    H148863   5.249   1.235  12.241  0.6464  0.8650 -0.8316
 9124TIP3    H248864   5.251   1.170  12.377  0.5733  0.0640 -1.2077
 9125TIP3   OH248865   0.441   6.155  12.912  0.1358 -0.4577 -0.0389
 9125TIP3    H148866   0.500   6.153  12.837 -0.5686  0.9521 -0.6514
 9125TIP3    H248867   0.362   6.111  12.881 -0.3995  0.6994 -0.3639
 9126TIP3   OH248868   6.077   0.195   3.703  0.6942  0.1687 -0.0225
 9126TIP3    H148869   6.165   0.158   3.697 -0.0960 -1.7232 -0.2853
 9126TIP3    H248870   6.022   0.134   3.653 -0.9566  0.6801  1.1396
 9127TIP3   OH248871   5.532   3.193  17.018 -0.1295  0.8036  0.1880
 9127TIP3    H148872   5.509   3.192  16.925 -1.0322 -0.6323  0.4227
 9127TIP3    H248873   5.579   3.111  17.032 -3.1248 -0.7290  1.7557
 9128TIP3   OH248874   1.523   2.709   5.815 -0.1938 -0.3877 -0.1623
 9128TIP3    H148875   1.608   2.666   5.804  0.2256  0.2773  0.4223
 9128TIP3    H248876   1.459   2.638   5.810  0.3735 -0.8643 -0.8651
 9129TIP3   OH248877   0.282   2.916   3.137  0.2575 -0.2159 -0.1337
 9129TIP3    H148878   0.261   2.987   3.077 -1.6553 -1.4223 -0.9289
 9129TIP3    H248879   0.220   2.925   3.209  0.2173 -0.8880 -0.0764
 9130TIP3   OH248880   3.563   6.451  16.497  0.3394  0.6966 -0.1659
 9130TIP3    H148881   3.490   6.433  16.437  0.1317 -1.1665  0.6228
 9130TIP3    H248882   3.522   6.493  16.573  0.0619 -0.4982  0.3496
 9131TIP3   OH248883   6.311   3.542  12.699  0.5777  0.0708  0.5283
 9131TIP3    H148884   6.354   3.457  12.687  0.4156 -0.0900  1.0769
 9131TIP3    H248885   6.305   3.552  12.794 -0.0677  0.3642  0.4536
 9132TIP3   OH248886   5.590   1.888   2.270  0.3058  0.3964  0.3083
 9132TIP3    H148887   5.504   1.903   2.230  0.0523 -1.6008  0.0776
 9132TIP3    H248888   5.572   1.883   2.364  0.1465 -0.1138  0.2536
 9133TIP3   OH248889   6.669   3.603   2.351 -0.0565  0.1241  0.0609
 9133TIP3    H148890   6.610   3.661   2.303 -0.6941  0.9094  1.7863
 9133TIP3    H248891   6.675   3.525   2.296 -0.4982  1.1473 -1.4707
 9134TIP3   OH248892   3.237   4.320  14.828 -0.0156  0.0869 -0.0352
 9134TIP3    H148893   3.154   4.354  14.793  0.3621  0.6042 -0.4314
 9134TIP3    H248894   3.263   4.253  14.766 -0.0577  0.0321  0.0058
 9135TIP3   OH248895   6.011   3.512  13.003 -0.4689  0.7176 -0.2338
 9135TIP3    H148896   5.979   3.601  12.988  0.2022  0.7920 -1.2577
 9135TIP3    H248897   6.005   3.469  12.918  1.1781  0.4193 -0.2079
 9136TIP3   OH248898   5.389   2.955  11.979 -0.1455 -0.2261 -0.0995
 9136TIP3    H148899   5.398   2.929  11.887 -0.7869 -1.2648  0.1237
 9136TIP3    H248900   5.304   2.919  12.006  0.4002 -0.6093  1.1222
 9137TIP3   OH248901   5.854   2.575  16.448  0.3891  0.3130 -0.0680
 9137TIP3    H148902   5.840   2.593  16.355 -0.1676  0.2507  0.0010
 9137TIP3    H248903   5.786   2.512  16.471 -0.1097  1.0825  0.6192
 9138TIP3   OH248904   5.308   6.111   0.958  0.3751 -0.1407 -0.2392
 9138TIP3    H148905   5.384   6.067   0.996 -0.6476 -2.2530 -0.5562
 9138TIP3    H248906   5.277   6.170   1.026  1.9634  0.3218  0.0943
 9139TIP3   OH248907   4.019   5.136  13.402 -0.1524  0.6718  0.3214
 9139TIP3    H148908   4.031   5.045  13.374 -0.1595  0.7563  0.0383
 9139TIP3    H248909   3.941   5.133  13.458  1.1558  0.1249  2.1777
 9140TIP3   OH248910   1.585   3.873  16.573 -0.3552 -0.3381  0.5541
 9140TIP3    H148911   1.527   3.902  16.503 -1.5543 -0.4028  1.4837
 9140TIP3    H248912   1.671   3.906  16.549 -0.8272 -0.0103 -0.7322
 9141TIP3   OH248913   1.365   0.379   4.717  0.3082 -0.1575  0.0299
 9141TIP3    H148914   1.339   0.417   4.633  1.0145  0.4004  0.0634
 9141TIP3    H248915   1.340   0.287   4.711 -1.3268  0.2692 -0.0984
 9142TIP3   OH248916   1.467   5.618  11.135 -0.1629  0.1247  0.2638
 9142TIP3    H148917   1.384   5.575  11.112 -0.5658  0.7677  0.5082
 9142TIP3    H248918   1.477   5.602  11.229  1.4398 -2.4216 -0.2854
 9143TIP3   OH248919   4.962   2.159  12.714 -0.3495 -0.4303  0.5910
 9143TIP3    H148920   4.954   2.251  12.688 -1.9818 -0.4913  0.7951
 9143TIP3    H248921   5.055   2.146  12.730  0.0517  0.8640 -0.6175
 9144TIP3   OH248922   3.636   4.135   2.840 -0.5786 -0.1392 -0.4405
 9144TIP3    H148923   3.630   4.141   2.935 -0.2788  0.7966 -0.4734
 9144TIP3    H248924   3.550   4.163   2.809 -0.5620 -0.1062 -0.4567
 9145TIP3   OH248925   6.197   2.709  16.698  0.0208 -0.3939  0.9280
 9145TIP3    H148926   6.147   2.665  16.767  0.2901  1.0267  2.0408
 9145TIP3    H248927   6.251   2.773  16.744  2.2587 -1.2978 -0.3281
 9146TIP3   OH248928   0.283   0.795  13.281 -0.5400 -0.5689  0.6316
 9146TIP3    H148929   0.236   0.853  13.221  0.9734 -1.9228 -1.9476
 9146TIP3    H248930   0.224   0.722  13.296 -0.2393 -1.0759 -0.6320
 9147TIP3   OH248931   5.914   4.425   2.288 -0.2667 -0.1812 -0.0141
 9147TIP3    H148932   5.948   4.360   2.349 -0.9435 -0.7222 -0.2162
 9147TIP3    H248933   5.921   4.508   2.336  0.9121 -0.3377  0.1172
 9148TIP3   OH248934   2.123   1.909   4.998 -0.2483 -0.3092 -0.1665
 9148TIP3    H148935   2.136   1.994   5.039  1.1160 -1.4517  1.8718
 9148TIP3    H248936   2.085   1.855   5.067  2.5091 -2.3925 -0.1813
 9149TIP3   OH248937   2.644   5.624   3.977  0.6667  0.7670 -0.0839
 9149TIP3    H148938   2.664   5.706   4.023  0.3882  1.2128 -0.7414
 9149TIP3    H248939   2.561   5.595   4.016  2.0175 -0.5602  1.9408
 9150TIP3   OH248940   2.174   3.585  16.035 -0.2274 -1.0099  0.0600
 9150TIP3    H148941   2.174   3.491  16.015 -0.3611 -0.8659 -0.6294
 9150TIP3    H248942   2.140   3.590  16.125 -2.8894 -1.4070 -0.8813
 9151TIP3   OH248943   3.497   5.857  15.859  0.9071  0.0263 -0.3012
 9151TIP3    H148944   3.535   5.772  15.836  1.6812  0.4162 -0.4891
 9151TIP3    H248945   3.409   5.855  15.821  0.7874 -0.8275  0.0062
 9152TIP3   OH248946   5.234   2.928   1.898 -0.0119  0.5663  0.3334
 9152TIP3    H148947   5.184   2.967   1.827 -0.7014  0.3246  0.6830
 9152TIP3    H248948   5.213   2.834   1.894  1.6063  0.2191 -0.4811
 9153TIP3   OH248949   4.568   5.940   0.692  0.0072  0.7606 -0.4853
 9153TIP3    H148950   4.593   5.999   0.763  0.1127 -0.2288  0.2979
 9153TIP3    H248951   4.489   5.981   0.655 -1.3949  0.0704  1.6933
 9154TIP3   OH248952   5.194   5.641   0.941 -0.5921  0.3725 -0.3167
 9154TIP3    H148953   5.129   5.597   0.996 -1.5446  1.9003 -0.2029
 9154TIP3    H248954   5.143   5.701   0.886  0.9069  3.3613  1.4477
 9155TIP3   OH248955   5.503   3.154  16.087  0.8631 -0.1463  0.1912
 9155TIP3    H148956   5.494   3.150  15.992  1.3483  2.0359  0.0270
 9155TIP3    H248957   5.417   3.183  16.118  0.9091 -0.1773  0.3482
 9156TIP3   OH248958   2.423   3.811  12.109  0.8980 -0.5140 -0.4239
 9156TIP3    H148959   2.501   3.779  12.154  1.8367  0.4390 -1.3384
 9156TIP3    H248960   2.431   3.906  12.111 -0.8000 -0.3784  0.4184
 9157TIP3   OH248961   4.580   5.247  13.324 -0.0280  0.2147  0.2365
 9157TIP3    H148962   4.522   5.323  13.322 -0.2007  0.0647 -1.0812
 9157TIP3    H248963   4.534   5.183  13.380 -1.1406  0.1024 -0.7759
 9158TIP3   OH248964   0.374   5.431   5.855 -0.2704  0.4096 -0.2203
 9158TIP3    H148965   0.299   5.475   5.893  0.3215  0.4430  0.9338
 9158TIP3    H248966   0.380   5.465   5.766 -1.2375  0.8709 -0.1098
 9159TIP3   OH248967   5.568   4.154   2.883 -0.0770 -0.1534  0.3685
 9159TIP3    H148968   5.647   4.138   2.934 -0.0294 -1.2717 -0.0329
 9159TIP3    H248969   5.600   4.170   2.794 -0.2178  0.8535  0.4889
 9160TIP3   OH248970   0.120   1.624  12.119 -0.5612  0.3538  0.3511
 9160TIP3    H148971   0.068   1.580  12.186  1.2184  0.8097  2.1067
 9160TIP3    H248972   0.210   1.618  12.152  0.2734  1.1422 -1.7112
 9161TIP3   OH248973   1.996   0.200   3.900  0.0183  0.2172  0.0800
 9161TIP3    H148974   1.981   0.236   3.812  2.8019 -0.4987 -0.7410
 9161TIP3    H248975   2.015   0.108   3.886  2.6377  0.5376  1.1782
 9162TIP3   OH248976   0.231   1.675   2.767  0.4108 -0.2372 -0.0527
 9162TIP3    H148977   0.168   1.603   2.775  1.0815 -1.0107 -1.5825
 9162TIP3    H248978   0.177   1.753   2.758 -0.3212 -0.6121  0.8988
 9163TIP3   OH248979   4.843   0.627   2.326  0.1635 -0.6783 -0.0921
 9163TIP3    H148980   4.797   0.662   2.250 -0.0664  0.1752  0.4343
 9163TIP3    H248981   4.797   0.546   2.347 -1.5345  0.4919  0.8183
 9164TIP3   OH248982   5.549   5.968  16.882 -0.3899  0.4516 -0.2768
 9164TIP3    H148983   5.624   5.914  16.903 -1.9961 -1.8208 -0.2306
 9164TIP3    H248984   5.578   6.023  16.809  1.0597 -0.9066 -0.7364
 9165TIP3   OH248985   3.469   3.175   4.256 -0.1797  0.4927 -0.3658
 9165TIP3    H148986   3.377   3.149   4.248 -0.0178 -0.3115  0.3755
 9165TIP3    H248987   3.472   3.224   4.339  0.3777 -0.8830  0.4392
 9166TIP3   OH248988   1.757   4.752  10.682  0.6489  0.3950 -0.2745
 9166TIP3    H148989   1.773   4.679  10.622  1.3332 -0.2506  0.6923
 9166TIP3    H248990   1.661   4.755  10.691  0.7289 -1.9505  1.6156
 9167TIP3   OH248991   0.794   1.389   2.244 -0.3906 -0.2063  0.8005
 9167TIP3    H148992   0.875   1.339   2.258 -1.9108 -3.0016  0.0960
 9167TIP3    H248993   0.757   1.351   2.165 -1.7088  2.0029  0.3335
 9168TIP3   OH248994   6.007   1.553  14.397 -0.0125  0.0972  0.3012
 9168TIP3    H148995   5.918   1.587  14.388  0.0034  0.9704  2.8184
 9168TIP3    H248996   6.063   1.631  14.396  0.5341 -0.2873  0.5824
 9169TIP3   OH248997   4.623   0.048  11.671  0.0983 -0.1945 -0.2573
 9169TIP3    H148998   4.716   0.039  11.652  0.2635 -1.1066  0.9250
 9169TIP3    H248999   4.582  -0.021  11.618  0.2318 -0.6207  0.1869
 9170TIP3   OH249000   1.113   6.628  14.600  0.1875  0.1309  0.3196
 9170TIP3    H149001   1.067   6.712  14.588  1.4754  0.8673  0.4370
 9170TIP3    H249002   1.063   6.566  14.547 -1.1046  0.8501  0.6596
 9171TIP3   OH249003   3.856   5.502   3.951  0.3848  0.5791  0.1752
 9171TIP3    H149004   3.944   5.515   3.986  1.0573 -2.2728 -0.3573
 9171TIP3    H249005   3.862   5.532   3.860  0.8814  0.1270  0.0577
 9172TIP3   OH249006   2.320   1.004  15.197 -0.0710  0.4866 -0.0843
 9172TIP3    H149007   2.359   0.924  15.232 -2.8501  0.3008  2.9028
 9172TIP3    H249008   2.342   1.072  15.262 -0.9105  1.2998 -0.6292
 9173TIP3   OH249009   6.529   0.337   0.814  0.7071  0.0407  0.2752
 9173TIP3    H149010   6.532   0.257   0.867  0.3827 -0.8253 -0.9866
 9173TIP3    H249011   6.622   0.358   0.799  0.8197 -1.1128 -0.8404
 9174TIP3   OH249012   1.916   1.766  13.557 -0.6345  0.1940 -0.0571
 9174TIP3    H149013   2.011   1.779  13.562 -0.7548  0.7215  1.1189
 9174TIP3    H249014   1.887   1.766  13.648 -1.8717  0.8893 -0.4332
 9175TIP3   OH249015   4.822   3.892   1.215  0.3652 -0.5264 -0.3332
 9175TIP3    H149016   4.818   3.920   1.307  1.3522 -0.8002 -0.2093
 9175TIP3    H249017   4.739   3.846   1.201 -0.6507  1.1712 -0.1273
 9176TIP3   OH249018   6.610   4.874   5.346 -0.0394 -0.4536  0.3222
 9176TIP3    H149019   6.589   4.967   5.342 -1.0132 -0.6492  0.8740
 9176TIP3    H249020   6.688   4.870   5.402  2.0045  0.3368 -2.3371
 9177TIP3   OH249021   0.047   3.332   2.706 -1.0720  0.1304 -0.5376
 9177TIP3    H149022   0.066   3.402   2.770 -1.8504  0.2930 -0.4882
 9177TIP3    H249023   0.078   3.252   2.749 -0.2528  0.4302 -0.5588
 9178TIP3   OH249024   0.472   1.717   5.090 -0.2297  0.4546  0.2167
 9178TIP3    H149025   0.460   1.668   5.171  0.0958  1.2330  0.7390
 9178TIP3    H249026   0.528   1.662   5.036 -1.2050 -0.4811  0.1528
 9179TIP3   OH249027   1.180   1.549   2.579  0.0759  0.0566  0.3026
 9179TIP3    H149028   1.229   1.496   2.517  0.0301 -0.8371  1.0100
 9179TIP3    H249029   1.108   1.492   2.606  0.4687  0.1963  1.6617
 9180TIP3   OH249030   3.209   3.718  13.108  0.1201  0.5536 -0.1364
 9180TIP3    H149031   3.120   3.720  13.073 -0.1083 -0.1910  0.3970
 9180TIP3    H249032   3.264   3.690  13.034 -0.4443 -1.6663  0.2509
 9181TIP3   OH249033   4.544   6.391  13.457 -0.6417 -0.6379  0.2010
 9181TIP3    H149034   4.599   6.453  13.504  0.2712  0.0768 -1.7587
 9181TIP3    H249035   4.583   6.305  13.475 -0.3752 -0.3844  0.8340
 9182TIP3   OH249036   3.123   1.001  16.074 -0.3467  0.3356  0.1488
 9182TIP3    H149037   3.135   1.024  15.981  0.6473 -2.3700 -0.4509
 9182TIP3    H249038   3.079   1.077  16.112 -0.8878  1.4581 -2.5725
 9183TIP3   OH249039   0.013   1.337  11.799 -0.0477  0.0276 -0.0300
 9183TIP3    H149040  -0.007   1.277  11.870 -1.5085 -0.3467 -0.7345
 9183TIP3    H249041  -0.006   1.424  11.834 -0.5447 -0.1376  0.1174
 9184TIP3   OH249042   0.954   2.074   6.301  0.2337 -0.7061  0.5185
 9184TIP3    H149043   0.922   2.147   6.355  0.2921 -0.0852 -0.2812
 9184TIP3    H249044   0.877   2.017   6.289 -0.5766  0.7156 -1.2916
 9185TIP3   OH249045   0.132   5.744  10.939  0.2282  0.1798  0.0623
 9185TIP3    H149046   0.098   5.822  10.895  1.3585  1.6955  1.8042
 9185TIP3    H249047   0.192   5.705  10.876 -0.3437  0.7123 -0.8224
 9186TIP3   OH249048   6.502   4.670   5.853 -0.2820 -0.2557  0.2443
 9186TIP3    H149049   6.561   4.694   5.781 -1.3056  0.4146 -0.3932
 9186TIP3    H249050   6.416   4.697   5.823 -0.8150 -0.5314  1.4818
 9187TIP3   OH249051   4.041   0.544  17.226 -0.6360  0.0987 -0.3018
 9187TIP3    H149052   3.951   0.515  17.215 -1.4738  2.5566 -0.3806
 9187TIP3    H249053   4.054   0.546  17.321 -0.4632 -0.8451 -0.3060
 9188TIP3   OH249054   4.903   5.714  12.927 -0.4456  0.1445  0.5305
 9188TIP3    H149055   4.943   5.632  12.898  0.9779  0.5903  1.1720
 9188TIP3    H249056   4.976   5.764  12.964 -1.1970  1.9185 -0.3372
 9189TIP3   OH249057   1.960   4.719  11.091  0.1218 -0.2754 -0.1674
 9189TIP3    H149058   2.044   4.743  11.051 -0.5700  0.8629 -0.9369
 9189TIP3    H249059   1.912   4.675  11.021 -0.1074 -0.5366  0.1511
 9190TIP3   OH249060   5.161   4.599  11.555  0.3052  0.0084 -0.0736
 9190TIP3    H149061   5.093   4.620  11.619 -0.2732  0.4665 -0.8348
 9190TIP3    H249062   5.200   4.684  11.533 -1.2052  0.1889 -2.2305
 9191TIP3   OH249063   3.063   5.744  12.000 -0.2382 -0.3364  0.0937
 9191TIP3    H149064   3.069   5.837  12.023  0.1182 -0.3841  0.1963
 9191TIP3    H249065   2.974   5.733  11.968 -1.2570 -0.5703  2.8659
 9192TIP3   OH249066   1.663   1.985   5.951 -0.2320  0.1184  0.3585
 9192TIP3    H149067   1.719   1.917   5.989  0.4554  0.1457 -0.5860
 9192TIP3    H249068   1.678   2.061   6.006  1.4189  0.4088 -0.4313
 9193TIP3   OH249069   5.327   6.792  15.928 -0.1773  0.1938  0.0723
 9193TIP3    H149070   5.336   6.796  16.023 -1.7364  1.4502  0.2032
 9193TIP3    H249071   5.241   6.751  15.914  0.1495 -0.2054 -0.8018
 9194TIP3   OH249072   3.841   1.895  16.770  0.2808  0.2765  0.7032
 9194TIP3    H149073   3.746   1.893  16.755  0.1873  3.8283  0.2960
 9194TIP3    H249074   3.878   1.851  16.695 -1.0675 -1.8377  1.2429
 9195TIP3   OH249075   6.708   4.984  11.951  0.1043 -0.0577 -0.0768
 9195TIP3    H149076   6.761   5.062  11.930 -1.3830  1.3825  1.3418
 9195TIP3    H249077   6.632   4.990  11.893 -0.3780 -0.0427  0.5518
 9196TIP3   OH249078   1.125   2.930  14.319  0.7217  0.0536  0.3200
 9196TIP3    H149079   1.178   2.946  14.242 -0.1536  0.9942 -0.0996
 9196TIP3    H249080   1.046   2.887  14.286  0.6249 -0.1170  0.7686
 9197TIP3   OH249081   1.617   5.184  15.909  0.2169 -0.1912  0.0308
 9197TIP3    H149082   1.627   5.277  15.889  0.0060 -0.1179  0.2681
 9197TIP3    H249083   1.676   5.140  15.848  1.0975  0.1625  0.6197
 9198TIP3   OH249084   2.823   3.331  12.548  0.0696  0.9381 -0.1513
 9198TIP3    H149085   2.906   3.296  12.583 -1.3925  0.8978  3.5257
 9198TIP3    H249086   2.820   3.421  12.581 -1.9051  0.5433  0.8013
 9199TIP3   OH249087   4.019   3.669   0.442 -0.2453  0.2278  0.2721
 9199TIP3    H149088   3.930   3.656   0.410 -0.3713  1.8381 -0.0465
 9199TIP3    H249089   4.019   3.756   0.482  1.2032  0.2933  0.1851
 9200TIP3   OH249090   0.009   6.605   5.637  0.2122  0.3107  0.3443
 9200TIP3    H149091   0.072   6.542   5.670 -0.1591 -0.1487  0.1867
 9200TIP3    H249092  -0.016   6.571   5.551 -0.2111  0.5098  0.3848
 9201TIP3   OH249093   6.694   2.028  15.415 -0.0457 -0.6453 -0.2305
 9201TIP3    H149094   6.762   2.067  15.361 -0.7325  1.3090  0.2913
 9201TIP3    H249095   6.716   2.054  15.504 -1.0983 -0.5764  0.0099
 9202TIP3   OH249096   4.853   3.901   3.116 -0.7440  0.5081 -0.4496
 9202TIP3    H149097   4.828   3.972   3.175 -0.1499 -0.5153  1.0577
 9202TIP3    H249098   4.948   3.902   3.116 -0.7366 -0.0263 -0.7749
 9203TIP3   OH249099   0.712   1.825  13.814 -0.2795  0.2620  0.6978
 9203TIP3    H149100   0.660   1.755  13.774 -0.2114  1.2043 -1.0672
 9203TIP3    H249101   0.802   1.795  13.804 -0.1784  1.0818 -1.0630
 9204TIP3   OH249102   3.877   0.556  15.629  0.2121 -0.0898 -0.1146
 9204TIP3    H149103   3.939   0.516  15.690 -0.3705 -2.1629 -0.8186
 9204TIP3    H249104   3.932   0.603  15.566  0.9082  0.3602  0.8105
 9205TIP3   OH249105   2.413   5.518  14.018  0.7707 -0.3980 -0.1869
 9205TIP3    H149106   2.463   5.599  14.007  0.2136 -0.0010  0.2390
 9205TIP3    H249107   2.339   5.542  14.073  0.0558 -0.9764 -0.8794
 9206TIP3   OH249108   0.386   3.754  12.874  0.7431  0.2891 -0.1388
 9206TIP3    H149109   0.401   3.751  12.779 -1.2894 -1.9031 -0.4306
 9206TIP3    H249110   0.305   3.804  12.884  1.0586  0.6859  0.4619
 9207TIP3   OH249111   4.390   3.159   1.579 -0.1517  0.2537 -0.1157
 9207TIP3    H149112   4.426   3.237   1.536 -1.1375  0.7637 -0.0516
 9207TIP3    H249113   4.390   3.181   1.672 -0.1070  0.0445 -0.0675
 9208TIP3   OH249114   4.898   4.523   4.250  0.2111  0.7856  0.4280
 9208TIP3    H149115   4.852   4.603   4.276  2.1960  2.1020 -0.0344
 9208TIP3    H249116   4.860   4.499   4.166  0.2022  1.7293  0.1594
 9209TIP3   OH249117   5.633   1.697  11.728 -0.0307 -0.0646  0.1530
 9209TIP3    H149118   5.561   1.723  11.787  0.2035  0.6791  0.1124
 9209TIP3    H249119   5.590   1.679  11.645 -0.3247 -0.8061  0.4622
 9210TIP3   OH249120   1.775   4.532   1.257  0.1148 -0.6777  0.5121
 9210TIP3    H149121   1.823   4.615   1.257 -3.2974  1.3979 -2.3643
 9210TIP3    H249122   1.837   4.469   1.220  0.7238  1.9663 -3.2884
 9211TIP3   OH249123   2.139   4.177   3.109  0.7398 -0.2853 -0.6534
 9211TIP3    H149124   2.127   4.245   3.176  0.9316 -0.4750 -0.4242
 9211TIP3    H249125   2.182   4.105   3.156  0.9072 -0.4055 -0.9900
 9212TIP3   OH249126   2.698   1.973   0.782  0.0652  0.4108  0.0968
 9212TIP3    H149127   2.792   1.989   0.783  0.0473  0.4562  1.4288
 9212TIP3    H249128   2.664   2.020   0.858 -1.1576  1.1202 -0.8602
 9213TIP3   OH249129   6.007   6.698  13.838  0.0011  0.4922  0.1144
 9213TIP3    H149130   6.011   6.722  13.745 -0.4626 -1.0647 -0.3200
 9213TIP3    H249131   6.085   6.740  13.876 -0.4849  2.1881 -0.7133
 9214TIP3   OH249132   0.482   0.961  14.395 -0.4394 -0.6890  0.4588
 9214TIP3    H149133   0.576   0.978  14.390 -0.5723  0.4523  1.4747
 9214TIP3    H249134   0.471   0.874  14.357  0.7525  0.0073 -1.5865
 9215TIP3   OH249135   4.555   6.100  11.957 -0.2301 -0.0040 -0.0035
 9215TIP3    H149136   4.623   6.113  11.891 -0.6377  0.1648 -0.3945
 9215TIP3    H249137   4.473   6.101  11.908 -0.6254  1.3414  0.6484
 9216TIP3   OH249138   6.507   2.715  15.142 -0.7946 -0.0423  0.2153
 9216TIP3    H149139   6.433   2.763  15.178 -0.9894  0.3280 -0.6656
 9216TIP3    H249140   6.579   2.734  15.201 -0.9304  1.1466 -0.0040
 9217TIP3   OH249141   4.933   4.542   5.558  0.1474  0.4574 -0.0551
 9217TIP3    H149142   5.018   4.586   5.559  0.6923 -0.6083  0.5009
 9217TIP3    H249143   4.945   4.467   5.500 -0.1123 -0.2829  0.8419
 9218TIP3   OH249144   1.433   4.848  16.492 -0.6440 -0.6578  0.0102
 9218TIP3    H149145   1.466   4.876  16.577  0.6957 -0.4227 -0.5658
 9218TIP3    H249146   1.418   4.754  16.502  0.7699 -0.8895  0.1408
 9219TIP3   OH249147   2.706   1.891  11.338 -0.1852  0.5933 -0.0569
 9219TIP3    H149148   2.638   1.893  11.406  0.5918  0.9234  0.7245
 9219TIP3    H249149   2.708   1.799  11.309  0.3745  0.1619  1.2959
 9220TIP3   OH249150   4.947   4.480   1.345 -0.1627 -0.3762  0.1303
 9220TIP3    H149151   4.992   4.557   1.311 -1.7240  0.1717 -0.7221
 9220TIP3    H249152   4.902   4.442   1.270  0.8160 -2.2965  0.4821
 9221TIP3   OH249153   0.742   4.237  12.968  0.7881  0.0232 -0.0684
 9221TIP3    H149154   0.698   4.224  13.052  1.1583  1.3432  0.3416
 9221TIP3    H249155   0.819   4.180  12.973  0.4675 -0.3910  0.2270
 9222TIP3   OH249156   5.726   3.187  14.969  0.1572  0.2938  0.0909
 9222TIP3    H149157   5.797   3.125  14.984 -0.4692 -0.4778 -0.1342
 9222TIP3    H249158   5.647   3.133  14.964 -0.6661  1.2592  1.9039
 9223TIP3   OH249159   6.012   5.234   4.323  0.8626 -0.2552 -0.0121
 9223TIP3    H149160   5.932   5.189   4.351 -0.3404  0.6932 -1.7862
 9223TIP3    H249161   6.026   5.301   4.390 -0.2600  0.0492 -0.0631
 9224TIP3   OH249162   1.171   0.141  14.034  0.7348  0.0135 -0.5699
 9224TIP3    H149163   1.233   0.139  13.962 -2.0125 -1.2723 -2.9594
 9224TIP3    H249164   1.087   0.163  13.994 -0.4817  1.4845  2.5462
 9225TIP3   OH249165   3.520   3.203  14.836 -0.1637  0.1626  0.0584
 9225TIP3    H149166   3.535   3.142  14.764  0.1806 -0.1803  0.4151
 9225TIP3    H249167   3.605   3.245  14.850 -0.9185  2.3230 -1.6245
 9226TIP3   OH249168   2.680   1.601   2.188 -0.7151  0.3947  0.5741
 9226TIP3    H149169   2.705   1.627   2.277 -0.7092 -1.3393  1.1149
 9226TIP3    H249170   2.639   1.679   2.150 -0.2411  1.3132  1.9180
 9227TIP3   OH249171   1.832   6.160   4.367 -0.0788  0.5030 -0.2356
 9227TIP3    H149172   1.759   6.103   4.343  0.8862 -1.7425  2.0057
 9227TIP3    H249173   1.791   6.232   4.414 -1.0337  0.1841 -0.5530
 9228TIP3   OH249174   0.306   6.710  13.586 -0.0552 -0.5321  0.7687
 9228TIP3    H149175   0.293   6.619  13.610  1.0085 -1.0272 -0.4514
 9228TIP3    H249176   0.248   6.724  13.510  0.8121 -0.5907  0.0905
 9229TIP3   OH249177   5.441   1.269  14.016  0.8394  0.0458  0.1549
 9229TIP3    H149178   5.495   1.334  13.972  0.3649 -1.2821 -2.4580
 9229TIP3    H249179   5.504   1.206  14.051  1.0774 -0.9982 -2.0731
 9230TIP3   OH249180   6.599   0.657   4.533 -0.5882  0.1028 -0.3614
 9230TIP3    H149181   6.640   0.586   4.583 -3.8212 -1.8788 -0.3756
 9230TIP3    H249182   6.566   0.716   4.599  1.1615  1.0976 -0.3356
 9231TIP3   OH249183   1.665   3.797  12.127 -0.2688 -0.0954  0.2406
 9231TIP3    H149184   1.675   3.781  12.221 -1.0178  0.3191  0.3939
 9231TIP3    H249185   1.742   3.850  12.104  0.3246 -0.8491  0.4526
 9232TIP3   OH249186   6.561   3.651  12.153  0.1678  0.0608  0.2117
 9232TIP3    H149187   6.488   3.589  12.152  0.7117 -0.5616 -0.7941
 9232TIP3    H249188   6.621   3.616  12.219 -0.2674  0.3826  0.7852
 9233TIP3   OH249189   0.304   1.323   2.745  0.4321  0.1181  0.1688
 9233TIP3    H149190   0.354   1.381   2.802  0.5939 -0.2322  0.3839
 9233TIP3    H249191   0.342   1.337   2.658 -0.1750  1.0503  0.0530
 9234TIP3   OH249192   5.527   0.711  15.131 -0.1036  0.4678 -0.6105
 9234TIP3    H149193   5.451   0.655  15.116  0.0919 -0.3977  1.4850
 9234TIP3    H249194   5.493   0.800  15.132 -0.9876  0.1260 -0.4017
 9235TIP3   OH249195   5.375   6.615   3.065  0.0853 -0.7517  0.6456
 9235TIP3    H149196   5.373   6.609   2.969  0.5672  0.4218  0.5550
 9235TIP3    H249197   5.284   6.629   3.090  0.0927 -0.0076  0.2771
 9236TIP3   OH249198   1.941   5.820  11.340  0.2425  0.3314 -0.4175
 9236TIP3    H149199   1.966   5.784  11.255  0.5837  0.9704 -0.5892
 9236TIP3    H249200   1.872   5.762  11.371  0.7604 -0.4507 -0.7111
 9237TIP3   OH249201   6.281   4.826   2.682  0.0698  0.3995  0.0009
 9237TIP3    H149202   6.367   4.812   2.722  1.0168  2.0484 -1.3693
 9237TIP3    H249203   6.294   4.902   2.624 -2.6366  1.5200  0.7908
 9238TIP3   OH249204   1.430   4.897  14.497  0.1921  0.2333 -0.1889
 9238TIP3    H149205   1.423   4.802  14.492  1.2954  0.1917 -1.0059
 9238TIP3    H249206   1.408   4.928  14.409  0.2263  0.7191 -0.0311
 9239TIP3   OH249207   0.002   0.729   5.539 -0.5249  0.0444  0.5065
 9239TIP3    H149208  -0.064   0.667   5.572 -0.0920 -0.1451  1.0121
 9239TIP3    H249209   0.082   0.705   5.584  0.1275 -0.3492 -0.8317
 9240TIP3   OH249210   2.443   3.054   2.473 -0.0785 -0.5219  0.8470
 9240TIP3    H149211   2.476   2.965   2.466  0.5451 -0.1891 -0.7968
 9240TIP3    H249212   2.507   3.100   2.527  0.7826 -0.5484 -0.1200
 9241TIP3   OH249213   5.683   3.988   4.256 -0.2137  0.3834 -0.3690
 9241TIP3    H149214   5.730   3.913   4.294  2.9302  0.8262 -3.1562
 9241TIP3    H249215   5.598   3.952   4.230  0.2679 -1.6079  0.6594
 9242TIP3   OH249216   3.642   1.768  12.028  0.9229  0.2370 -0.6808
 9242TIP3    H149217   3.730   1.730  12.034 -0.1096 -2.3438 -1.0554
 9242TIP3    H249218   3.596   1.710  11.966 -2.0515 -0.4934  2.0983
 9243TIP3   OH249219   5.978   4.341  16.243  0.4876 -0.8244 -0.6086
 9243TIP3    H149220   6.069   4.368  16.227 -0.0425  0.9831 -0.6717
 9243TIP3    H249221   5.929   4.379  16.170 -0.8286  1.1854  1.2560
 9244TIP3   OH249222   3.425   5.632  16.697 -0.9396 -0.0452 -0.7216
 9244TIP3    H149223   3.334   5.626  16.726 -0.1062  0.3675  2.1883
 9244TIP3    H249224   3.446   5.545  16.665 -1.6600 -0.8319  0.8803
 9245TIP3   OH249225   3.366   5.721   1.426 -1.2580 -0.0846  0.4168
 9245TIP3    H149226   3.383   5.657   1.357  1.3225 -0.6757  1.5377
 9245TIP3    H249227   3.347   5.802   1.379  0.3599 -0.5074 -1.0269
 9246TIP3   OH249228   3.879   0.036  13.085  0.2940  0.6702 -0.0623
 9246TIP3    H149229   3.797   0.050  13.037  0.2585  1.8195  0.3059
 9246TIP3    H249230   3.857   0.059  13.175 -1.1696 -6.5278  1.7754
 9247TIP3   OH249231   3.140   2.976   6.523  0.5479  0.3411 -0.0690
 9247TIP3    H149232   3.128   3.071   6.517  1.5055  0.5075  0.5529
 9247TIP3    H249233   3.104   2.952   6.608  1.7449  0.3917  0.4648
 9248TIP3   OH249234   4.114   2.985  14.895 -0.0814  0.3887 -0.1800
 9248TIP3    H149235   4.029   2.976  14.852 -0.6914  1.5689  0.7675
 9248TIP3    H249236   4.157   3.056  14.848  0.0269  0.3857 -0.0854
 9249TIP3   OH249237   6.609   1.222  16.192  0.0382  0.4710 -0.2336
 9249TIP3    H149238   6.671   1.225  16.265 -1.5772  0.0465  1.1890
 9249TIP3    H249239   6.653   1.169  16.126  0.8401 -0.5682  1.1052
 9250TIP3   OH249240   4.625   0.071   5.309 -0.3923  0.4725  0.1267
 9250TIP3    H149241   4.613   0.077   5.214 -0.8403 -0.3342  0.1307
 9250TIP3    H249242   4.719   0.080   5.322 -0.1619 -0.9637 -0.5119
 9251TIP3   OH249243   1.714   5.915  15.964 -0.1399 -0.3693  0.0485
 9251TIP3    H149244   1.802   5.892  15.934  0.0517  0.9525 -0.4368
 9251TIP3    H249245   1.658   5.847  15.927  0.2448  0.5607 -2.3245
 9252TIP3   OH249246   5.084   4.602  16.757  0.2696  0.3242  0.0472
 9252TIP3    H149247   5.118   4.670  16.815 -1.4314  2.5962 -1.5198
 9252TIP3    H249248   5.157   4.581  16.699  1.0162  0.3068  0.9741
 9253TIP3   OH249249   4.902   1.457  12.809 -0.5225  0.1381 -0.0748
 9253TIP3    H149250   4.922   1.400  12.883  2.7901  1.1808 -0.0507
 9253TIP3    H249251   4.823   1.420  12.770 -1.5643 -1.2062  3.1524
 9254TIP3   OH249252   1.567   1.364   2.857  0.1998  0.2254 -0.3181
 9254TIP3    H149253   1.621   1.391   2.783  2.1859  1.3085  1.4582
 9254TIP3    H249254   1.498   1.429   2.862 -0.9177 -0.7756 -2.1914
 9255TIP3   OH249255   5.867   4.444  13.425 -0.1942  0.2429 -0.3429
 9255TIP3    H149256   5.888   4.351  13.413 -0.4000  0.1238  0.2145
 9255TIP3    H249257   5.827   4.470  13.342 -0.3760 -0.2380 -0.4095
 9256TIP3   OH249258   2.251   5.462  15.023 -0.4117 -0.2336 -0.1515
 9256TIP3    H149259   2.217   5.548  15.049  2.0914  1.0293 -0.9195
 9256TIP3    H249260   2.331   5.452  15.073  1.4867 -0.2775 -3.0893
 9257TIP3   OH249261   0.878   2.942  13.023 -0.1090  0.1171 -0.1543
 9257TIP3    H149262   0.909   3.032  13.029 -0.1612  0.0859  0.7291
 9257TIP3    H249263   0.790   2.949  12.986 -0.3455  0.4851  0.4610
 9258TIP3   OH249264   3.698   3.467  16.199  0.3007 -0.8612 -0.6459
 9258TIP3    H149265   3.610   3.432  16.209 -0.3536  0.9952  0.2940
 9258TIP3    H249266   3.744   3.441  16.279 -0.6251  1.5918  0.7450
 9259TIP3   OH249267   2.756   0.678   3.924 -0.2566 -0.2468 -0.5398
 9259TIP3    H149268   2.830   0.647   3.872 -0.7168 -0.3368 -1.1438
 9259TIP3    H249269   2.683   0.622   3.898 -0.2121 -1.0772  1.0739
 9260TIP3   OH249270   3.159   1.273  15.394  0.2025 -0.1413  0.3946
 9260TIP3    H149271   3.108   1.194  15.379  0.7680 -0.7238  1.5216
 9260TIP3    H249272   3.178   1.307  15.306 -3.0147  0.6815 -0.0624
 9261TIP3   OH249273   5.549   3.859   2.727 -0.1347  0.8536 -0.3060
 9261TIP3    H149274   5.520   3.791   2.667 -0.5477  1.8027 -1.1996
 9261TIP3    H249275   5.571   3.813   2.807  0.9965 -0.5113 -1.3787
 9262TIP3   OH249276   1.369   2.466  11.612 -0.1258 -0.4935  0.5776
 9262TIP3    H149277   1.302   2.501  11.670  0.1525  0.4404  0.3419
 9262TIP3    H249278   1.423   2.542  11.589  1.0865 -1.2439  0.8618
 9263TIP3   OH249279   2.352   6.589   0.020  0.1107 -0.1456  0.5234
 9263TIP3    H149280   2.325   6.518   0.077  0.3054 -1.0412 -0.4879
 9263TIP3    H249281   2.272   6.617  -0.024 -0.0698  0.6562  1.3416
 9264TIP3   OH249282   3.512   3.304  13.472  0.2836  0.2967  0.2598
 9264TIP3    H149283   3.417   3.318  13.471  0.3568  0.7515 -0.2870
 9264TIP3    H249284   3.546   3.374  13.528  0.0514 -1.4719  2.7376
 9265TIP3   OH249285   4.249   6.628   5.234 -0.3423  0.2815  0.0209
 9265TIP3    H149286   4.343   6.628   5.248 -0.7217 -1.1991  2.9390
 9265TIP3    H249287   4.218   6.708   5.277 -0.7191 -0.6903  1.5861
 9266TIP3   OH249288   0.854   2.251   3.568 -0.6751  0.4690  0.3575
 9266TIP3    H149289   0.777   2.194   3.578 -0.0291 -0.5171 -0.1527
 9266TIP3    H249290   0.841   2.320   3.632 -0.7985 -1.0385  2.0067
 9267TIP3   OH249291   5.436   1.657   4.670 -0.4751  0.0172 -0.1426
 9267TIP3    H149292   5.391   1.573   4.661 -0.5405 -0.1581  1.7762
 9267TIP3    H249293   5.458   1.664   4.763  0.2155  1.7721 -0.4098
 9268TIP3   OH249294   0.485   1.443   1.087  0.1022 -0.4369  0.8266
 9268TIP3    H149295   0.520   1.530   1.068  0.5721 -0.6516  0.6994
 9268TIP3    H249296   0.470   1.403   1.002 -0.8275 -0.1984  0.8797
 9269TIP3   OH249297   5.888   3.899   6.322 -0.3393 -0.8198  0.3282
 9269TIP3    H149298   5.860   3.816   6.282  0.3214 -1.2682  0.7802
 9269TIP3    H249299   5.851   3.897   6.410 -0.3554 -0.6177  0.3258
 9270TIP3   OH249300   3.756   2.938   2.623 -0.0871  0.0296 -0.1593
 9270TIP3    H149301   3.770   3.033   2.625 -0.5798  0.1336 -1.2660
 9270TIP3    H249302   3.662   2.927   2.635  0.0624 -0.3606  0.6938
 9271TIP3   OH249303   1.959   5.002   5.225 -0.4153  0.5686 -0.1939
 9271TIP3    H149304   1.911   4.995   5.308 -0.7940  0.4303 -0.4218
 9271TIP3    H249305   2.042   4.957   5.242 -0.8791 -0.3032 -0.1728
 9272TIP3   OH249306   5.432   1.163   1.917  0.1768 -0.1890  0.0860
 9272TIP3    H149307   5.381   1.085   1.895 -0.5648  0.8210 -1.8787
 9272TIP3    H249308   5.381   1.236   1.881  1.4984  1.0906  0.7644
 9273TIP3   OH249309   0.608   2.749   2.995 -0.1133  0.9150  0.1683
 9273TIP3    H149310   0.577   2.805   2.923  1.7463  0.4518 -1.0390
 9273TIP3    H249311   0.529   2.722   3.041 -1.3222  1.3969 -1.5986
 9274TIP3   OH249312   3.530   1.712   4.520 -0.1156 -0.5186  0.5078
 9274TIP3    H149313   3.613   1.733   4.561  0.3001  1.2594 -1.1397
 9274TIP3    H249314   3.465   1.761   4.570  0.0614 -0.4205  0.6417
 9275TIP3   OH249315   4.592   6.015   0.980 -0.5674  0.2346 -0.3408
 9275TIP3    H149316   4.531   6.084   0.950 -0.0181  0.0019 -2.0537
 9275TIP3    H249317   4.673   6.062   0.999 -0.7331  0.2968  0.2333
 9276TIP3   OH249318   0.400   0.923   5.212 -0.6559 -0.3405  0.5263
 9276TIP3    H149319   0.375   0.915   5.304  0.6331 -0.8437  0.8445
 9276TIP3    H249320   0.326   0.886   5.164 -1.8561  0.9931  1.2944
 9277TIP3   OH249321   0.282   6.398   0.241 -0.2805  0.5163 -0.2709
 9277TIP3    H149322   0.243   6.311   0.229  1.6912 -0.5838  1.0390
 9277TIP3    H249323   0.210   6.451   0.275 -0.9611 -1.2030  1.0792
 9278TIP3   OH249324   3.442   5.757   3.251 -0.5983  0.2753  0.0806
 9278TIP3    H149325   3.489   5.748   3.334 -2.0607 -0.2181  0.8773
 9278TIP3    H249326   3.448   5.670   3.211  1.8593  1.0582 -1.3073
 9279TIP3   OH249327   5.889   4.507  11.856 -0.5278 -0.1430  0.4862
 9279TIP3    H149328   5.940   4.588  11.860 -0.7932  0.0107  0.7648
 9279TIP3    H249329   5.844   4.511  11.772  1.4076 -1.1798 -0.6545
 9280TIP3   OH249330   5.649   6.809   3.120  0.3396  0.3452  0.0313
 9280TIP3    H149331   5.739   6.834   3.102 -0.1403  1.9880 -0.1796
 9280TIP3    H249332   5.605   6.812   3.035 -0.3061  1.2864  0.3827
 9281TIP3   OH249333   1.385   3.836  12.138  0.5918 -0.4138 -0.3054
 9281TIP3    H149334   1.362   3.798  12.053  1.1164 -2.5028  0.4433
 9281TIP3    H249335   1.479   3.816  12.148  0.3126 -1.0543  1.1736
 9282TIP3   OH249336   6.124   1.073  14.495 -0.0029 -0.3647  0.4183
 9282TIP3    H149337   6.091   1.162  14.506 -3.2132 -1.6688  1.9954
 9282TIP3    H249338   6.219   1.083  14.488 -0.3580  3.2132 -0.1666
 9283TIP3   OH249339   5.074   3.475   0.184 -0.4233  0.2355  0.0481
 9283TIP3    H149340   5.083   3.400   0.243  0.0871  1.3302  1.3851
 9283TIP3    H249341   5.029   3.440   0.107  1.8625 -1.9512 -0.3319
 9284TIP3   OH249342   4.322   1.625   2.228 -0.4370  0.3756  0.4479
 9284TIP3    H149343   4.266   1.650   2.154 -0.6942 -0.4655  0.3484
 9284TIP3    H249344   4.297   1.534   2.246  1.5373 -0.3267 -0.2143
 9285TIP3   OH249345   5.751   4.473   5.964 -0.1850  0.0707  0.1561
 9285TIP3    H149346   5.744   4.430   5.879 -0.0627  0.5673 -0.1042
 9285TIP3    H249347   5.691   4.424   6.021 -0.0348 -0.4556 -0.1336
 9286TIP3   OH249348   1.328   4.556   2.884  0.0199 -0.1586  0.4216
 9286TIP3    H149349   1.414   4.519   2.864 -0.5881 -0.9543 -0.7252
 9286TIP3    H249350   1.298   4.594   2.802  0.7946  3.2907  1.6448
 9287TIP3   OH249351   3.884   0.966  14.156 -0.5041 -0.4915  0.2592
 9287TIP3    H149352   3.911   0.942  14.067  0.4225  0.8472  0.1536
 9287TIP3    H249353   3.803   1.015  14.144  0.6481  1.3839 -0.0430
 9288TIP3   OH249354   1.892   1.805   1.273  0.0444  0.0321  0.1450
 9288TIP3    H149355   1.828   1.874   1.260 -1.0779 -0.7351  1.3861
 9288TIP3    H249356   1.952   1.839   1.339 -1.6018 -0.8270  2.1775
 9289TIP3   OH249357   1.790   4.456  15.543 -0.2897 -0.2591  0.6147
 9289TIP3    H149358   1.825   4.398  15.611  1.1667 -0.6837 -0.4610
 9289TIP3    H249359   1.805   4.544  15.577  0.2812 -0.4701  0.9194
 9290TIP3   OH249360   3.804   6.078   1.977  0.2970  0.4011 -0.2189
 9290TIP3    H149361   3.710   6.096   1.982 -0.0187 -1.6836  3.1729
 9290TIP3    H249362   3.810   5.999   1.923  0.1443  0.7067 -0.6886
 9291TIP3   OH249363   6.158   3.105  14.520 -0.2443 -0.0666 -0.1940
 9291TIP3    H149364   6.237   3.156  14.502 -0.6463 -0.2065 -2.5398
 9291TIP3    H249365   6.086   3.165  14.499 -0.7331 -1.0869 -1.4674
 9292TIP3   OH249366   0.891   6.448  16.830  0.3420 -0.2923 -0.5081
 9292TIP3    H149367   0.951   6.375  16.816  1.6631  0.5001  0.8265
 9292TIP3    H249368   0.943   6.526  16.811 -0.3025  0.3933  0.4688
 9293TIP3   OH249369   2.138   6.345  11.317  0.6558 -0.2304  0.5527
 9293TIP3    H149370   2.071   6.388  11.264  2.1702  0.4437 -0.8632
 9293TIP3    H249371   2.136   6.391  11.400 -0.6376 -0.2398  0.5423
 9294TIP3   OH249372   0.384   2.668   3.166 -0.1508 -0.7964  0.0600
 9294TIP3    H149373   0.341   2.751   3.147  2.6359  0.6641 -0.1122
 9294TIP3    H249374   0.322   2.621   3.223 -3.9529 -0.7874 -3.8374
 9295TIP3   OH249375   4.699   4.739   0.286  0.4682  0.2309 -0.8208
 9295TIP3    H149376   4.693   4.646   0.264  1.0057 -0.2867  1.1490
 9295TIP3    H249377   4.608   4.770   0.285  0.2140 -0.5008 -0.7330
 9296TIP3   OH249378   1.225   5.067  13.906  0.1831  0.6761 -0.0964
 9296TIP3    H149379   1.225   4.975  13.879 -0.3013  0.2877  1.1849
 9296TIP3    H249380   1.302   5.076  13.962 -0.2232  0.8315  0.4477
 9297TIP3   OH249381   0.823   1.613   2.378  0.0532  0.0953  0.1005
 9297TIP3    H149382   0.795   1.585   2.466 -2.7004  0.2747 -0.6769
 9297TIP3    H249383   0.830   1.532   2.329  1.9180 -0.0330  0.5550
 9298TIP3   OH249384   4.428   6.725  17.004 -0.0083  0.1014  0.5188
 9298TIP3    H149385   4.434   6.771  16.920 -0.3224 -0.7806  0.0051
 9298TIP3    H249386   4.496   6.764  17.058  0.1498  0.7244 -0.1276
 9299TIP3   OH249387   6.226   0.166  12.124 -0.1203  0.1917 -0.4237
 9299TIP3    H149388   6.304   0.200  12.081 -0.5557  2.1374  0.2806
 9299TIP3    H249389   6.159   0.163  12.056 -0.1004  0.8373 -0.4724
 9300TIP3   OH249390   1.745   2.436  16.956 -0.8271  0.2628  0.8406
 9300TIP3    H149391   1.697   2.417  16.875 -0.9234 -0.5325  1.0736
 9300TIP3    H249392   1.757   2.531  16.956 -0.1061  0.1865 -0.5153
 9301TIP3   OH249393   5.767   3.490  14.171  0.3454  0.4516 -0.5812
 9301TIP3    H149394   5.803   3.419  14.118 -1.8630 -0.2299 -1.2093
 9301TIP3    H249395   5.677   3.500  14.141 -0.6189  0.7901  2.2682
 9302TIP3   OH249396   1.487   4.676  14.728 -0.0287 -0.0136 -0.2015
 9302TIP3    H149397   1.575   4.647  14.705 -0.3360 -0.3757 -0.9663
 9302TIP3    H249398   1.477   4.652  14.820 -0.2310 -2.2808 -0.7805
 9303TIP3   OH249399   0.651   1.719  16.082 -0.1012 -0.4008 -0.2081
 9303TIP3    H149400   0.719   1.785  16.098 -0.2694 -0.2282 -0.2082
 9303TIP3    H249401   0.696   1.635  16.096  0.3622 -0.3189 -1.1220
 9304TIP3   OH249402   5.014   2.989   1.662  0.3449  0.0305  0.0307
 9304TIP3    H149403   5.091   3.020   1.613 -0.6720  0.8341 -1.1117
 9304TIP3    H249404   4.943   3.046   1.631 -0.7638 -0.9125  0.8409
 9305TIP3   OH249405   0.723   1.326   5.106 -0.3463 -0.3701  0.0265
 9305TIP3    H149406   0.676   1.243   5.111 -0.5478 -0.2741 -0.2739
 9305TIP3    H249407   0.680   1.382   5.171 -0.7897 -0.2118 -0.4004
 9306TIP3   OH249408   4.560   4.125  15.954 -0.2573 -0.2319  0.0682
 9306TIP3    H149409   4.506   4.138  16.031 -0.0177 -2.7805  0.7100
 9306TIP3    H249410   4.594   4.035  15.962  3.0969  0.8546 -0.9131
 9307TIP3   OH249411   4.981   0.927   1.565 -0.5427 -0.5757 -0.0158
 9307TIP3    H149412   4.951   0.848   1.611  0.7502 -0.9793  0.1502
 9307TIP3    H249413   4.904   0.983   1.560 -1.2337 -1.4572  0.7043
 9308TIP3   OH249414   3.467   5.471   3.230  0.1610 -0.2380 -0.5075
 9308TIP3    H149415   3.510   5.436   3.308  0.7431 -0.8820 -1.1077
 9308TIP3    H249416   3.536   5.473   3.164 -0.4154 -0.0265 -1.1044
 9309TIP3   OH249417   2.631   1.056  16.808  0.2610 -0.7144  1.0497
 9309TIP3    H149418   2.634   1.118  16.881 -2.0821 -0.7287  1.1855
 9309TIP3    H249419   2.697   0.990  16.830  2.2550  1.2745  1.2779
 9310TIP3   OH249420   5.821   5.051  11.015 -0.3163  0.0712 -0.3886
 9310TIP3    H149421   5.746   5.075  10.960  0.7267 -0.4858 -2.0635
 9310TIP3    H249422   5.895   5.049  10.955  0.8590 -0.4280  1.0742
 9311TIP3   OH249423   3.098   2.380  13.745  0.9163 -0.1437  0.4080
 9311TIP3    H149424   3.003   2.373  13.736  0.8742  0.4292  0.3620
 9311TIP3    H249425   3.128   2.408  13.658  1.1373 -0.4339  0.3903
 9312TIP3   OH249426   6.136   6.050  14.288  0.0072 -0.3309  0.0852
 9312TIP3    H149427   6.073   6.018  14.223  0.6744 -0.0871 -0.6839
 9312TIP3    H249428   6.189   5.974  14.309  1.6378  0.2359 -1.7935
 9313TIP3   OH249429   2.470   0.500   2.102 -0.2239 -0.0271  0.1846
 9313TIP3    H149430   2.506   0.543   2.025 -0.7808 -0.7984 -0.5132
 9313TIP3    H249431   2.385   0.467   2.074 -0.8850  0.5612  1.4145
 9314TIP3   OH249432   3.480   1.227  14.105 -0.5136 -0.5494  0.1846
 9314TIP3    H149433   3.467   1.195  14.015 -0.5297 -0.0451  0.0079
 9314TIP3    H249434   3.411   1.184  14.155 -1.3937  0.2560 -0.3100
 9315TIP3   OH249435   2.331   0.418   1.357 -0.6449  0.3370  0.0470
 9315TIP3    H149436   2.324   0.505   1.316  2.2715  1.0089  0.8977
 9315TIP3    H249437   2.402   0.427   1.420 -0.2267 -2.7263  0.0537
 9316TIP3   OH249438   5.428   3.523  12.295 -0.6724 -0.3110 -0.0630
 9316TIP3    H149439   5.339   3.543  12.326 -0.3298 -0.2636  0.9104
 9316TIP3    H249440   5.432   3.562  12.208 -1.6869 -0.5167 -0.2126
 9317TIP3   OH249441   1.619   3.936   6.876  1.0319  0.6563 -0.2314
 9317TIP3    H149442   1.685   3.999   6.846  1.0864  1.0943  0.7947
 9317TIP3    H249443   1.603   3.880   6.800  1.3017  1.6424 -1.0197
 9318TIP3   OH249444   2.605   4.542   2.967  0.1059 -0.3105  0.0508
 9318TIP3    H149445   2.529   4.504   3.012  0.6910 -0.4547  0.9457
 9318TIP3    H249446   2.578   4.550   2.876 -0.6881 -1.1561  0.2020
 9319TIP3   OH249447   3.861   1.716  12.484  0.1778  0.7593 -0.1105
 9319TIP3    H149448   3.786   1.745  12.431  0.3632  0.5195 -0.5105
 9319TIP3    H249449   3.929   1.780  12.467 -1.0641  3.0318  3.0379
 9320TIP3   OH249450   5.892   3.270  14.042 -0.1186 -0.6647 -0.3434
 9320TIP3    H149451   5.839   3.244  13.967 -0.8330  0.1824 -0.1288
 9320TIP3    H249452   5.841   3.242  14.118  0.0533 -0.4485 -0.1490
 9321TIP3   OH249453   0.977   6.254  11.261  0.2344 -0.8564 -0.2772
 9321TIP3    H149454   0.952   6.232  11.350 -2.9359  0.1801 -0.8745
 9321TIP3    H249455   1.029   6.334  11.270 -1.0159 -0.1331  0.5389
 9322TIP3   OH249456   3.651   5.227  14.321 -0.0010  0.8650 -0.5150
 9322TIP3    H149457   3.629   5.202  14.411  0.5361 -0.5359 -0.7507
 9322TIP3    H249458   3.589   5.296  14.299 -0.5609  0.7596  0.7077
 9323TIP3   OH249459   2.441   0.437  11.548 -0.6900  0.2244 -0.0241
 9323TIP3    H149460   2.419   0.442  11.455 -1.4931 -0.6466  0.1051
 9323TIP3    H249461   2.442   0.343  11.567  1.8129  0.3001  0.3095
 9324TIP3   OH249462   2.831   3.609   4.603 -0.0079  0.5287 -0.0951
 9324TIP3    H149463   2.813   3.702   4.618  0.5969  0.6110  0.1212
 9324TIP3    H249464   2.869   3.578   4.685  1.7603  0.5884 -0.8605
 9325TIP3   OH249465   2.252   2.900   3.821 -0.0817 -0.4039  0.4778
 9325TIP3    H149466   2.203   2.913   3.740  0.5512  0.1747  0.1822
 9325TIP3    H249467   2.299   2.818   3.807 -0.5488 -0.6845  0.5514
 9326TIP3   OH249468   5.941   6.818   0.548  0.3609 -0.2985  0.2978
 9326TIP3    H149469   5.934   6.880   0.621 -0.4649 -0.2432  0.1747
 9326TIP3    H249470   6.033   6.822   0.523  0.6679 -0.3479  1.3610
 9327TIP3   OH249471   1.863   5.443   2.088 -0.3097  0.1597  0.5497
 9327TIP3    H149472   1.828   5.531   2.107 -0.7840 -0.0677  0.7326
 9327TIP3    H249473   1.912   5.454   2.007  0.1501  0.7318  0.8990
 9328TIP3   OH249474   5.969   4.611   1.502 -0.0349 -0.3799  0.1013
 9328TIP3    H149475   6.054   4.583   1.534  0.6905  1.0692 -0.5050
 9328TIP3    H249476   5.988   4.683   1.442 -1.7975  1.3254  1.4949
 9329TIP3   OH249477   5.134   5.122  14.011  0.4335 -0.0193  0.2551
 9329TIP3    H149478   5.147   5.030  13.990 -0.2015  0.1731 -1.0723
 9329TIP3    H249479   5.039   5.132  14.019  0.4777  0.5616  0.1119
 9330TIP3   OH249480   4.885   5.236   0.826 -0.5167 -0.0423 -0.0777
 9330TIP3    H149481   4.919   5.165   0.772 -1.1166 -1.6639  1.6176
 9330TIP3    H249482   4.793   5.245   0.801 -0.3749  0.3165 -0.4731
 9331TIP3   OH249483   2.684   0.001  16.359  0.7251 -0.3020 -0.7642
 9331TIP3    H149484   2.729   0.046  16.287 -1.5008  1.0465 -1.3651
 9331TIP3    H249485   2.620  -0.055  16.315 -0.4695  0.3293  0.1480
 9332TIP3   OH249486   1.882   3.094  11.146  0.2563  0.2205 -1.0008
 9332TIP3    H149487   1.800   3.131  11.114  0.5748  2.8871  1.1008
 9332TIP3    H249488   1.949   3.134  11.091  0.4586  1.2943  0.0242
 9333TIP3   OH249489   5.215   1.948   2.605 -0.3244 -0.5275 -0.0214
 9333TIP3    H149490   5.198   2.037   2.635  1.0537 -0.2418 -0.0603
 9333TIP3    H249491   5.289   1.957   2.545 -0.6182 -1.6132 -0.5604
 9334TIP3   OH249492   4.091   5.927  15.834  0.4610  0.2756 -0.1190
 9334TIP3    H149493   4.140   5.918  15.753 -0.5666  0.1938 -0.7389
 9334TIP3    H249494   4.011   5.975  15.810  0.0792  0.1237  0.8011
 9335TIP3   OH249495   3.199   0.829   5.826 -0.5178 -0.3067 -0.6654
 9335TIP3    H149496   3.146   0.791   5.897  1.2265 -0.3460  0.6371
 9335TIP3    H249497   3.245   0.901   5.867  0.1728 -0.0476 -1.8869
 9336TIP3   OH249498   2.599   0.818   4.360  0.0790  0.1930 -0.5078
 9336TIP3    H149499   2.634   0.855   4.279 -0.4796  0.1304 -0.7753
 9336TIP3    H249500   2.547   0.743   4.331  1.2544 -0.8570  0.0261
 9337TIP3   OH249501   5.827   1.176  16.028  0.3694  0.3317  0.3968
 9337TIP3    H149502   5.793   1.207  15.944  0.1395  0.4252  0.5234
 9337TIP3    H249503   5.911   1.220  16.037  0.1706  0.7070  0.4435
 9338TIP3   OH249504   4.749   2.975   4.963  0.3366 -0.0866 -0.0008
 9338TIP3    H149505   4.757   3.016   5.049 -1.0270 -1.3046  0.7219
 9338TIP3    H249506   4.777   2.884   4.977  2.0170  0.2117 -1.2857
 9339TIP3   OH249507   0.002   0.230   0.645 -0.0717  0.9458  0.6860
 9339TIP3    H149508  -0.004   0.311   0.697  2.4082  0.9847  0.9531
 9339TIP3    H249509   0.049   0.256   0.566 -2.3122  0.4958 -0.8377
 9340TIP3   OH249510   1.310   4.826  16.798  0.7735  0.1103  0.1695
 9340TIP3    H149511   1.367   4.903  16.796  2.1096 -0.8779 -1.8699
 9340TIP3    H249512   1.293   4.806  16.706 -0.9140 -1.0562  0.7074
 9341TIP3   OH249513   6.667   1.511  13.252  0.4627 -0.4629  0.0887
 9341TIP3    H149514   6.619   1.546  13.327 -1.3499 -1.9486 -0.3410
 9341TIP3    H249515   6.661   1.416  13.262  4.1072 -0.7095  0.4932
 9342TIP3   OH249516   5.622   2.780   5.674  0.2755  0.3053 -0.2082
 9342TIP3    H149517   5.527   2.773   5.670  0.3138  0.3678 -1.2996
 9342TIP3    H249518   5.654   2.709   5.619  0.9294 -1.6598  2.5675
 9343TIP3   OH249519   4.377   6.350  11.026  0.1027 -0.6322 -0.3267
 9343TIP3    H149520   4.369   6.336  11.121  0.3143 -2.1443 -0.5194
 9343TIP3    H249521   4.360   6.444  11.014  0.5016 -0.3445  1.2502
 9344TIP3   OH249522   2.149   1.333  16.785  0.1310 -0.9180 -0.7251
 9344TIP3    H149523   2.215   1.266  16.767  0.5069 -0.4650 -1.0503
 9344TIP3    H249524   2.195   1.416  16.770 -0.4794 -0.5991 -0.8351
 9345TIP3   OH249525   3.259   0.796   5.161  0.2755 -0.4218 -0.2335
 9345TIP3    H149526   3.287   0.814   5.251 -0.5031  0.4635 -0.1567
 9345TIP3    H249527   3.177   0.748   5.171 -0.1563  0.2554 -0.4655
 9346TIP3   OH249528   6.430   3.759  11.441  0.4123 -0.5248  0.1622
 9346TIP3    H149529   6.454   3.674  11.405  1.6440  0.4093 -1.3322
 9346TIP3    H249530   6.445   3.751  11.535  4.5343 -0.7541 -0.3975
 9347TIP3   OH249531   0.373   5.507  11.862 -0.2058  0.4715 -0.4365
 9347TIP3    H149532   0.345   5.426  11.905 -0.6990  0.9462  0.1468
 9347TIP3    H249533   0.298   5.566  11.870 -0.8622  0.0779 -3.2772
 9348TIP3   OH249534   2.368   5.405  12.794  0.8013 -0.0590  0.0549
 9348TIP3    H149535   2.373   5.466  12.721  2.0471 -1.5019 -1.0879
 9348TIP3    H249536   2.363   5.461  12.871  3.5048  1.5575 -0.8553
 9349TIP3   OH249537   0.213   6.089   3.333 -0.3048 -0.1027  0.0507
 9349TIP3    H149538   0.283   6.049   3.385  0.9563  0.3413 -1.2642
 9349TIP3    H249539   0.165   6.015   3.297  1.7899 -0.4880 -2.0740
 9350TIP3   OH249540   3.464   0.247  11.272  0.4229 -0.1765  0.2995
 9350TIP3    H149541   3.549   0.210  11.293  1.6961  1.8935 -1.0714
 9350TIP3    H249542   3.438   0.296  11.351  1.6881  1.2779 -0.1601
 9351TIP3   OH249543   3.708   1.144  13.592 -0.9283 -0.1014 -0.0567
 9351TIP3    H149544   3.680   1.221  13.543  0.6623 -0.7090 -1.9822
 9351TIP3    H249545   3.780   1.107  13.540  0.0728 -1.3956  2.1826
 9352TIP3   OH249546   1.385   1.731  11.287  0.4614  0.3492  0.2157
 9352TIP3    H149547   1.427   1.648  11.262  2.0937  1.9377 -2.5981
 9352TIP3    H249548   1.319   1.745  11.218 -0.2043  1.0971  1.0051
 9353TIP3   OH249549   0.446   3.705   3.158  0.3813 -0.3601 -0.3008
 9353TIP3    H149550   0.492   3.740   3.234  0.3918  0.7435 -0.7955
 9353TIP3    H249551   0.466   3.611   3.158  2.6604  0.0972 -0.5134
 9354TIP3   OH249552   0.057   2.134   4.797  0.6892 -0.5809  0.0157
 9354TIP3    H149553   0.119   2.076   4.753 -0.7435 -2.5957  0.5674
 9354TIP3    H249554   0.095   2.149   4.884  0.5703 -1.6070  0.2596
 9355TIP3   OH249555   5.341   1.995  15.557 -0.1285  0.4223 -0.2638
 9355TIP3    H149556   5.313   2.085  15.537 -2.7246 -0.6386 -1.7168
 9355TIP3    H249557   5.333   1.988  15.652 -4.2105  0.4814 -0.5034
 9356TIP3   OH249558   3.339   5.637   4.796  0.2059 -0.3650 -0.0175
 9356TIP3    H149559   3.404   5.614   4.729  0.7399  1.1611 -0.0481
 9356TIP3    H249560   3.305   5.722   4.768 -1.3533 -0.8572  0.3473
 9357TIP3   OH249561   2.452   4.477  13.952 -0.2779  0.0845  0.5296
 9357TIP3    H149562   2.390   4.407  13.929 -0.6972 -0.0611  2.0550
 9357TIP3    H249563   2.402   4.557  13.939  0.1625  0.1105 -1.0974
 9358TIP3   OH249564   0.936   0.379   2.180  0.2952  0.2685 -0.1196
 9358TIP3    H149565   0.978   0.422   2.105  1.0617  0.9540  0.6911
 9358TIP3    H249566   0.853   0.347   2.145  0.7959  0.2573 -1.3589
 9359TIP3   OH249567   0.604   5.506  12.155  0.6769 -0.2958  0.2229
 9359TIP3    H149568   0.555   5.518  12.074  0.0206 -0.2959  0.6167
 9359TIP3    H249569   0.691   5.541  12.136  0.5443 -0.3618 -0.5013
 9360TIP3   OH249570   0.576   5.005  14.520 -0.3707 -0.2889  0.0110
 9360TIP3    H149571   0.647   4.964  14.471  0.1639 -0.3345  0.8249
 9360TIP3    H249572   0.496   4.967  14.483  0.0609 -0.9204 -0.2827
 9361TIP3   OH249573   3.276   2.304  13.229  0.2705 -0.5815  0.0900
 9361TIP3    H149574   3.262   2.387  13.184  0.8510 -0.2343  0.5493
 9361TIP3    H249575   3.274   2.238  13.159  2.8644  0.1091 -0.6662
 9362TIP3   OH249576   6.690   4.296  15.123 -0.6559 -0.6816 -0.0098
 9362TIP3    H149577   6.601   4.286  15.090 -2.2653 -0.7753  4.1416
 9362TIP3    H249578   6.729   4.209  15.113 -1.1000 -0.7184 -1.5533
 9363TIP3   OH249579   2.232   6.515  12.323 -0.2312 -0.3071 -0.2170
 9363TIP3    H149580   2.172   6.558  12.262 -0.3346  0.2909  0.3043
 9363TIP3    H249581   2.176   6.481  12.393 -0.0434 -0.4102 -0.1158
 9364TIP3   OH249582   0.258   6.638   3.009 -0.1934  0.1380 -1.2204
 9364TIP3    H149583   0.236   6.617   2.918 -0.0351  1.1559 -1.4929
 9364TIP3    H249584   0.353   6.654   3.008  0.0066 -0.9559 -0.6640
 9365TIP3   OH249585   1.512   2.967   1.932 -0.8388  0.1178  0.2124
 9365TIP3    H149586   1.422   2.947   1.960 -1.0567  0.2154 -0.4099
 9365TIP3    H249587   1.567   2.913   1.989 -1.3096 -0.1911  0.3805
 9366TIP3   OH249588   1.907   0.136  16.815 -0.5741  0.1812  0.2240
 9366TIP3    H149589   1.926   0.228  16.834  0.0516 -0.1578  1.3237
 9366TIP3    H249590   1.848   0.138  16.740  1.5231  1.3980 -1.4616
 9367TIP3   OH249591   0.075   3.217  11.076  0.0812  0.4618 -0.2789
 9367TIP3    H149592   0.147   3.253  11.129  0.8239  0.8084 -1.5030
 9367TIP3    H249593   0.068   3.126  11.104  0.2967  0.7012  0.5861
 9368TIP3   OH249594   0.780   4.605   5.322  0.4517 -0.3215 -0.0380
 9368TIP3    H149595   0.806   4.514   5.306  1.7777  0.7480 -4.6723
 9368TIP3    H249596   0.697   4.615   5.275 -0.8591  0.3232  2.3398
 9369TIP3   OH249597   0.308   0.362   0.716 -0.2036  0.0355  0.8738
 9369TIP3    H149598   0.266   0.304   0.653 -0.5382  0.3026  0.8538
 9369TIP3    H249599   0.361   0.421   0.662 -2.9357  2.3128  0.5991
 9370TIP3   OH249600   3.764   6.452  13.007  0.8196 -0.4265 -0.4278
 9370TIP3    H149601   3.825   6.382  13.032  1.0320 -0.2917 -0.5648
 9370TIP3    H249602   3.809   6.532  13.034 -0.3774 -0.4525  1.7306
 9371TIP3   OH249603   2.870   4.105  11.630  0.2902 -0.7557  0.3982
 9371TIP3    H149604   2.848   4.025  11.583 -1.6730  0.2035 -0.3861
 9371TIP3    H249605   2.804   4.112  11.699 -0.7908  1.1712 -0.7741
 9372TIP3   OH249606   6.104   2.478  16.520  0.1322  0.1233  0.0379
 9372TIP3    H149607   6.109   2.573  16.531  2.0962  0.3786 -2.4754
 9372TIP3    H249608   6.048   2.466  16.443  1.4601 -0.6455 -0.8194
 9373TIP3   OH249609   2.956   3.034  14.797  0.3570 -0.2015 -0.1706
 9373TIP3    H149610   2.871   3.067  14.770 -0.4340 -1.8175  0.2660
 9373TIP3    H249611   3.004   3.023  14.714 -0.0503  0.2176 -0.4648
 9374TIP3   OH249612   3.858   5.203   2.848  0.2137  0.0146 -0.4026
 9374TIP3    H149613   3.807   5.195   2.767  2.1885 -2.1661 -1.4839
 9374TIP3    H249614   3.795   5.184   2.917 -1.2467  0.8154 -1.4650
 9375TIP3   OH249615   5.287   3.148   3.642  0.1694  0.1700 -0.4923
 9375TIP3    H149616   5.218   3.101   3.688 -1.2011  0.4866 -2.2094
 9375TIP3    H249617   5.254   3.237   3.631  0.4443  0.0934 -2.1327
 9376TIP3   OH249618   1.672   1.685  14.190 -0.1754 -0.2820 -0.3461
 9376TIP3    H149619   1.623   1.767  14.187  0.4920  0.0960 -0.9245
 9376TIP3    H249620   1.650   1.640  14.109  0.0001 -0.3663 -0.3479
 9377TIP3   OH249621   6.536   3.055   1.720  0.1894  0.3574  0.5816
 9377TIP3    H149622   6.446   3.059   1.685 -0.1646 -0.1642  1.4196
 9377TIP3    H249623   6.586   3.013   1.650 -0.2710  0.4234  0.2050
 9378TIP3   OH249624   3.879   4.693   4.759  0.1781  0.3362  0.5303
 9378TIP3    H149625   3.871   4.723   4.668  0.4588 -1.0271  0.0415
 9378TIP3    H249626   3.947   4.748   4.797  1.6580 -0.5478 -0.7481
 9379TIP3   OH249627   6.447   5.111   5.048 -0.0355 -0.1675  0.0672
 9379TIP3    H149628   6.376   5.085   5.107 -2.5140  2.7912 -1.4872
 9379TIP3    H249629   6.483   5.190   5.088  1.5902 -0.9279  0.1526
 9380TIP3   OH249630   3.075   3.837   2.513  0.0454  0.0141 -0.5376
 9380TIP3    H149631   3.038   3.811   2.598  2.4313 -0.4205  0.3961
 9380TIP3    H249632   3.039   3.773   2.451 -2.0092  0.5560  0.0431
 9381TIP3   OH249633   1.234   2.393   3.704 -0.3587  0.4059 -0.2884
 9381TIP3    H149634   1.234   2.460   3.772  1.3033 -0.0255  0.1550
 9381TIP3    H249635   1.200   2.315   3.748 -1.2440  0.6623 -0.5102
 9382TIP3   OH249636   2.541   4.880   0.439  0.5153 -0.3555 -0.2432
 9382TIP3    H149637   2.626   4.902   0.478  0.4037  0.3447 -0.3995
 9382TIP3    H249638   2.539   4.926   0.356  0.0422 -0.4972 -0.3144
 9383TIP3   OH249639   4.487   4.561   2.082 -0.2487  0.1108  0.3493
 9383TIP3    H149640   4.523   4.479   2.047  1.6560  1.0190  0.1190
 9383TIP3    H249641   4.468   4.541   2.174 -1.2356 -1.0244 -0.0863
 9384TIP3   OH249642   2.649   5.578  14.309  0.0435  0.1411  0.4208
 9384TIP3    H149643   2.714   5.640  14.279  0.2160  0.3483  1.1995
 9384TIP3    H249644   2.565   5.623  14.298 -0.0159 -0.2924 -0.9943
 9385TIP3   OH249645   0.305   4.245  13.594 -0.0719  0.5457 -0.2632
 9385TIP3    H149646   0.266   4.298  13.663 -1.7177 -0.8190 -0.1076
 9385TIP3    H249647   0.230   4.211  13.544  1.0629  1.1129 -2.4369
 9386TIP3   OH249648   1.696   0.442  10.426  0.6265  0.4636 -0.3691
 9386TIP3    H149649   1.761   0.375  10.446 -1.4578 -1.4405  0.1827
 9386TIP3    H249650   1.747   0.518  10.397  3.1449 -0.5534  1.2965
 9387TIP3   OH249651   4.345   0.363  13.727 -0.0469  0.6312  0.3380
 9387TIP3    H149652   4.325   0.398  13.814 -0.0402 -0.5744  0.8453
 9387TIP3    H249653   4.259   0.344  13.689 -0.0299  0.5333  0.3473
 9388TIP3   OH249654   6.435   6.728  12.133  0.3198  0.2568  0.7252
 9388TIP3    H149655   6.354   6.778  12.142  1.0942  1.2324  2.5941
 9388TIP3    H249656   6.493   6.786  12.083  0.4730  0.3022  0.9566
 9389TIP3   OH249657   4.733   5.530  14.548  0.2804 -0.2286  0.3051
 9389TIP3    H149658   4.682   5.451  14.530  1.2985 -0.7021 -0.5251
 9389TIP3    H249659   4.819   5.498  14.574  0.5486  0.6018  0.4512
 9390TIP3   OH249660   1.052   5.501   4.646 -0.4718  0.2387 -0.1642
 9390TIP3    H149661   1.144   5.504   4.670 -0.1961 -1.5827 -0.8965
 9390TIP3    H249662   1.049   5.538   4.557 -0.6467  1.5499  0.3839
 9391TIP3   OH249663   6.477   5.032  14.314  0.6938 -0.3600 -0.5189
 9391TIP3    H149664   6.571   5.045  14.299  0.7483  0.5277  0.5612
 9391TIP3    H249665   6.436   5.062  14.233  1.2427  0.6647 -0.4217
 9392TIP3   OH249666   4.352   6.277   5.006 -0.3555 -0.4427 -0.2876
 9392TIP3    H149667   4.405   6.245   4.932  0.1694  0.7396 -0.4368
 9392TIP3    H249668   4.411   6.336   5.053 -0.0065 -2.6729  2.2380
 9393TIP3   OH249669   2.184   5.633  13.301  0.4160  0.3796  0.5297
 9393TIP3    H149670   2.269   5.654  13.342  0.3381  0.0860  0.8503
 9393TIP3    H249671   2.151   5.717  13.270  0.6505  0.5551  0.7479
 9394TIP3   OH249672   2.841   3.572  11.861 -0.1265  0.0896 -0.4265
 9394TIP3    H149673   2.832   3.658  11.821 -1.1784  0.0947 -0.1908
 9394TIP3    H249674   2.868   3.514  11.790  0.2313  0.5435 -0.6582
 9395TIP3   OH249675   1.373   1.987  12.542 -0.4149 -0.0435 -0.4444
 9395TIP3    H149676   1.414   2.016  12.624  0.1127 -3.4787  0.5750
 9395TIP3    H249677   1.446   1.958  12.488 -0.9445  0.2743 -1.3417
 9396TIP3   OH249678   1.104   4.974  11.707  0.1903  0.0422  0.8149
 9396TIP3    H149679   1.171   4.974  11.639 -0.3116 -0.7507  0.3193
 9396TIP3    H249680   1.129   4.903  11.766  0.0692  0.0720  0.9033
 9397TIP3   OH249681   0.446   3.350   5.522 -0.1312  0.0896  0.3854
 9397TIP3    H149682   0.443   3.417   5.590 -1.4013 -0.7212  1.1537
 9397TIP3    H249683   0.476   3.271   5.567 -1.2474 -0.5192  0.0716
 9398TIP3   OH249684   3.365   1.542  15.684 -0.2063  0.1119  0.6406
 9398TIP3    H149685   3.273   1.544  15.660  0.8504  1.6203 -3.8657
 9398TIP3    H249686   3.399   1.462  15.642  0.7648  0.1592  1.3168
 9399TIP3   OH249687   4.952   5.167  12.717 -0.0596  0.1168  0.2568
 9399TIP3    H149688   4.980   5.232  12.652  2.2729 -1.6829 -0.6115
 9399TIP3    H249689   4.907   5.218  12.784 -0.3318  2.3262 -1.5569
 9400TIP3   OH249690   3.353   4.923   5.293 -0.4956  0.0750  0.6693
 9400TIP3    H149691   3.345   5.018   5.289 -1.9880 -0.0330  0.6849
 9400TIP3    H249692   3.390   4.905   5.380 -2.0382  0.5618  1.4592
 9401TIP3   OH249693   4.557   3.935   5.783 -0.2639 -0.1855 -0.3102
 9401TIP3    H149694   4.626   3.900   5.726  0.6340 -0.6051  0.9993
 9401TIP3    H249695   4.601   4.005   5.832 -1.4137  1.1673 -1.1824
 9402TIP3   OH249696   0.761   1.268  12.135  0.0149  0.3510 -0.2094
 9402TIP3    H149697   0.749   1.332  12.065  0.3600  1.0399  0.3657
 9402TIP3    H249698   0.710   1.302  12.208 -0.0837 -0.2075 -0.0138
 9403TIP3   OH249699   3.572   2.044   4.170 -0.1538 -0.0751 -0.2208
 9403TIP3    H149700   3.659   2.020   4.201  0.5572  1.0533 -1.2571
 9403TIP3    H249701   3.512   2.012   4.237  0.9474 -2.1415 -0.1941
 9404TIP3   OH249702   1.258   3.102   4.209  0.5170 -0.3734 -0.7423
 9404TIP3    H149703   1.216   3.069   4.129  0.8959 -1.7740 -0.3784
 9404TIP3    H249704   1.313   3.030   4.239  1.0991  0.4792  0.2748
 9405TIP3   OH249705   5.049   2.490  16.587 -0.1542  0.1110  0.2754
 9405TIP3    H149706   5.002   2.419  16.543  0.0917  0.3242 -0.3258
 9405TIP3    H249707   5.013   2.570  16.549  0.6895  0.2755 -0.1817
 9406TIP3   OH249708   1.120   2.319  13.268  0.1085 -0.3979 -0.3054
 9406TIP3    H149709   1.116   2.234  13.312 -0.1424  0.7285  1.9417
 9406TIP3    H249710   1.038   2.323  13.218 -0.7025 -0.7899  0.9438
 9407TIP3   OH249711   6.699   4.646  12.498 -0.7062 -0.0511  1.2277
 9407TIP3    H149712   6.673   4.670  12.409  1.2464  0.3464  0.7494
 9407TIP3    H249713   6.616   4.637  12.546 -1.7990 -0.9977 -0.7988
 9408TIP3   OH249714   2.323   6.500   3.765 -0.9785 -0.5922 -0.1505
 9408TIP3    H149715   2.228   6.485   3.763 -0.7715 -2.2908  0.9742
 9408TIP3    H249716   2.350   6.462   3.849  0.7304 -0.3192 -0.5767
 9409TIP3   OH249717   3.095   6.678   1.164  0.2663  0.4308  0.4104
 9409TIP3    H149718   3.188   6.673   1.141  0.2294  3.3517 -0.6528
 9409TIP3    H249719   3.066   6.587   1.166  2.9098 -0.4845 -0.2721
 9410TIP3   OH249720   2.446   1.267  10.790 -0.0755  0.3662  0.0867
 9410TIP3    H149721   2.367   1.301  10.748 -1.3234  1.1987  3.0154
 9410TIP3    H249722   2.414   1.208  10.859  1.8937 -0.3156  0.4758
 9411TIP3   OH249723   0.971   3.390   4.977 -0.2629 -0.2154 -0.7555
 9411TIP3    H149724   1.015   3.384   4.892 -1.6667  0.2539 -1.5363
 9411TIP3    H249725   0.931   3.476   4.978 -2.0222 -1.0138 -0.5052
 9412TIP3   OH249726   6.193   2.008   5.689 -0.3100 -0.8796 -0.6456
 9412TIP3    H149727   6.206   1.987   5.781  0.8950 -2.0037 -1.0642
 9412TIP3    H249728   6.140   2.088   5.690 -0.7001 -1.1452  1.0078
 9413TIP3   OH249729   6.617   2.327   0.868  0.1139  0.4979  0.0186
 9413TIP3    H149730   6.691   2.288   0.821  0.4048  1.7926 -0.6128
 9413TIP3    H249731   6.648   2.413   0.896 -0.7740  0.5954  0.7534
 9414TIP3   OH249732   0.152   0.216  15.410 -0.2859 -0.3012  0.4451
 9414TIP3    H149733   0.182   0.290  15.463 -1.5544 -0.2353  1.0896
 9414TIP3    H249734   0.224   0.152  15.414  0.5001  0.5820  0.4948
 9415TIP3   OH249735   5.224   5.157  17.158 -0.6346  0.6504  0.0880
 9415TIP3    H149736   5.292   5.094  17.133 -0.6229  1.1491 -1.1521
 9415TIP3    H249737   5.218   5.148  17.253 -0.0826 -0.6686  0.0168
 9416TIP3   OH249738   5.831   4.507   4.060  0.0861 -0.2910  0.2893
 9416TIP3    H149739   5.866   4.462   4.137  0.1777 -0.5912  0.0728
 9416TIP3    H249740   5.845   4.446   3.988 -0.3938 -0.1894  0.1075
 9417TIP3   OH249741   3.587   2.344   4.851  0.2457 -1.1614  0.4142
 9417TIP3    H149742   3.558   2.366   4.762  0.4459  1.1719  0.8928
 9417TIP3    H249743   3.660   2.283   4.837 -1.7727 -3.3557 -0.9038
 9418TIP3   OH249744   1.974   0.767   0.136 -0.5335  0.2296  0.1107
 9418TIP3    H149745   1.979   0.809   0.222 -1.1807  1.1666 -0.2873
 9418TIP3    H249746   1.884   0.785   0.106 -0.0809  0.5793 -1.0821
 9419TIP3   OH249747   0.855   0.211   0.768  0.4907  0.0473  0.0100
 9419TIP3    H149748   0.769   0.248   0.749  0.6385  1.0644  1.2320
 9419TIP3    H249749   0.838   0.145   0.836  0.5149 -0.6679 -0.6662
 9420TIP3   OH249750   6.104   2.024  14.922  0.4663  0.5552  0.3749
 9420TIP3    H149751   6.108   1.929  14.935 -1.1556  0.6135  1.4653
 9420TIP3    H249752   6.030   2.052  14.976  0.0796  2.2592 -1.0125
 9421TIP3   OH249753   1.705   6.686   0.501 -0.4573  0.0949  0.3066
 9421TIP3    H149754   1.627   6.633   0.493 -1.3386  1.6316 -1.6286
 9421TIP3    H249755   1.673   6.772   0.531  0.7014  0.1890  1.3424
 9422TIP3   OH249756   2.249   3.426   0.890  0.1543 -0.1537  0.4529
 9422TIP3    H149757   2.161   3.463   0.892  1.3764  2.9001  0.0626
 9422TIP3    H249758   2.289   3.463   0.811  2.2613 -0.4184  1.3651
 9423TIP3   OH249759   1.765   1.272  13.663 -0.5387  0.1626  0.1494
 9423TIP3    H149760   1.861   1.263  13.663 -0.5747 -0.1987  0.0026
 9423TIP3    H249761   1.750   1.356  13.619 -0.2798  0.3184  0.3497
 9424TIP3   OH249762   3.145   1.601  14.533  0.6534  0.2701  0.4773
 9424TIP3    H149763   3.057   1.634  14.554  0.8169  0.3283  1.0800
 9424TIP3    H249764   3.176   1.562  14.615  1.0748 -0.0078  0.1851
 9425TIP3   OH249765   4.586   1.579   2.310  0.7206 -0.6065  0.0375
 9425TIP3    H149766   4.585   1.516   2.383  1.3407  0.3692  0.9043
 9425TIP3    H249767   4.495   1.605   2.300  0.9999  1.4938  2.4561
 9426TIP3   OH249768   2.398   6.543  15.683  0.0326  0.1882 -0.6270
 9426TIP3    H149769   2.338   6.472  15.707 -1.0467  1.1367 -0.4510
 9426TIP3    H249770   2.393   6.548  15.587 -1.2589  1.1547 -0.5370
 9427TIP3   OH249771   1.432   4.406   4.273 -0.3492 -0.2626 -0.0898
 9427TIP3    H149772   1.400   4.463   4.343  0.2325  0.3292 -0.3021
 9427TIP3    H249773   1.525   4.424   4.267 -0.4554 -0.0094 -1.2896
 9428TIP3   OH249774   1.646   5.769  14.899  0.1805  0.2976  0.3444
 9428TIP3    H149775   1.680   5.858  14.910 -1.5471  1.3147 -2.2157
 9428TIP3    H249776   1.554   5.775  14.924  0.0532 -0.7701  0.1545
 9429TIP3   OH249777   5.680   2.031   5.388  0.1794 -0.7605  0.5492
 9429TIP3    H149778   5.686   1.952   5.442  1.2780 -2.0133 -1.3433
 9429TIP3    H249779   5.607   2.080   5.426  1.3747 -1.2322  3.5994
 9430TIP3   OH249780   6.442   3.521  13.014 -0.1199  0.0815  0.2184
 9430TIP3    H149781   6.457   3.427  13.022 -3.7456 -0.4602  1.3737
 9430TIP3    H249782   6.458   3.555  13.102 -1.9079  0.0391  0.5731
 9431TIP3   OH249783   3.771   6.266   0.536  0.2818  0.6526 -0.7804
 9431TIP3    H149784   3.752   6.338   0.476 -0.1586  1.3398  0.1572
 9431TIP3    H249785   3.782   6.309   0.621  0.0733 -0.3862 -0.2242
 9432TIP3   OH249786   5.319   6.000  13.959  0.2699 -0.1460  0.9277
 9432TIP3    H149787   5.383   6.066  13.933  1.1197 -0.5915  1.8098
 9432TIP3    H249788   5.260   5.991  13.884 -0.1515  1.9575  0.9967
 9433TIP3   OH249789   4.780   4.835  14.791  0.0639 -0.2218 -0.6638
 9433TIP3    H149790   4.844   4.763  14.794  0.6409  0.2708 -1.0178
 9433TIP3    H249791   4.711   4.803  14.733 -1.2175 -1.7313  1.6388
 9434TIP3   OH249792   4.153   5.714   4.245 -0.4310 -0.2667  0.2743
 9434TIP3    H149793   4.196   5.799   4.256  0.2258 -0.7784  1.7220
 9434TIP3    H249794   4.095   5.706   4.320  0.3956 -1.6216  0.7761
 9435TIP3   OH249795   2.707   1.938   6.045 -0.3484 -0.3507  0.5193
 9435TIP3    H149796   2.634   1.893   6.004  0.2056 -1.6816  0.9565
 9435TIP3    H249797   2.783   1.884   6.024  0.3754  0.5517  0.7949
 9436TIP3   OH249798   5.588   3.241  13.590 -0.5325  0.5663  0.1364
 9436TIP3    H149799   5.526   3.263  13.658  0.0021  1.3011  0.3968
 9436TIP3    H249800   5.606   3.324  13.546  2.7031  1.0202  2.1350
 9437TIP3   OH249801   4.246   1.554   5.101  0.1131  0.0185  0.2209
 9437TIP3    H149802   4.195   1.474   5.113  0.0719 -0.1312 -0.8960
 9437TIP3    H249803   4.326   1.524   5.057 -0.0454  0.6312 -0.4919
 9438TIP3   OH249804   0.686   4.738  12.525  0.5469 -0.1871 -0.1194
 9438TIP3    H149805   0.775   4.703  12.529 -0.3037 -2.5587 -1.0711
 9438TIP3    H249806   0.636   4.669  12.481 -1.2550  2.1490 -1.8289
 9439TIP3   OH249807   4.736   5.859   2.489  0.2829  0.0349 -0.0662
 9439TIP3    H149808   4.701   5.775   2.459 -0.1376  0.4580 -0.7963
 9439TIP3    H249809   4.815   5.837   2.537 -0.6969 -0.9057  1.1455
 9440TIP3   OH249810   4.850   6.771  10.774  0.3319  0.0329  0.8756
 9440TIP3    H149811   4.795   6.764  10.853  1.6699 -0.7386  1.7653
 9440TIP3    H249812   4.806   6.717  10.709 -1.0733  1.0980  0.9087
 9441TIP3   OH249813   5.770   2.298   4.926  0.3698  0.4285 -0.0964
 9441TIP3    H149814   5.857   2.337   4.914  1.1008 -0.7863  0.9723
 9441TIP3    H249815   5.725   2.358   4.985  1.3031 -0.0226  1.1248
 9442TIP3   OH249816   1.306   4.041   3.749  0.2362 -0.0209  0.1437
 9442TIP3    H149817   1.275   4.018   3.836  1.7830 -1.3672  0.3593
 9442TIP3    H249818   1.378   4.102   3.764 -1.0309  1.6124 -0.2878
 9443TIP3   OH249819   0.175   4.699  16.846  0.9847  0.1437  0.2987
 9443TIP3    H149820   0.112   4.639  16.887 -0.2695  0.0081 -1.7578
 9443TIP3    H249821   0.168   4.780  16.898 -0.5536 -0.0294  0.3946
 9444TIP3   OH249822   0.567   1.324  14.851  0.6504 -0.0785  0.4752
 9444TIP3    H149823   0.506   1.268  14.804  1.3957 -1.0838  0.6868
 9444TIP3    H249824   0.592   1.391  14.787 -0.9752  0.5791  0.5166
 9445TIP3   OH249825   3.811   2.892  13.325 -0.2596 -0.1816  0.2380
 9445TIP3    H149826   3.751   2.960  13.357 -3.1939 -2.3923 -0.3636
 9445TIP3    H249827   3.800   2.820  13.387  2.5046 -0.3243  0.6156
 9446TIP3   OH249828   0.102   3.691   3.233  0.0033 -0.1270 -0.5571
 9446TIP3    H149829   0.104   3.600   3.202 -0.6826 -0.2930 -0.1261
 9446TIP3    H249830   0.013   3.703   3.266  0.4608  0.3151  0.5375
 9447TIP3   OH249831   2.008   3.231  16.387 -0.0844  0.0414  0.2160
 9447TIP3    H149832   1.961   3.311  16.411 -1.5095 -0.3213 -1.3291
 9447TIP3    H249833   1.949   3.160  16.412  1.3281 -0.5830  1.9265
 9448TIP3   OH249834   5.882   5.717  11.605 -0.4676  0.0056 -0.1235
 9448TIP3    H149835   5.965   5.722  11.653 -0.7842 -0.8554  0.5020
 9448TIP3    H249836   5.840   5.638  11.637 -1.5979  0.5088 -0.3510
 9449TIP3   OH249837   2.056   3.311  16.002 -0.1981  0.1106  0.0535
 9449TIP3    H149838   2.125   3.278  16.059  0.8722 -1.5666 -2.1545
 9449TIP3    H249839   1.975   3.284  16.045  0.6119 -2.2735  0.1547
 9450TIP3   OH249840   3.967   2.143  12.216 -0.0276  0.2449 -0.2442
 9450TIP3    H149841   4.020   2.205  12.167  1.1032 -0.5327 -0.0074
 9450TIP3    H249842   3.917   2.096  12.149 -0.3828  0.9366 -0.4689
 9451TIP3   OH249843   2.880   1.653   0.920 -0.1285 -0.1326 -0.1814
 9451TIP3    H149844   2.919   1.567   0.938  0.6989  0.1961 -0.3580
 9451TIP3    H249845   2.804   1.633   0.865 -0.2164 -0.7908  0.1714
 9452TIP3   OH249846   3.580   6.064  16.815 -0.4449 -0.1582  0.0856
 9452TIP3    H149847   3.675   6.048  16.814 -0.4555 -0.2274 -1.5672
 9452TIP3    H249848   3.563   6.111  16.734 -1.7162  0.6160  0.7920
 9453TIP3   OH249849   3.341   3.556  14.671 -0.0563 -0.0975 -0.0203
 9453TIP3    H149850   3.401   3.631  14.671 -0.4976  0.2860 -1.3901
 9453TIP3    H249851   3.351   3.516  14.757  2.0291  0.0623 -0.1789
 9454TIP3   OH249852   5.252   1.185   4.128  0.3175 -0.3509  0.2634
 9454TIP3    H149853   5.332   1.176   4.180 -0.3056 -0.4200  1.2333
 9454TIP3    H249854   5.249   1.277   4.103 -0.1765  0.0394  1.6941
 9455TIP3   OH249855   4.431   5.595  11.546  0.3173 -0.0238 -0.0850
 9455TIP3    H149856   4.478   5.519  11.512 -1.2785 -0.6776 -0.8581
 9455TIP3    H249857   4.364   5.613  11.481 -1.8046 -0.3349  1.9239
 9456TIP3   OH249858   0.473   4.429   5.959  0.4668  0.0433 -0.2067
 9456TIP3    H149859   0.567   4.443   5.947  0.1516  1.2732 -1.3428
 9456TIP3    H249860   0.451   4.478   6.038  0.5616  0.7316 -0.6071
 9457TIP3   OH249861   4.271   1.006   1.777  0.2003  0.0281  0.2254
 9457TIP3    H149862   4.304   1.055   1.852  1.0463 -1.8444  1.0938
 9457TIP3    H249863   4.342   0.948   1.753 -1.6502 -2.5689  0.7900
 9458TIP3   OH249864   1.621   0.646  16.966 -0.0947  0.0634  0.4841
 9458TIP3    H149865   1.615   0.740  16.984 -1.6266  0.2736 -1.0434
 9458TIP3    H249866   1.559   0.631  16.894  1.2736 -1.8389 -0.3333
 9459TIP3   OH249867   3.712   3.902   4.734 -0.3625  0.1421  0.1549
 9459TIP3    H149868   3.657   3.855   4.672  0.9042 -1.8673  0.5352
 9459TIP3    H249869   3.746   3.977   4.684 -1.6820  0.1828 -0.7019
 9460TIP3   OH249870   4.216   5.277  13.255  0.1016  0.5446 -0.2435
 9460TIP3    H149871   4.178   5.216  13.317  0.2227 -1.7130 -2.3241
 9460TIP3    H249872   4.198   5.364  13.292 -3.0243 -0.6159  1.0720
 9461TIP3   OH249873   3.609   1.230   2.614  0.1617  0.4275  0.8315
 9461TIP3    H149874   3.659   1.263   2.689 -0.2064  1.7865  0.4940
 9461TIP3    H249875   3.645   1.143   2.597 -0.0225 -0.0631  2.8362
 9462TIP3   OH249876   2.643   3.172   3.404  0.2503  0.1248  0.3870
 9462TIP3    H149877   2.589   3.240   3.364  0.4461 -0.0063 -0.1139
 9462TIP3    H249878   2.581   3.104   3.429  0.2033 -0.1382 -0.4219
 9463TIP3   OH249879   3.180   1.212  13.338 -0.2755 -0.3365  0.0157
 9463TIP3    H149880   3.156   1.285  13.280 -0.5839 -0.2775  0.2154
 9463TIP3    H249881   3.275   1.206  13.330 -0.3478 -0.5674 -0.7781
 9464TIP3   OH249882   6.483   5.142  16.518  0.6490  0.5514  0.7530
 9464TIP3    H149883   6.465   5.159  16.610  0.1292  1.5550  0.4750
 9464TIP3    H249884   6.403   5.101  16.485  0.0915  2.0083  0.2852
 9465TIP3   OH249885   0.700   1.828   2.251  0.6031  0.1450 -0.8157
 9465TIP3    H149886   0.739   1.776   2.321 -0.4616 -0.2381 -0.4968
 9465TIP3    H249887   0.655   1.764   2.196  0.8310  0.5243 -1.4529
 9466TIP3   OH249888   6.393   0.027   5.215  0.3809  0.1431 -0.5028
 9466TIP3    H149889   6.419   0.093   5.279  1.0073  0.1697 -0.7847
 9466TIP3    H249890   6.324   0.070   5.164  0.6169  0.4962 -0.5292
 9467TIP3   OH249891   6.238   2.000   3.675  0.1407 -0.1839 -0.1341
 9467TIP3    H149892   6.174   1.928   3.671  0.2399 -0.1978 -1.8902
 9467TIP3    H249893   6.283   1.996   3.590  1.1133  1.0705  0.3218
 9468TIP3   OH249894   5.329   1.498  11.072  0.0019  0.0183 -0.1426
 9468TIP3    H149895   5.421   1.521  11.055  0.3197 -1.0325  0.1045
 9468TIP3    H249896   5.283   1.524  10.992  0.5900  0.1345 -0.4450
 9469TIP3   OH249897   3.965   3.882   3.505 -0.3496 -0.1439  0.0342
 9469TIP3    H149898   4.052   3.864   3.469 -1.0204 -2.8528 -0.3630
 9469TIP3    H249899   3.906   3.872   3.430 -1.2236 -0.5941  0.7687
 9470TIP3   OH249900   6.670   3.646  14.343  0.5292  0.4778 -0.4597
 9470TIP3    H149901   6.620   3.596  14.407  2.4306  0.1379  0.8062
 9470TIP3    H249902   6.609   3.663  14.272 -1.2768 -0.1723  0.9175
 9471TIP3   OH249903   3.752   0.685  11.564  0.1218  0.2744  0.2900
 9471TIP3    H149904   3.717   0.663  11.650 -0.4132 -1.4775 -0.3291
 9471TIP3    H249905   3.838   0.643  11.562 -0.2480 -0.4691 -0.3454
 9472TIP3   OH249906   3.875   6.548   5.740  0.3579  0.5767 -0.8517
 9472TIP3    H149907   3.937   6.617   5.760 -0.0335  0.8883 -0.7030
 9472TIP3    H249908   3.811   6.589   5.682  0.3497  0.2296 -1.0902
 9473TIP3   OH249909   2.630   2.104   0.033 -0.2323  0.5755 -0.7063
 9473TIP3    H149910   2.592   2.148   0.109  2.4980 -1.0104  1.6987
 9473TIP3    H249911   2.686   2.170  -0.008  1.1959  0.4344  0.9145
 9474TIP3   OH249912   0.436   2.087  11.970 -0.8059 -0.7036  0.4246
 9474TIP3    H149913   0.376   2.058  12.039 -0.5293  0.0412  0.9883
 9474TIP3    H249914   0.518   2.106  12.016 -1.4438  2.5477  0.3900
 9475TIP3   OH249915   0.675   0.390   2.460  0.0867  0.2009  0.0637
 9475TIP3    H149916   0.740   0.354   2.521 -0.0022  0.7583  0.4889
 9475TIP3    H249917   0.725   0.452   2.406 -0.2002  1.0361  0.7507
 9476TIP3   OH249918   1.722   5.119  12.280  0.2454 -0.4958  0.0288
 9476TIP3    H149919   1.665   5.090  12.351  1.0654  0.1809  0.9876
 9476TIP3    H249920   1.804   5.144  12.324  0.2372  1.3837 -0.9656
 9477TIP3   OH249921   4.738   5.512  14.881  0.6417 -0.3421  0.3023
 9477TIP3    H149922   4.729   5.554  14.795 -0.5972 -0.3829  0.3975
 9477TIP3    H249923   4.681   5.435  14.876 -0.2305  0.2053  1.4973
 9478TIP3   OH249924   3.016   6.171   5.742 -0.2205 -0.1233 -0.8847
 9478TIP3    H149925   3.044   6.217   5.822 -0.1430 -2.0642  0.2573
 9478TIP3    H249926   2.985   6.240   5.684 -0.2376  1.3533  0.8173
 9479TIP3   OH249927   4.517   1.841  15.760 -0.0134  0.2926 -0.1848
 9479TIP3    H149928   4.551   1.923  15.724  0.7006  0.2274  0.3430
 9479TIP3    H249929   4.553   1.773  15.703  0.1040  0.2822 -0.0995
 9480TIP3   OH249930   6.668   2.995   0.971  0.3778  0.1199  0.2303
 9480TIP3    H149931   6.592   3.014   0.916  0.2069  0.8834  0.7277
 9480TIP3    H249932   6.651   2.908   1.006  0.2101 -0.1287 -0.4584
 9481TIP3   OH249933   5.724   1.522   3.714  1.0425  0.6749  0.1319
 9481TIP3    H149934   5.658   1.453   3.702  0.2847  1.5255 -0.6948
 9481TIP3    H249935   5.724   1.538   3.808  0.7857 -0.0298  0.2584
 9482TIP3   OH249936   6.420   6.420   1.801  0.4094 -0.0517 -0.0738
 9482TIP3    H149937   6.488   6.395   1.740  0.4978  2.2523 -0.9946
 9482TIP3    H249938   6.362   6.344   1.806  1.2927 -0.8580 -1.7669
 9483TIP3   OH249939   0.782   1.254  15.923  0.0467 -0.1909 -0.2061
 9483TIP3    H149940   0.732   1.287  15.849  0.3781  0.3275 -0.2054
 9483TIP3    H249941   0.843   1.191  15.885 -1.9073 -2.3010  0.0487
 9484TIP3   OH249942   0.998   5.573  12.076  0.7841 -0.0033 -0.5357
 9484TIP3    H149943   1.019   5.492  12.123  0.3611 -0.4709 -1.1515
 9484TIP3    H249944   0.978   5.545  11.987 -0.2417  0.6803 -0.5285
 9485TIP3   OH249945   4.811   4.302  12.241 -0.0030  0.4160 -0.6530
 9485TIP3    H149946   4.869   4.333  12.311  0.0092 -2.0086  0.4335
 9485TIP3    H249947   4.763   4.381  12.215  0.8041  1.6083  1.2772
 9486TIP3   OH249948   6.527   5.634  16.772  0.0237 -0.1762 -0.1610
 9486TIP3    H149949   6.610   5.608  16.812  0.0172 -1.3755 -0.8896
 9486TIP3    H249950   6.543   5.629  16.678 -1.1276 -1.3626 -0.3245
 9487TIP3   OH249951   4.499   0.269  16.653 -0.0178 -0.5453 -0.3050
 9487TIP3    H149952   4.421   0.301  16.607  0.6851  1.7969  0.0648
 9487TIP3    H249953   4.474   0.268  16.745 -0.1882 -1.5599 -0.3582
 9488TIP3   OH249954   3.015   4.073   1.611 -0.0130 -0.0404  0.0729
 9488TIP3    H149955   2.938   4.110   1.653  0.6358  0.3928  0.9086
 9488TIP3    H249956   3.060   4.025   1.681  2.3004  2.6036  0.5084
 9489TIP3   OH249957   2.055   1.462  10.877 -0.1219 -0.8365 -0.2737
 9489TIP3    H149958   2.024   1.552  10.875  0.7429 -0.5345 -0.7350
 9489TIP3    H249959   2.002   1.419  10.944 -0.8603 -0.1052 -0.3835
 9490TIP3   OH249960   3.857   4.996   2.251 -0.1224  0.2471 -0.2656
 9490TIP3    H149961   3.917   5.069   2.232 -0.4405  1.3022  2.4864
 9490TIP3    H249962   3.868   4.981   2.345 -1.8956 -1.6334 -0.3417
 9491TIP3   OH249963   4.312   0.613  16.378 -0.3796 -0.1795 -0.1357
 9491TIP3    H149964   4.355   0.694  16.404 -2.7329  0.8709  0.6386
 9491TIP3    H249965   4.320   0.611  16.283 -1.8582  1.9075 -0.3336
 9492TIP3   OH249966   1.242   1.478  11.185 -0.1194  0.2921 -0.1807
 9492TIP3    H149967   1.221   1.388  11.209  0.4742 -0.0593 -0.9680
 9492TIP3    H249968   1.332   1.474  11.154 -0.8148  0.7575 -2.3045
 9493TIP3   OH249969   1.630   6.001   4.229  0.0129 -0.0532 -0.3211
 9493TIP3    H149970   1.651   6.076   4.173  0.3741 -0.7915 -1.1921
 9493TIP3    H249971   1.584   5.940   4.172 -0.4163 -0.4319  0.4219
 9494TIP3   OH249972   1.560   6.703  16.918 -0.3035 -0.3973 -0.8425
 9494TIP3    H149973   1.466   6.696  16.902 -0.1441  1.5157 -2.8948
 9494TIP3    H249974   1.581   6.794  16.897  1.6640 -0.2514  1.6067
 9495TIP3   OH249975   6.085   5.077  13.545 -0.6623  0.4296  0.3641
 9495TIP3    H149976   6.108   4.984  13.541 -0.8910  0.3545  0.8188
 9495TIP3    H249977   6.153   5.115  13.601 -0.2408  0.6384 -0.2867
 9496TIP3   OH249978   4.372   2.763   1.706  0.2377  0.4255  0.5777
 9496TIP3    H149979   4.393   2.848   1.744  2.7403  1.0983 -2.1599
 9496TIP3    H249980   4.403   2.699   1.771  3.2655  1.5555  0.3129
 9497TIP3   OH249981   3.392   1.681   1.473  0.2576 -0.2493 -1.2097
 9497TIP3    H149982   3.303   1.714   1.485  0.5185  0.5085 -1.3238
 9497TIP3    H249983   3.382   1.586   1.463 -0.6670 -0.0177 -2.6304
 9498TIP3   OH249984   3.440   4.139   4.234 -0.3968 -0.0583 -0.3554
 9498TIP3    H149985   3.532   4.140   4.208 -0.6163  2.2255 -1.1492
 9498TIP3    H249986   3.424   4.227   4.270 -1.3916 -1.5107  3.0133
 9499TIP3   OH249987   3.565   3.256  15.793  0.2420  0.4583 -0.3387
 9499TIP3    H149988   3.533   3.189  15.734 -2.5620  1.0025  0.5178
 9499TIP3    H249989   3.552   3.338  15.746  0.1359  0.7069  0.1244
 9500TIP3   OH249990   4.040   4.694   5.127 -0.1858  0.1706  0.1584
 9500TIP3    H149991   4.079   4.627   5.184  0.5339  0.9134  0.5457
 9500TIP3    H249992   4.096   4.770   5.138 -2.2000  1.5352  1.3903
 9501TIP3   OH249993   6.084   3.435  11.075  0.4929  0.8823 -0.5020
 9501TIP3    H149994   6.002   3.394  11.103 -0.7809  2.2564 -2.1276
 9501TIP3    H249995   6.105   3.393  10.992  0.8331  1.3258 -0.6444
 9502TIP3   OH249996   4.688   3.011  10.605 -0.4123  0.4822 -0.7010
 9502TIP3    H149997   4.599   3.040  10.622 -0.5085 -0.7500  1.0731
 9502TIP3    H249998   4.740   3.091  10.600 -1.0568  1.0867  1.6956
 9503TIP3   OH249999   2.170   6.422  16.915  0.8345  0.5849 -0.1961
 9503TIP3    H150000   2.191   6.382  16.830  0.4606  0.3281 -0.1731
 9503TIP3    H250001   2.077   6.441  16.909  0.5389 -0.5411  0.5985
 9504TIP3   OH250002   4.348   0.184   5.030  0.3516  0.2076 -0.4309
 9504TIP3    H150003   4.426   0.137   5.059  0.4394  1.4175  1.3570
 9504TIP3    H250004   4.369   0.212   4.941  2.0650  0.7115  0.1135
 9505TIP3   OH250005   6.127   4.382  14.304  0.0106 -0.7228 -0.1285
 9505TIP3    H150006   6.116   4.460  14.250  0.2514 -2.0247 -2.1283
 9505TIP3    H250007   6.039   4.346  14.313 -1.1183  2.8845  5.8098
 9506TIP3   OH250008   2.240   5.676   6.108  0.3079 -0.3878 -0.2065
 9506TIP3    H150009   2.257   5.651   6.017  2.1694 -0.2474  0.0845
 9506TIP3    H250010   2.156   5.634   6.129 -0.2607 -0.2276 -2.0449
 9507TIP3   OH250011   2.445   1.892  14.458 -0.2628 -0.5947  0.2198
 9507TIP3    H150012   2.482   1.803  14.457 -2.0346 -1.3431 -1.7717
 9507TIP3    H250013   2.485   1.935  14.382 -0.4286 -0.1186  0.4015
 9508TIP3   OH250014   3.816   3.457  12.998 -0.1511 -0.6517  0.1222
 9508TIP3    H150015   3.762   3.455  13.077 -0.1564 -0.2333  0.1308
 9508TIP3    H250016   3.892   3.403  13.019  0.8467  1.1324  1.1358
 9509TIP3   OH250017   0.860   1.200  16.192 -0.2377 -0.9409  0.2372
 9509TIP3    H150018   0.856   1.203  16.097  0.9804  1.1593  0.2112
 9509TIP3    H250019   0.948   1.233  16.213 -1.4083  1.1005  2.1387
 9510TIP3   OH250020   5.917   6.128  13.263  0.6131  0.1226  0.0807
 9510TIP3    H150021   5.923   6.077  13.182  0.3377 -1.7619  1.2151
 9510TIP3    H250022   5.943   6.216  13.238  3.4494 -1.0836 -1.4427
 9511TIP3   OH250023   1.501   4.553  16.898  0.6484  0.1711 -0.2852
 9511TIP3    H150024   1.431   4.611  16.930 -0.7326 -1.0925 -0.9405
 9511TIP3    H250025   1.536   4.597  16.821 -0.0443  0.3895 -0.4781
 9512TIP3   OH250026   4.639   4.932   0.725  0.2948 -0.2633  0.5912
 9512TIP3    H150027   4.614   4.992   0.796  2.1916  0.3425  0.7764
 9512TIP3    H250028   4.682   4.988   0.660 -0.0499 -1.0575 -0.3232
 9513TIP3   OH250029   2.066   3.515   2.502  0.1194 -0.0805 -0.5156
 9513TIP3    H150030   2.123   3.452   2.458 -0.7173 -0.2721 -1.3560
 9513TIP3    H250031   2.090   3.509   2.594  0.4275 -1.2204 -0.6585
 9514TIP3   OH250032   2.151   1.005  13.297 -0.5031 -0.2162 -0.4427
 9514TIP3    H150033   2.142   1.093  13.333  0.9396  1.3571 -3.7099
 9514TIP3    H250034   2.241   0.980  13.316 -0.3487 -0.2030 -1.1248
 9515TIP3   OH250035   4.815   1.305   1.292  0.3017 -0.4190 -0.4187
 9515TIP3    H150036   4.892   1.338   1.338 -0.2711 -0.1512  0.3498
 9515TIP3    H250037   4.741   1.331   1.347 -0.3373 -0.6789 -1.1528
 9516TIP3   OH250038   4.123   1.444  15.637  0.0254  0.3495  0.3979
 9516TIP3    H150039   4.071   1.414  15.712  0.9982 -0.0018  0.9386
 9516TIP3    H250040   4.209   1.466  15.675  0.7797 -0.5876 -0.7379
 9517TIP3   OH250041   3.311   3.253  15.383 -0.6336  0.4058 -0.4039
 9517TIP3    H150042   3.255   3.179  15.359  0.4235 -0.5775  0.1288
 9517TIP3    H250043   3.282   3.325  15.327 -1.7394 -0.3774 -0.8494
 9518TIP3   OH250044   5.864   6.457   3.408  0.0226 -0.2605 -0.1197
 9518TIP3    H150045   5.798   6.389   3.420  0.6562 -0.5681  1.8940
 9518TIP3    H250046   5.844   6.495   3.323 -1.4138 -1.7934 -0.5040
 9519TIP3   OH250047   4.249   4.453  17.015  0.4688 -0.1215 -0.0542
 9519TIP3    H150048   4.224   4.457  17.107 -2.1898  1.0078 -0.7810
 9519TIP3    H250049   4.272   4.361  17.000  0.7316 -0.3412  1.6814
 9520TIP3   OH250050   3.292   0.333  11.489  0.1797  0.4137 -0.5472
 9520TIP3    H150051   3.211   0.281  11.495  0.0395  0.5139 -1.4624
 9520TIP3    H250052   3.272   0.400  11.423  0.4635  1.4557  0.4134
 9521TIP3   OH250053   0.939   6.469   0.573 -0.6418  0.8397 -0.2261
 9521TIP3    H150054   0.866   6.413   0.603 -1.7648  1.2407 -2.1438
 9521TIP3    H250055   0.996   6.409   0.524 -0.4836  0.8445 -0.0481
 9522TIP3   OH250056   0.524   4.822  13.372 -0.2944 -0.7564  0.8586
 9522TIP3    H150057   0.457   4.855  13.312  2.1392  3.4353  0.1921
 9522TIP3    H250058   0.573   4.759  13.321 -2.4578 -2.4148  0.7448
 9523TIP3   OH250059   3.673   5.833  13.040  0.0768  0.4982 -0.1732
 9523TIP3    H150060   3.660   5.751  13.089  1.2810  0.9017  0.8673
 9523TIP3    H250061   3.670   5.807  12.948  0.0368 -0.6649  0.1488
 9524TIP3   OH250062   0.906   5.199  16.049  0.0994 -0.0707 -0.5050
 9524TIP3    H150063   0.844   5.215  16.121  2.0700  1.4005  0.9037
 9524TIP3    H250064   0.854   5.212  15.970 -1.6842 -0.0158  0.6430
 9525TIP3   OH250065   6.697   0.676  15.034  0.0489  0.0721 -1.0359
 9525TIP3    H150066   6.735   0.594  15.066  0.0963  0.5412  0.1404
 9525TIP3    H250067   6.767   0.740  15.046 -0.6637  0.6795 -0.0680
 9526TIP3   OH250068   0.690   4.845   3.265  0.3025 -0.5373 -0.2527
 9526TIP3    H150069   0.765   4.881   3.313  0.3887 -0.4699 -0.4360
 9526TIP3    H250070   0.712   4.859   3.173  0.2308 -0.8550 -0.3164
 9527TIP3   OH250071   6.499   1.473  16.148  0.0950 -0.1308 -0.4610
 9527TIP3    H150072   6.517   1.379  16.144 -0.2050 -0.3791  2.5531
 9527TIP3    H250073   6.585   1.514  16.148  0.2582 -0.4688 -0.5072
 9528TIP3   OH250074   4.309   3.380   2.955  0.7105 -0.4362 -0.1490
 9528TIP3    H150075   4.335   3.374   3.047  1.8443 -0.3687 -0.4553
 9528TIP3    H250076   4.384   3.345   2.907  2.5161  4.6039 -1.3327
 9529TIP3   OH250077   1.572   3.759  16.211 -0.0240  0.2856 -0.6326
 9529TIP3    H150078   1.653   3.760  16.262  0.4456 -1.7506 -1.2848
 9529TIP3    H250079   1.599   3.787  16.123  0.1519 -1.2133 -1.0683
 9530TIP3   OH250080   2.511   4.595   0.456 -0.0241 -0.2758  0.3324
 9530TIP3    H150081   2.488   4.687   0.443  1.1516 -0.1410 -0.8826
 9530TIP3    H250082   2.501   4.581   0.551  1.9047  1.6969  0.8721
 9531TIP3   OH250083   0.839   5.597  12.617  0.1815 -0.1914 -0.1899
 9531TIP3    H150084   0.759   5.558  12.582  0.1086 -0.4661  0.2831
 9531TIP3    H250085   0.830   5.590  12.712  0.3696  0.5753 -0.1117
 9532TIP3   OH250086   4.332   4.618   0.672 -0.0067  0.5416 -0.5058
 9532TIP3    H150087   4.300   4.618   0.763 -1.6991  0.1250 -1.0795
 9532TIP3    H250088   4.384   4.538   0.665 -0.3596  0.2650 -0.0552
 9533TIP3   OH250089   0.720   5.661   5.369  0.2281 -0.3257 -0.0506
 9533TIP3    H150090   0.690   5.713   5.444  1.8306  0.5121  0.0231
 9533TIP3    H250091   0.749   5.725   5.305  1.2780 -1.0870 -0.3561
 9534TIP3   OH250092   6.688   3.017  11.586 -0.2070  0.1612  0.0753
 9534TIP3    H150093   6.611   3.028  11.530  0.2509  1.8117 -0.2627
 9534TIP3    H250094   6.718   3.106  11.602  1.5280 -0.4647  0.3717
 9535TIP3   OH250095   3.586   3.936  15.217 -0.6132 -0.3567 -0.3090
 9535TIP3    H150096   3.528   3.925  15.292 -2.5741 -2.2045 -2.0132
 9535TIP3    H250097   3.567   3.861  15.161  1.1692  0.7071 -2.4140
 9536TIP3   OH250098   4.614   2.865  14.119  0.5060  0.0648 -0.1605
 9536TIP3    H150099   4.628   2.772  14.101 -1.6602 -0.4199  0.4438
 9536TIP3    H250100   4.690   2.891  14.171 -0.1347 -2.0509  1.9232
 9537TIP3   OH250101   0.155   2.585  17.129 -0.0264  0.0979  0.0672
 9537TIP3    H150102   0.156   2.642  17.205  1.3421  0.7112 -0.3998
 9537TIP3    H250103   0.198   2.505  17.158 -2.0356 -0.7730  0.7515
 9538TIP3   OH250104   6.006   3.055  15.706 -0.1377  0.0908 -0.6679
 9538TIP3    H150105   5.981   2.977  15.656  1.0257 -1.0236  0.4488
 9538TIP3    H250106   5.926   3.081  15.752 -0.8606  0.3327 -2.0494
 9539TIP3   OH250107   1.920   4.799  12.669  0.0499 -0.2332  0.2286
 9539TIP3    H150108   1.870   4.747  12.732 -1.5422  1.6250  0.5368
 9539TIP3    H250109   1.888   4.770  12.583 -0.9785  0.3473  0.4052
 9540TIP3   OH250110   4.188   5.585   1.713 -0.3913 -0.4166  0.0072
 9540TIP3    H150111   4.120   5.648   1.688 -0.2022  0.8028  2.4336
 9540TIP3    H250112   4.139   5.507   1.742 -0.6999 -0.1722  0.1432
 9541TIP3   OH250113   4.571   3.256   4.287 -0.0806 -0.8461 -0.1587
 9541TIP3    H150114   4.614   3.180   4.326  0.5050 -1.5736 -2.1971
 9541TIP3    H250115   4.483   3.254   4.324 -0.1591 -2.6651 -0.3847
 9542TIP3   OH250116   4.411   2.585   2.687 -0.6572  0.3302 -0.0911
 9542TIP3    H150117   4.387   2.598   2.778 -0.7337 -0.7616  0.0591
 9542TIP3    H250118   4.372   2.500   2.664  1.9165 -0.8585 -0.2244
 9543TIP3   OH250119   0.707   3.237   0.231  0.5793 -0.0723  0.3415
 9543TIP3    H150120   0.673   3.196   0.311  0.2767  0.3290  0.4175
 9543TIP3    H250121   0.778   3.293   0.261 -0.3411  1.0439  0.4849
 9544TIP3   OH250122   5.140   0.596  17.175 -0.1807  0.3936  0.6233
 9544TIP3    H150123   5.131   0.685  17.140 -2.1017  0.8289  2.1673
 9544TIP3    H250124   5.050   0.565  17.185  0.4652 -1.5503  0.5724
 9545TIP3   OH250125   1.854   6.293  15.137  0.6732 -0.0354  0.7148
 9545TIP3    H150126   1.923   6.346  15.177  0.4843  0.3815  0.4870
 9545TIP3    H250127   1.811   6.251  15.211 -0.1276  1.2860  1.0153
 9546TIP3   OH250128   0.402   0.961  13.515 -0.5140  0.0564  0.6644
 9546TIP3    H150129   0.372   0.898  13.450  1.3612 -0.2430  0.0502
 9546TIP3    H250130   0.428   1.038  13.464 -0.9099  0.5749  1.2334
 9547TIP3   OH250131   1.707   6.076   0.944 -0.3758 -0.3021  0.3607
 9547TIP3    H150132   1.633   6.070   1.005 -0.3808 -0.4450  0.3403
 9547TIP3    H250133   1.692   6.006   0.881 -2.3019  2.0590 -1.9263
 9548TIP3   OH250134   2.690   4.724   4.766 -0.0168 -0.0348 -0.5251
 9548TIP3    H150135   2.607   4.731   4.719  0.1854  1.0009 -0.7379
 9548TIP3    H250136   2.681   4.645   4.820 -0.9014 -0.2665 -1.0065
 9549TIP3   OH250137   5.762   4.810   4.776 -0.1352  0.1138  0.2550
 9549TIP3    H150138   5.764   4.876   4.707 -0.9079  0.3804  0.4841
 9549TIP3    H250139   5.733   4.730   4.732  0.0811  0.1084  0.1240
 9550TIP3   OH250140   5.613   4.218   5.346  0.6975  0.1011 -0.2222
 9550TIP3    H150141   5.689   4.235   5.402  0.9448  1.2208 -0.8989
 9550TIP3    H250142   5.596   4.124   5.358 -0.6087  0.7279  3.4335
 9551TIP3   OH250143   1.591   0.022  12.523  0.1421 -0.3638 -0.1599
 9551TIP3    H150144   1.604   0.067  12.440 -0.6360 -2.1173 -1.2785
 9551TIP3    H250145   1.505  -0.020  12.514 -0.7528  0.8765  2.2214
 9552TIP3   OH250146   5.378   6.174   2.678  0.6365  0.0419 -0.0927
 9552TIP3    H150147   5.406   6.109   2.743  1.4310 -0.2072 -0.6751
 9552TIP3    H250148   5.300   6.135   2.637  0.7436 -0.2668 -0.0040
 9553TIP3   OH250149   5.951   3.863   4.155 -0.5874 -0.1889  0.1613
 9553TIP3    H150150   5.979   3.881   4.244  1.2308  0.4748 -0.5308
 9553TIP3    H250151   5.862   3.899   4.150 -0.2166  0.9171  1.3295
 9554TIP3   OH250152   4.815   0.443   5.244  0.4661 -0.3642 -0.2490
 9554TIP3    H150153   4.906   0.418   5.264  0.5874  0.0010 -0.3575
 9554TIP3    H250154   4.816   0.538   5.239  0.5037 -0.4519 -2.3690
 9555TIP3   OH250155   0.892   3.799  13.715 -0.4079 -0.3841 -0.1583
 9555TIP3    H150156   0.814   3.854  13.716 -0.1929 -0.0753 -0.1921
 9555TIP3    H250157   0.962   3.855  13.749 -0.4920 -1.1143  1.2798
 9556TIP3   OH250158   6.524   1.362  15.736 -0.6086  0.3018 -0.3810
 9556TIP3    H150159   6.590   1.427  15.712 -1.1135  0.1971 -2.0761
 9556TIP3    H250160   6.529   1.296  15.667 -1.3143 -0.5795  0.4003
 9557TIP3   OH250161   2.806   2.707   6.774  0.3246  0.0001 -0.3009
 9557TIP3    H150162   2.748   2.682   6.702  1.3682  1.3652 -1.6500
 9557TIP3    H250163   2.873   2.640   6.774  0.1650 -0.1608 -0.4225
 9558TIP3   OH250164   2.217   4.954   1.595  0.0577  0.7643  0.1326
 9558TIP3    H150165   2.154   4.882   1.596  1.4417 -0.4660  2.5691
 9558TIP3    H250166   2.164   5.033   1.611 -1.0216 -0.1183  0.9835
 9559TIP3   OH250167   2.119   3.828  12.091  0.3121 -0.3730  0.4087
 9559TIP3    H150168   2.109   3.761  12.158  1.2789 -0.3142  0.6169
 9559TIP3    H250169   2.212   3.829  12.071  0.2525  0.6534  0.1461
 9560TIP3   OH250170   3.293   2.830  16.731  0.1432  0.1475 -0.1124
 9560TIP3    H150171   3.229   2.884  16.777  1.4566  0.8498  0.9383
 9560TIP3    H250172   3.358   2.807  16.799  1.1558 -0.3075 -1.2132
 9561TIP3   OH250173   6.604   0.921  14.233  0.5469  0.7541  0.4727
 9561TIP3    H150174   6.620   0.953  14.322  1.1452  0.3456  0.5194
 9561TIP3    H250175   6.691   0.903  14.198  0.2850  0.3306  0.0215
 9562TIP3   OH250176   4.310   4.599   0.969  0.2588  0.5188  0.2588
 9562TIP3    H150177   4.303   4.607   1.064  1.1960 -1.1316  0.4877
 9562TIP3    H250178   4.382   4.538   0.955  0.0331  0.6194 -1.5244
 9563TIP3   OH250179   3.038   2.888  16.810 -0.3193  0.5550 -0.0063
 9563TIP3    H150180   2.980   2.957  16.841  0.0946  1.0258 -0.2841
 9563TIP3    H250181   2.990   2.807  16.829 -0.8136  0.9129  0.2934
 9564TIP3   OH250182   0.148   6.391   4.532  0.0228  0.2212 -0.1176
 9564TIP3    H150183   0.070   6.399   4.476 -0.2579  0.5613  0.3193
 9564TIP3    H250184   0.201   6.324   4.489 -0.0138  0.7488 -1.0053
 9565TIP3   OH250185   4.795   3.923   4.770  0.0265  0.5069  0.3950
 9565TIP3    H150186   4.817   3.830   4.780  1.6496  0.9371  1.0529
 9565TIP3    H250187   4.706   3.931   4.804  0.8943 -0.3241  2.9675
 9566TIP3   OH250188   1.357   3.895   5.000 -0.1435 -0.4703  0.1298
 9566TIP3    H150189   1.340   3.989   5.007  0.2324 -0.3449 -0.6646
 9566TIP3    H250190   1.359   3.878   4.906  1.8040 -0.9013  0.2276
 9567TIP3   OH250191   0.637   1.062   5.208  0.1182 -0.3403 -0.1905
 9567TIP3    H150192   0.687   1.029   5.282  1.0915 -0.7152 -1.0013
 9567TIP3    H250193   0.547   1.037   5.227  0.4365 -0.8931  0.6251
 9568TIP3   OH250194   3.229   4.407  12.698 -0.4133 -0.3047 -0.0208
 9568TIP3    H150195   3.300   4.406  12.634 -1.4179 -1.8257 -1.1352
 9568TIP3    H250196   3.193   4.496  12.691  0.3124 -0.0466 -0.6229
 9569TIP3   OH250197   5.094   6.065   0.410  0.7499 -0.3451  0.1104
 9569TIP3    H150198   5.066   5.974   0.414  0.4768 -0.3407 -1.2914
 9569TIP3    H250199   5.119   6.078   0.318  3.0710  0.3228  0.8074
 9570TIP3   OH250200   0.131   6.593  12.287 -0.5539 -0.3193  0.0427
 9570TIP3    H150201   0.062   6.651  12.254 -1.3137 -1.9223 -1.2019
 9570TIP3    H250202   0.085   6.517  12.322  0.5414 -1.2451 -0.4812
 9571TIP3   OH250203   3.973   1.060  12.652  0.1177 -0.0315 -0.2751
 9571TIP3    H150204   3.949   1.008  12.576  1.4129 -1.3446  0.1892
 9571TIP3    H250205   3.891   1.077  12.698 -0.2841 -1.9518 -0.2672
 9572TIP3   OH250206   0.076   3.231   1.441  0.2770 -0.0650 -0.1781
 9572TIP3    H150207   0.015   3.158   1.432 -0.9938  0.9511  0.0484
 9572TIP3    H250208   0.162   3.190   1.441 -0.3692 -1.4660 -1.1749
 9573TIP3   OH250209   1.987   1.114   4.082 -0.9095  0.4247  0.4747
 9573TIP3    H150210   2.073   1.153   4.065 -0.4423 -1.1850 -1.0658
 9573TIP3    H250211   1.955   1.159   4.160  0.7222  2.0291  0.2635
 9574TIP3   OH250212   5.983   0.369  16.849  0.8038  0.3750 -0.5034
 9574TIP3    H150213   6.013   0.334  16.933 -2.1672 -1.0928 -0.0015
 9574TIP3    H250214   6.054   0.349  16.788  1.5088 -1.6631  0.9312
 9575TIP3   OH250215   4.727   5.574   4.498  0.4795 -0.6779 -0.0812
 9575TIP3    H150216   4.784   5.651   4.503  0.4524 -0.5886 -1.0811
 9575TIP3    H250217   4.673   5.579   4.577  0.0411  0.6762 -0.4520
 9576TIP3   OH250218   1.199   4.309  13.760 -0.3343  0.2072  0.1263
 9576TIP3    H150219   1.260   4.383  13.764  0.2951 -0.3339  0.5538
 9576TIP3    H250220   1.192   4.289  13.666  0.3541  0.1029  0.0937
 9577TIP3   OH250221   2.547   0.246   3.235 -0.2031 -0.0863  0.0916
 9577TIP3    H150222   2.562   0.301   3.158 -0.7486 -0.2345 -0.1167
 9577TIP3    H250223   2.526   0.160   3.200 -3.6007  0.5747  0.3226
 9578TIP3   OH250224   4.081   4.168   0.470 -0.0418  0.5734 -0.2805
 9578TIP3    H150225   4.038   4.249   0.499 -0.3898  0.4335 -0.4018
 9578TIP3    H250226   4.151   4.198   0.412  0.5136  0.8394  0.5180
 9579TIP3   OH250227   4.268   4.582   1.301 -0.2568  0.1925 -0.1476
 9579TIP3    H150228   4.278   4.490   1.278 -1.5559  0.1132 -0.4763
 9579TIP3    H250229   4.191   4.611   1.251 -0.4245  1.2003  0.6619
 9580TIP3   OH250230   0.008   6.262   3.455  0.4178  1.2392  0.0309
 9580TIP3    H150231   0.090   6.220   3.429  0.2791  0.1053  1.4263
 9580TIP3    H250232  -0.015   6.317   3.379  1.0487 -0.5020 -1.4611
 9581TIP3   OH250233   5.640   0.150   1.323 -0.0912  0.1184  0.4535
 9581TIP3    H150234   5.622   0.056   1.332 -0.8925  0.3142  1.0018
 9581TIP3    H250235   5.588   0.177   1.247  1.1287 -0.1223 -0.4862
 9582TIP3   OH250236   6.117   1.606   4.957 -0.6027 -0.0724  0.1864
 9582TIP3    H150237   6.122   1.528   4.902 -1.5445 -0.1731  0.2358
 9582TIP3    H250238   6.158   1.579   5.040  1.4304  0.2899 -0.6792
 9583TIP3   OH250239   0.797   5.919   4.231  0.1223  0.0258 -0.5492
 9583TIP3    H150240   0.740   5.988   4.198 -0.9846 -0.6535 -0.1017
 9583TIP3    H250241   0.824   5.871   4.152  0.9436  0.9866 -0.8652
 9584TIP3   OH250242   2.885   0.046   3.538 -0.0084 -0.1296 -0.8113
 9584TIP3    H150243   2.806   0.038   3.590 -0.5120 -1.9573 -1.8166
 9584TIP3    H250244   2.916   0.135   3.554 -1.0317 -0.1341  1.3233
 9585TIP3   OH250245   0.601   4.709   2.867 -0.2588  0.0166 -0.1873
 9585TIP3    H150246   0.658   4.654   2.921  0.6147  1.2655  0.1865
 9585TIP3    H250247   0.657   4.735   2.794 -1.1964 -1.0025 -1.2915
 9586TIP3   OH250248   4.495   3.487   3.222 -0.4389  0.5791  0.2525
 9586TIP3    H150249   4.579   3.462   3.261 -0.8087 -0.7304  0.2485
 9586TIP3    H250250   4.516   3.509   3.131 -0.1608 -0.2096  0.1214
 9587TIP3   OH250251   2.151   2.534   2.946 -0.3470  0.0939  0.3532
 9587TIP3    H150252   2.136   2.626   2.968  2.0807  0.2328  1.5512
 9587TIP3    H250253   2.115   2.525   2.857  0.4377  2.4879 -0.2576
 9588TIP3   OH250254   1.494   2.293  13.864  0.1016 -0.1147 -0.0202
 9588TIP3    H150255   1.490   2.318  13.956 -0.1582  0.4760 -0.1903
 9588TIP3    H250256   1.524   2.371  13.818  0.8145 -0.5881 -0.3695
 9589TIP3   OH250257   3.533   4.604  16.596 -0.0736  0.4013  0.1091
 9589TIP3    H150258   3.503   4.631  16.509 -1.7608  0.3912  0.6745
 9589TIP3    H250259   3.617   4.561  16.580 -0.8663 -0.5474 -1.6307
 9590TIP3   OH250260   1.204   4.320   4.150 -0.0841  0.0385 -0.0106
 9590TIP3    H150261   1.233   4.369   4.073 -2.3202  0.7625 -0.4407
 9590TIP3    H250262   1.282   4.313   4.205  1.3520  0.2353 -1.9461
 9591TIP3   OH250263   5.201   5.837   0.145  0.2911  0.1241  0.3785
 9591TIP3    H150264   5.219   5.811   0.236 -1.2140  0.6144  0.8374
 9591TIP3    H250265   5.172   5.928   0.152  0.9627  0.4278 -0.6946
 9592TIP3   OH250266   2.985   4.565   2.760 -0.4726  0.2456  0.1063
 9592TIP3    H150267   2.956   4.605   2.842  1.5435  1.5861  0.1943
 9592TIP3    H250268   3.023   4.481   2.786 -0.4855  0.3483  0.4527
 9593TIP3   OH250269   4.417   6.635  14.788  0.2451  0.2248  0.4358
 9593TIP3    H150270   4.344   6.693  14.766  1.2335  0.4523 -2.3327
 9593TIP3    H250271   4.374   6.553  14.814 -1.0060  0.1289 -1.8213
 9594TIP3   OH250272   3.124   2.419   3.783  0.4619 -0.6478 -0.0882
 9594TIP3    H150273   3.110   2.498   3.836 -0.1597 -0.0413 -1.1347
 9594TIP3    H250274   3.206   2.382   3.816  0.7546  0.4329  0.4097
 9595TIP3   OH250275   2.840   3.726  13.567 -0.0123  0.2334  0.0612
 9595TIP3    H150276   2.935   3.734  13.578  0.1022 -0.1638 -0.5992
 9595TIP3    H250277   2.816   3.648  13.617 -0.0699  0.5981  0.6166
 9596TIP3   OH250278   3.237   6.248  10.945  0.0189 -0.1642  0.4701
 9596TIP3    H150279   3.284   6.327  10.973  0.7167 -0.1251 -0.7578
 9596TIP3    H250280   3.146   6.266  10.967  0.1143  1.1600 -0.1274
 9597TIP3   OH250281   3.979   2.465  10.765 -0.4123 -0.0091  0.1116
 9597TIP3    H150282   4.057   2.419  10.734  0.2591  0.9971  0.2778
 9597TIP3    H250283   3.923   2.471  10.688  0.8895  1.7486 -0.7407
 9598TIP3   OH250284   6.641   1.111  16.919 -0.2875  0.2323  0.0819
 9598TIP3    H150285   6.711   1.153  16.970 -0.6261  0.6887  0.1709
 9598TIP3    H250286   6.625   1.028  16.965 -0.5286  0.6014  0.6697
 9599TIP3   OH250287   1.363   0.277   5.748 -0.1732  0.7965  0.1635
 9599TIP3    H150288   1.397   0.362   5.775 -1.0103  0.7130  1.5426
 9599TIP3    H250289   1.322   0.241   5.827 -2.5335  0.4543 -1.1564
 9600TIP3   OH250290   5.966   1.807   5.820  0.1393  0.2583  0.0223
 9600TIP3    H150291   6.041   1.847   5.865 -1.4139  0.7413  2.2721
 9600TIP3    H250292   5.912   1.880   5.792  0.7040 -0.0739 -2.0315
 9601TIP3   OH250293   0.370   3.238   1.898  0.1712 -0.1745 -0.0034
 9601TIP3    H150294   0.327   3.167   1.849 -0.1239 -1.6564  2.2677
 9601TIP3    H250295   0.463   3.219   1.890  0.0957 -0.8387  0.5686
 9602TIP3   OH250296   1.397   5.809  14.943 -0.0910  0.7041  0.5232
 9602TIP3    H150297   1.341   5.871  14.897 -1.3157 -0.5270  0.3219
 9602TIP3    H250298   1.340   5.769  15.008  0.4631 -0.7749  0.1256
 9603TIP3   OH250299   0.912   2.844  14.153 -0.0575  0.4554 -0.2166
 9603TIP3    H150300   0.928   2.788  14.077  0.2392 -2.8519  2.1926
 9603TIP3    H250301   0.820   2.870  14.144  0.1325  0.6300 -1.9724
 9604TIP3   OH250302   2.611   0.742   2.896  0.6952 -0.7988  0.4080
 9604TIP3    H150303   2.649   0.737   2.983  0.6517  2.1413  0.6645
 9604TIP3    H250304   2.517   0.736   2.910  0.5282  2.0324  0.8897
 9605TIP3   OH250305   4.404   5.101  12.770  0.6837 -0.0143 -0.2868
 9605TIP3    H150306   4.463   5.035  12.733 -0.6469 -1.3580 -0.0836
 9605TIP3    H250307   4.437   5.117  12.858  0.5791 -0.9812 -0.0693
 9606TIP3   OH250308   4.248   5.978  15.600 -0.5301  0.7260  0.6945
 9606TIP3    H150309   4.237   6.059  15.550 -1.5403 -0.5737 -1.2633
 9606TIP3    H250310   4.342   5.971  15.614 -0.1329  0.7184 -1.7876
 9607TIP3   OH250311   4.496   1.904  14.123 -0.0104 -0.6867  0.2750
 9607TIP3    H150312   4.489   1.809  14.117  1.6856 -0.7260 -1.2842
 9607TIP3    H250313   4.409   1.932  14.152 -0.4394 -2.7181  1.0530
 9608TIP3   OH250314   5.969   0.350   0.390  0.1962 -0.2321 -0.0956
 9608TIP3    H150315   5.992   0.396   0.470 -2.2514  0.5911  0.1927
 9608TIP3    H250316   6.051   0.314   0.357  1.6752  1.8290  1.2644
 9609TIP3   OH250317   1.037   0.386  12.768  0.4596  0.1086 -0.6914
 9609TIP3    H150318   1.051   0.474  12.734 -0.7793  0.0138 -1.4807
 9609TIP3    H250319   0.980   0.398  12.843  0.5616  0.0138 -0.5993
 9610TIP3   OH250320   1.499   3.642   4.588 -0.0780  0.2804  0.6384
 9610TIP3    H150321   1.512   3.655   4.494  0.9766 -0.6865  0.6370
 9610TIP3    H250322   1.451   3.560   4.594  0.7897 -0.2024  0.9850
 9611TIP3   OH250323   4.273   2.271  16.463 -0.3160 -0.3272  0.1623
 9611TIP3    H150324   4.282   2.253  16.369 -1.3556  0.2944 -0.0650
 9611TIP3    H250325   4.360   2.252  16.499  0.1165 -0.5033 -0.9384
 9612TIP3   OH250326   6.018   2.328   1.224  0.0374  0.3430 -0.1806
 9612TIP3    H150327   5.986   2.369   1.305  1.1140  0.2501  0.3007
 9612TIP3    H250328   6.010   2.396   1.158  0.3773  0.8431  0.2849
 9613TIP3   OH250329   1.949   6.402  11.685 -0.1658 -0.2941 -0.0862
 9613TIP3    H150330   2.037   6.430  11.711 -0.0215 -0.9816  0.1820
 9613TIP3    H250331   1.920   6.468  11.622  0.7370 -0.3317 -0.5487
 9614TIP3   OH250332   1.922   2.207  14.930  0.1427 -0.0833 -0.1804
 9614TIP3    H150333   2.004   2.177  14.892  0.8792  0.1444  1.2031
 9614TIP3    H250334   1.922   2.302  14.917  0.8576  0.1214  1.2461
 9615TIP3   OH250335   2.054   5.044  12.745 -0.3341  0.1362 -0.2881
 9615TIP3    H150336   2.142   5.027  12.713  0.0796  1.7204 -0.0220
 9615TIP3    H250337   2.014   4.957  12.753  1.7756 -0.7374  1.2163
 9616TIP3   OH250338   2.919   5.609   5.743 -0.2480 -0.1027  0.1232
 9616TIP3    H150339   2.919   5.682   5.681 -0.5681 -0.6563 -0.5334
 9616TIP3    H250340   3.005   5.613   5.784 -0.7828  1.5143  1.1249
 9617TIP3   OH250341   1.439   3.708   1.589  0.0727 -0.3710 -0.4562
 9617TIP3    H150342   1.352   3.745   1.571  0.2061  0.6380  0.9353
 9617TIP3    H250343   1.421   3.616   1.609 -0.8323  0.1246  1.0950
 9618TIP3   OH250344   1.700   0.185   6.474  0.2567 -0.0361 -0.0505
 9618TIP3    H150345   1.700   0.259   6.413 -0.1044 -0.6116 -0.7593
 9618TIP3    H250346   1.622   0.200   6.529  0.7830  0.6726  0.5136
 9619TIP3   OH250347   0.821   5.173  12.879  0.0523  0.3571  0.1860
 9619TIP3    H150348   0.734   5.178  12.919 -0.9251  1.8349 -2.0545
 9619TIP3    H250349   0.863   5.256  12.903 -0.1466  0.7870 -0.9143
 9620TIP3   OH250350   2.963   1.183  13.638  0.1527 -0.7652  0.1406
 9620TIP3    H150351   3.058   1.173  13.633  0.5182  1.7229  1.1736
 9620TIP3    H250352   2.948   1.228  13.721 -1.9442 -1.1827  0.0196
 9621TIP3   OH250353   5.357   2.224  12.517  0.0237  0.3164  0.2544
 9621TIP3    H150354   5.293   2.165  12.476  1.7817 -0.0848 -1.9513
 9621TIP3    H250355   5.442   2.191  12.489  1.1583  2.0150  1.6023
 9622TIP3   OH250356   6.027   5.360  14.575  0.0556  0.2231 -0.4433
 9622TIP3    H150357   6.045   5.391  14.664  1.1212  2.3381 -1.3538
 9622TIP3    H250358   5.932   5.364  14.567 -0.0892 -0.5457  0.7918
 9623TIP3   OH250359   3.923   0.573   2.950  0.5314 -0.4733 -0.0158
 9623TIP3    H150360   4.016   0.552   2.943  0.6556  0.4144 -1.2226
 9623TIP3    H250361   3.897   0.598   2.862 -0.2650  1.6088  0.7551
 9624TIP3   OH250362   3.529   6.133   3.614  0.1812 -0.2429  0.5462
 9624TIP3    H150363   3.526   6.174   3.527  1.1202 -1.5880 -0.1226
 9624TIP3    H250364   3.552   6.205   3.673  0.8190  0.4181 -0.4847
 9625TIP3   OH250365   4.753   5.882   3.341  0.0396  0.3728  0.3182
 9625TIP3    H150366   4.821   5.819   3.316 -1.3878 -1.4504  0.9768
 9625TIP3    H250367   4.672   5.831   3.341 -1.3956  2.5939 -0.7392
 9626TIP3   OH250368   1.371   1.089   5.957 -0.4651  0.1094 -0.0869
 9626TIP3    H150369   1.443   1.150   5.966 -0.7389  0.2798  0.9948
 9626TIP3    H250370   1.312   1.110   6.029 -1.5036 -0.1472 -0.8455
 9627TIP3   OH250371   5.196   3.414  15.303  0.2483  0.1313 -0.2317
 9627TIP3    H150372   5.267   3.468  15.269 -0.5610  0.1854 -1.9339
 9627TIP3    H250373   5.191   3.340  15.242 -0.9872  0.0225 -0.0138
 9628TIP3   OH250374   2.642   1.523  15.727 -0.2272 -0.1618  0.2528
 9628TIP3    H150375   2.576   1.576  15.772  2.2052  2.6553  0.5666
 9628TIP3    H250376   2.664   1.572  15.649  3.4516  0.3180  1.4987
 9629TIP3   OH250377   1.121   3.743   5.072  0.2097 -0.1377 -0.1302
 9629TIP3    H150378   1.181   3.795   5.019 -1.5823  0.5861 -1.4866
 9629TIP3    H250379   1.157   3.747   5.161  1.4121  1.3773 -0.6726
 9630TIP3   OH250380   6.015   1.588  11.631  0.3292 -0.0951 -0.8710
 9630TIP3    H150381   6.047   1.653  11.568 -1.3910  0.9011 -0.7532
 9630TIP3    H250382   6.037   1.626  11.716 -0.0564  0.0103 -0.8185
 9631TIP3   OH250383   4.135   1.708   1.438 -0.3665  0.1169  0.6555
 9631TIP3    H150384   4.140   1.612   1.430  1.1894  0.1938  0.6601
 9631TIP3    H250385   4.041   1.727   1.436 -0.6411 -1.2742 -0.9216
 9632TIP3   OH250386   4.064   6.527   4.435 -0.4279  0.0843 -0.6108
 9632TIP3    H150387   4.019   6.445   4.417 -1.6603  0.2385  1.5444
 9632TIP3    H250388   4.140   6.501   4.487  0.1342  0.1442 -1.4019
 9633TIP3   OH250389   3.062   5.325  14.688  0.2675  0.2120 -0.0949
 9633TIP3    H150390   3.151   5.316  14.653 -0.0707 -2.0216 -0.4025
 9633TIP3    H250391   3.013   5.370  14.619  1.3869  2.3816  0.4835
 9634TIP3   OH250392   1.078   3.804  12.740  0.6238  0.4873 -0.0139
 9634TIP3    H150393   1.009   3.854  12.696 -0.5130  0.0489  1.2428
 9634TIP3    H250394   1.124   3.759  12.669 -0.2682  0.9064 -0.8734
 9635TIP3   OH250395   5.445   5.822   2.023 -0.1610  0.2279  0.1834
 9635TIP3    H150396   5.384   5.882   1.982 -1.6633 -0.2234  1.6798
 9635TIP3    H250397   5.426   5.737   1.983 -0.9932 -0.0356  1.1028
 9636TIP3   OH250398   0.625   1.750   4.721  0.2214  0.0924  0.3582
 9636TIP3    H150399   0.625   1.783   4.631 -0.4255 -0.4324  0.1663
 9636TIP3    H250400   0.624   1.829   4.776 -1.9323  0.4180 -0.0977
 9637TIP3   OH250401   6.255   0.458   2.739  0.2649  0.2647  0.1629
 9637TIP3    H150402   6.337   0.501   2.764  0.1762 -0.0894  1.0726
 9637TIP3    H250403   6.229   0.408   2.816 -0.3408 -0.3508 -0.4312
 9638TIP3   OH250404   1.747   1.463   1.596  0.6903  0.0176  0.3093
 9638TIP3    H150405   1.775   1.411   1.520 -1.0532 -0.8047  0.2155
 9638TIP3    H250406   1.693   1.403   1.647 -0.7694  1.5388  0.5767
 9639TIP3   OH250407   1.422   0.102   0.418 -0.2659 -0.9331  0.3674
 9639TIP3    H150408   1.467   0.050   0.351 -0.0999 -0.5556  0.1805
 9639TIP3    H250409   1.335   0.063   0.425 -0.0722 -1.3655  0.3800
 9640TIP3   OH250410   3.601   2.984  15.073  0.3745 -0.6436 -0.0464
 9640TIP3    H150411   3.586   2.915  15.008 -1.2056 -1.6400  1.3371
 9640TIP3    H250412   3.585   3.066  15.025 -0.5354 -1.3415 -0.9599
 9641TIP3   OH250413   6.085   2.521  16.924  0.0556  0.5757  0.1537
 9641TIP3    H150414   6.071   2.538  17.018  1.7030 -2.0538  0.9151
 9641TIP3    H250415   5.997   2.500  16.891 -0.3316  0.1753  1.3966
 9642TIP3   OH250416   1.630   1.676   2.136 -0.0391  0.2141  0.1892
 9642TIP3    H150417   1.617   1.590   2.177  2.2379 -0.2322  0.0533
 9642TIP3    H250418   1.602   1.664   2.045  0.9810 -0.6257 -0.0310
 9643TIP3   OH250419   0.181   3.429   4.095 -0.1938 -0.3428  0.0829
 9643TIP3    H150420   0.144   3.517   4.103 -1.2955 -0.9053  1.3671
 9643TIP3    H250421   0.157   3.385   4.176 -1.1673 -2.3965 -1.2697
 9644TIP3   OH250422   2.449   3.491   4.415 -0.2931 -0.2483 -0.1539
 9644TIP3    H150423   2.409   3.462   4.333  3.1856  0.8612 -2.3088
 9644TIP3    H250424   2.516   3.426   4.434  0.0844  0.4352  0.9280
 9645TIP3   OH250425   2.030   6.463  14.939  0.5050  0.2761  0.2051
 9645TIP3    H150426   2.104   6.502  14.987 -0.0869  0.2731  1.1214
 9645TIP3    H250427   1.970   6.433  15.007 -0.5227  0.6115 -0.5405
 9646TIP3   OH250428   1.537   6.045  15.121 -0.1257  0.6102  0.0056
 9646TIP3    H150429   1.572   5.989  15.190 -0.0158  1.8906  0.9960
 9646TIP3    H250430   1.442   6.046  15.136 -0.0356  1.4436  0.5776
 9647TIP3   OH250431   0.628   2.222   5.114 -0.0485  0.4639  0.1637
 9647TIP3    H150432   0.722   2.206   5.103  0.1076  1.7139 -0.3917
 9647TIP3    H250433   0.596   2.145   5.160  1.0998 -0.3524 -0.3896
 9648TIP3   OH250434   5.612   6.447  13.397  0.7223 -0.0120 -0.0318
 9648TIP3    H150435   5.667   6.515  13.360  1.1049 -0.1912  0.2084
 9648TIP3    H250436   5.586   6.394  13.321 -1.5979  1.8231 -0.5717
 9649TIP3   OH250437   4.803   2.887  13.441  0.1465 -0.3159  0.0246
 9649TIP3    H150438   4.726   2.936  13.411  0.1966 -1.5577 -2.2219
 9649TIP3    H250439   4.767   2.815  13.493 -0.1888 -0.5813 -0.5695
 9650TIP3   OH250440   5.369   0.999   2.900 -0.6149  0.5812 -0.1578
 9650TIP3    H150441   5.444   0.958   2.858 -1.4480 -1.9379  0.6983
 9650TIP3    H250442   5.401   1.026   2.986 -0.3778  0.6373 -0.2623
 9651TIP3   OH250443   6.110   6.393   3.821  0.3563  0.2246 -0.5068
 9651TIP3    H150444   6.132   6.316   3.874 -0.0996 -0.6177 -1.5260
 9651TIP3    H250445   6.187   6.406   3.765  1.0031  1.3562  0.6188
 9652TIP3   OH250446   5.742   0.869  15.763  0.2836  0.4114  0.6517
 9652TIP3    H150447   5.679   0.858  15.692  0.3297  0.3392  0.6219
 9652TIP3    H250448   5.707   0.816  15.835 -0.0938  0.9974  0.9046
 9653TIP3   OH250449   5.393   5.913  13.040  0.4919 -0.2382  0.1067
 9653TIP3    H150450   5.458   5.914  13.110  1.1410  0.5561 -0.5011
 9653TIP3    H250451   5.420   5.983  12.981 -1.1385  0.3565  0.0476
 9654TIP3   OH250452   3.289   6.208   6.173  0.4372  0.1916 -0.1631
 9654TIP3    H150453   3.316   6.133   6.226  1.5572  0.1314 -0.7987
 9654TIP3    H250454   3.215   6.246   6.221 -0.1095 -1.2810  0.1866
 9655TIP3   OH250455   5.280   2.143  13.582 -0.1338 -0.4512  0.0623
 9655TIP3    H150456   5.262   2.086  13.657 -1.2835  0.8557  0.7963
 9655TIP3    H250457   5.202   2.197  13.574  0.2838 -0.0912 -1.6467
 9656TIP3   OH250458   5.356   0.876   3.493 -0.3724 -0.3163  0.1491
 9656TIP3    H150459   5.359   0.803   3.431  2.0232 -1.0818  1.1169
 9656TIP3    H250460   5.295   0.848   3.561 -0.7415 -0.7165 -0.3488
 9657TIP3   OH250461   4.898   2.309  15.333 -0.0349  0.1774  0.0675
 9657TIP3    H150462   4.992   2.293  15.338 -0.0000  0.6692  1.2715
 9657TIP3    H250463   4.890   2.404  15.328 -0.5142  0.2534  1.8956
 9658TIP3   OH250464   5.918   2.842  16.947  0.1352 -0.7861  0.3393
 9658TIP3    H150465   5.852   2.880  17.004  0.4676  0.4179 -0.0745
 9658TIP3    H250466   5.921   2.900  16.872  2.8503  0.1147  1.1046
 9659TIP3   OH250467   2.482   1.525   0.157 -0.3433 -0.2549  0.3104
 9659TIP3    H150468   2.511   1.499   0.244  1.5494  0.4812 -0.0812
 9659TIP3    H250469   2.479   1.621   0.161  1.5158 -0.1291 -0.9726
 9660TIP3   OH250470   1.040   6.045   0.484 -0.5408 -0.0322  0.5118
 9660TIP3    H150471   0.998   5.971   0.528  0.2951  0.5181  2.2965
 9660TIP3    H250472   1.048   6.018   0.393 -0.6266 -1.9709  1.0644
 9661TIP3   OH250473   3.788   2.770  14.569  0.0961  0.8797 -0.1872
 9661TIP3    H150474   3.704   2.738  14.536 -1.0623  2.4252  1.2115
 9661TIP3    H250475   3.853   2.733  14.509 -1.4584 -1.4350 -0.5106
 9662TIP3   OH250476   1.254   0.241  16.963  0.4045  0.4725 -0.3171
 9662TIP3    H150477   1.335   0.198  16.935 -0.0748  0.5100 -1.8211
 9662TIP3    H250478   1.245   0.217  17.055  0.7493 -1.7166 -0.8152
 9663TIP3   OH250479   1.261   2.066  16.793  0.2094  0.3910  0.2384
 9663TIP3    H150480   1.220   2.003  16.852 -2.0357 -2.5652 -4.2214
 9663TIP3    H250481   1.354   2.044  16.796 -0.0935 -0.8426  1.3615
 9664TIP3   OH250482   0.463   1.193  13.044  0.1950  0.0219  0.5012
 9664TIP3    H150483   0.533   1.216  12.984 -0.0755  2.1334  0.9587
 9664TIP3    H250484   0.504   1.133  13.107  1.0900 -0.2670 -0.3511
 9665TIP3   OH250485   2.715   3.527   2.409 -0.4136  0.2577  0.1122
 9665TIP3    H150486   2.715   3.434   2.384  0.8332  0.0950  0.6769
 9665TIP3    H250487   2.630   3.539   2.453 -0.7621 -0.5072 -0.3322
 9666TIP3   OH250488   1.659   4.329  13.442 -0.1831 -0.3193  0.3312
 9666TIP3    H150489   1.754   4.333  13.457  0.2594 -4.2397 -0.8716
 9666TIP3    H250490   1.621   4.313  13.528  0.3754 -0.2594  0.5882
 9667TIP3   OH250491   4.488   1.497  11.126 -0.1183 -0.4696 -0.0546
 9667TIP3    H150492   4.457   1.543  11.047  0.1025 -1.8903 -0.9808
 9667TIP3    H250493   4.575   1.534  11.142 -0.9066  1.1716  0.6388
 9668TIP3   OH250494   0.049   2.889   1.851 -0.3779  0.7627 -0.0042
 9668TIP3    H150495   0.082   2.836   1.778  0.7992  0.1034  0.9916
 9668TIP3    H250496   0.076   2.841   1.929 -0.5486  2.1120  0.8855
 9669TIP3   OH250497   2.819   2.728   2.605 -0.3103  0.1775  0.1420
 9669TIP3    H150498   2.903   2.702   2.565 -0.5977  1.5644 -1.3979
 9669TIP3    H250499   2.769   2.646   2.609  0.8792 -0.5553  0.5445
 9670TIP3   OH250500   3.314   1.129  14.288  0.3252  0.0893  0.1364
 9670TIP3    H150501   3.326   1.070  14.362  0.1620 -2.2144 -1.6292
 9670TIP3    H250502   3.287   1.212  14.328 -2.6402 -1.8940  2.4755
 9671TIP3   OH250503   5.424   0.501   1.736 -0.5782  0.0939  0.6347
 9671TIP3    H150504   5.471   0.537   1.661 -2.2449  0.3591 -0.2805
 9671TIP3    H250505   5.488   0.443   1.778  0.5639  0.4353 -0.6026
 9672TIP3   OH250506   0.728   3.106   4.560 -0.0887 -0.0421 -0.6720
 9672TIP3    H150507   0.682   3.184   4.528 -2.6883  0.3114  3.5499
 9672TIP3    H250508   0.811   3.139   4.593 -1.4503  1.1589  1.7105
 9673TIP3   OH250509   6.152   1.687  15.837 -0.1773 -0.2190  0.0110
 9673TIP3    H150510   6.166   1.593  15.852 -0.2067 -0.2664 -0.2582
 9673TIP3    H250511   6.224   1.713  15.780  0.4584  0.1608  0.9758
 9674TIP3   OH250512   3.132   0.863  12.702  0.1926  0.7096  0.0223
 9674TIP3    H150513   3.062   0.924  12.678 -0.4723  0.2375  0.7347
 9674TIP3    H250514   3.207   0.891  12.649 -0.5840  1.0974 -0.9013
 9675TIP3   OH250515   1.075   0.859  12.241  0.4130 -0.4495  0.0912
 9675TIP3    H150516   1.148   0.921  12.233  1.4305 -1.8762 -2.5427
 9675TIP3    H250517   0.999   0.909  12.212  0.7220  0.3866  0.6904
 9676TIP3   OH250518   2.046   5.944   4.239  0.3696  0.2442 -0.2002
 9676TIP3    H150519   1.966   5.947   4.186 -0.8245 -3.1243  1.2847
 9676TIP3    H250520   2.033   6.012   4.305 -1.5602 -0.6421  0.3761
 9677TIP3   OH250521   3.469   5.631   3.785 -0.7431  0.0824  0.2072
 9677TIP3    H150522   3.455   5.560   3.722 -1.3227 -0.2731  0.7389
 9677TIP3    H250523   3.429   5.600   3.866  0.4695  0.3204  0.9133
 9678TIP3   OH250524   4.031   2.449  16.674 -0.1294  0.0140 -0.2460
 9678TIP3    H150525   3.947   2.403  16.675 -0.5172  0.7532  0.6537
 9678TIP3    H250526   4.074   2.423  16.755 -0.7809  2.0514  0.7569
 9679TIP3   OH250527   6.746   5.233  14.659  0.0739  0.3653 -0.6715
 9679TIP3    H150528   6.796   5.167  14.611 -1.6049 -1.3134 -0.1753
 9679TIP3    H250529   6.718   5.188  14.739 -2.3746  1.1740 -1.0321
 9680TIP3   OH250530   1.630   5.385  17.114 -0.3140 -0.4875  0.6209
 9680TIP3    H150531   1.692   5.388  17.187  0.7479 -1.1498 -0.2353
 9680TIP3    H250532   1.682   5.409  17.037 -1.2201 -0.6432 -0.0537
 9681TIP3   OH250533   0.136   4.401   1.278  0.3914 -0.6107  0.0841
 9681TIP3    H150534   0.192   4.448   1.216  0.2382 -0.3295  0.1570
 9681TIP3    H250535   0.147   4.448   1.361  0.3256 -0.7725  0.1851
 9682TIP3   OH250536   0.948   4.910   1.576  0.3813 -0.1839  0.4635
 9682TIP3    H150537   1.016   4.976   1.588 -1.7621  2.6268 -1.9848
 9682TIP3    H250538   0.907   4.902   1.662  0.6002  1.8012  0.7700
 9683TIP3   OH250539   1.972   1.517  10.581  0.0921  0.0002  0.2573
 9683TIP3    H150540   2.027   1.587  10.546 -0.1064  0.4498  0.8360
 9683TIP3    H250541   2.032   1.444  10.594  0.3009  0.0562 -0.3554
 9684TIP3   OH250542   5.633   0.108  16.749 -0.3048 -0.3629  0.3964
 9684TIP3    H150543   5.622   0.192  16.706 -0.8513 -1.0189 -0.7829
 9684TIP3    H250544   5.681   0.128  16.829 -1.2336  1.1718  0.5789
 9685TIP3   OH250545   4.652   5.327   1.813  0.1356  0.2427 -0.1296
 9685TIP3    H150546   4.585   5.365   1.869 -1.8066 -2.2050 -0.7178
 9685TIP3    H250547   4.636   5.365   1.726 -3.5377 -3.7590 -1.3542
 9686TIP3   OH250548   2.999   4.795  16.130  0.0437  0.3561  0.3863
 9686TIP3    H150549   3.043   4.712  16.111  0.2668  0.5762 -0.0657
 9686TIP3    H250550   2.944   4.776  16.206  0.8709  0.0567  0.9209
 9687TIP3   OH250551   3.012   4.530  14.246 -0.6451 -0.1345 -0.0813
 9687TIP3    H150552   2.927   4.510  14.205  0.5054 -2.5686 -1.3832
 9687TIP3    H250553   3.061   4.575  14.177  0.1614 -1.4055 -0.3561
 9688TIP3   OH250554   0.561   4.512  16.042  0.4187  0.3322 -0.3542
 9688TIP3    H150555   0.622   4.449  16.002  0.8958 -0.9107  2.2243
 9688TIP3    H250556   0.591   4.519  16.132 -0.7198  2.9730 -0.1575
 9689TIP3   OH250557   5.280   4.273   2.976 -0.5251 -0.2716  0.6683
 9689TIP3    H150558   5.297   4.246   3.067  1.6851 -0.8946  0.0934
 9689TIP3    H250559   5.361   4.252   2.929 -2.1036 -1.1667 -1.7435
 9690TIP3   OH250560   1.209   6.704   6.694 -0.5817 -0.1702 -0.6683
 9690TIP3    H150561   1.279   6.673   6.637  0.3497  0.4183  0.1457
 9690TIP3    H250562   1.189   6.792   6.661 -0.8193 -0.2689 -0.7893
 9691TIP3   OH250563   4.365   1.550   4.839  0.1087  0.3668 -0.4960
 9691TIP3    H150564   4.357   1.456   4.822  1.7440  0.4010 -1.5218
 9691TIP3    H250565   4.385   1.589   4.754  1.8397  1.3334  0.3131
 9692TIP3   OH250566   3.625   0.224   2.472  0.4986 -0.5707 -0.1369
 9692TIP3    H150567   3.598   0.279   2.546  0.5792  0.2670 -0.7157
 9692TIP3    H250568   3.688   0.278   2.425 -0.3589 -0.6627 -1.4183
 9693TIP3   OH250569   3.520   5.787   2.827  0.2333  0.0886 -0.1699
 9693TIP3    H150570   3.493   5.879   2.821  0.3299 -0.0490 -4.0650
 9693TIP3    H250571   3.455   5.747   2.885 -0.5477  2.3317  0.5719
 9694TIP3   OH250572   5.985   6.386  15.051  0.2757  0.6194  0.1379
 9694TIP3    H150573   6.041   6.393  14.974  1.3323  2.0742  0.9975
 9694TIP3    H250574   5.997   6.296  15.082  2.5652  1.0349  0.5852
 9695TIP3   OH250575   4.197   3.731  16.499  0.1752 -0.0426  0.0031
 9695TIP3    H150576   4.104   3.720  16.516  0.2329 -0.1258  0.2721
 9695TIP3    H250577   4.207   3.825  16.479  0.2294  0.2309  1.2477
 9696TIP3   OH250578   0.455   2.544  15.059  0.1792  0.8186  0.0579
 9696TIP3    H150579   0.416   2.488  15.125  0.8655  0.8621  0.5041
 9696TIP3    H250580   0.492   2.618  15.108  2.1174  0.0414 -0.1892
 9697TIP3   OH250581   3.785   1.101  13.151 -0.0924 -0.2027 -0.5255
 9697TIP3    H150582   3.851   1.171  13.149 -0.8054  0.4506 -1.8625
 9697TIP3    H250583   3.724   1.124  13.082  0.0259 -2.5359 -1.4524
 9698TIP3   OH250584   1.470   4.776   2.750  0.4655  0.4979 -0.1273
 9698TIP3    H150585   1.522   4.806   2.675  2.0007  0.0661  0.7471
 9698TIP3    H250586   1.490   4.683   2.756  0.3761  0.5440  0.8475
 9699TIP3   OH250587   3.797   3.213  13.206 -0.3929  0.1881  0.5713
 9699TIP3    H150588   3.787   3.139  13.146 -1.1534  0.4144  0.4016
 9699TIP3    H250589   3.783   3.176  13.293 -1.6811  0.2832  0.4211
 9700TIP3   OH250590   1.445   5.988   6.419 -0.4033  0.2719  0.5813
 9700TIP3    H150591   1.407   5.901   6.427  0.8206 -0.4146 -0.8639
 9700TIP3    H250592   1.374   6.042   6.384 -0.8696 -0.3545  0.5495
 9701TIP3   OH250593   0.373   2.835  12.127 -0.7697 -0.1489  0.5004
 9701TIP3    H150594   0.423   2.756  12.106 -1.3985  0.6369 -4.5070
 9701TIP3    H250595   0.436   2.906  12.119 -1.4703  0.3509 -0.8013
 9702TIP3   OH250596   3.506   1.238   3.735  0.3369 -0.9901  0.3099
 9702TIP3    H150597   3.446   1.252   3.662  0.5674 -0.4733  0.2166
 9702TIP3    H250598   3.456   1.186   3.798 -0.5056  0.1608  0.6155
 9703TIP3   OH250599   2.017   6.159   5.557  0.3090 -0.0864  0.2526
 9703TIP3    H150600   2.041   6.182   5.647  0.0793 -0.8453  0.5129
 9703TIP3    H250601   2.095   6.116   5.522 -0.1954 -1.3342  0.6544
 9704TIP3   OH250602   4.203   0.341  11.488  0.2734  0.1979 -0.3249
 9704TIP3    H150603   4.217   0.308  11.577 -1.1798  0.1314 -0.0988
 9704TIP3    H250604   4.216   0.264  11.432  0.1543 -0.0052 -0.0791
 9705TIP3   OH250605   3.114   1.927   2.996  0.2300  0.8393  0.0680
 9705TIP3    H150606   3.167   1.890   2.926 -1.5260 -0.5242 -0.5936
 9705TIP3    H250607   3.137   1.876   3.074  0.5321  0.8398 -0.0226
 9706TIP3   OH250608   2.677   0.224   0.456  0.3199  0.2307 -0.3793
 9706TIP3    H150609   2.585   0.197   0.455  0.2282  0.5596 -0.7378
 9706TIP3    H250610   2.724   0.150   0.416  0.2477 -0.0661  0.0801
 9707TIP3   OH250611   2.430   1.945  17.134  0.3188 -0.0047 -0.0763
 9707TIP3    H150612   2.461   1.924  17.045 -0.3371 -0.8293 -0.1206
 9707TIP3    H250613   2.484   2.019  17.161 -0.3387  1.0906 -1.6569
 9708TIP3   OH250614   6.749   5.073   6.100 -0.1101 -0.0488 -0.3606
 9708TIP3    H150615   6.716   4.993   6.061  0.4080 -0.5172  0.1415
 9708TIP3    H250616   6.842   5.075   6.077 -0.2643  0.7443 -0.9271
 9709TIP3   OH250617   0.653   5.058   2.809 -0.6871 -0.1563  0.7025
 9709TIP3    H150618   0.601   5.061   2.729 -0.2836 -1.0602  0.3919
 9709TIP3    H250619   0.733   5.012   2.784  0.5050  1.6867  1.0509
 9710TIP3   OH250620   0.453   5.174  13.965 -0.2550  0.0078 -0.8822
 9710TIP3    H150621   0.420   5.141  14.048 -1.7083 -0.8082 -1.7593
 9710TIP3    H250622   0.539   5.132  13.955 -0.3211 -0.3361 -0.0675
 9711TIP3   OH250623   2.491   2.894   1.651 -0.0577 -0.2610 -0.0691
 9711TIP3    H150624   2.582   2.919   1.668 -0.0322 -0.1273 -0.3973
 9711TIP3    H250625   2.471   2.932   1.565  0.1727 -1.8620 -0.8501
 9712TIP3   OH250626   0.797   4.904  12.807  0.2365  0.4115  0.4385
 9712TIP3    H150627   0.806   4.998  12.822 -2.2159  0.3472  2.6658
 9712TIP3    H250628   0.731   4.897  12.738  0.5061  0.3325  0.1896
 9713TIP3   OH250629   6.645   4.224   3.113  0.4053  0.4201 -0.3996
 9713TIP3    H150630   6.705   4.250   3.043  1.4646  0.0769  0.3735
 9713TIP3    H250631   6.639   4.129   3.106  1.7836  0.2118  0.9765
 9714TIP3   OH250632   4.049   2.356  10.329 -0.5664 -0.2458 -0.1353
 9714TIP3    H150633   3.981   2.385  10.389 -1.4967 -0.3689 -1.1198
 9714TIP3    H250634   4.018   2.272  10.295  0.7002 -0.9517  0.4120
 9715TIP3   OH250635   3.676   6.619   5.565 -0.0009  0.6206 -0.1448
 9715TIP3    H150636   3.585   6.648   5.571 -0.4529 -0.8690  0.2936
 9715TIP3    H250637   3.686   6.586   5.476 -0.3105 -0.5523  0.2408
 9716TIP3   OH250638   3.157   3.852   3.153 -0.1916 -0.0468  0.0181
 9716TIP3    H150639   3.102   3.887   3.224 -0.8578  1.7766 -1.3698
 9716TIP3    H250640   3.119   3.766   3.134 -1.2799  0.3236  0.4820
 9717TIP3   OH250641   3.042   1.035  16.464 -0.2036 -0.6002  0.2528
 9717TIP3    H150642   3.045   1.122  16.424 -0.5285 -0.3925  0.6742
 9717TIP3    H250643   3.100   1.042  16.541  1.2498 -1.2941 -0.7488
 9718TIP3   OH250644   1.247   0.684  12.534 -0.0187  0.1791  0.0029
 9718TIP3    H150645   1.168   0.738  12.541  0.0736  0.4122 -0.7589
 9718TIP3    H250646   1.253   0.640  12.619 -0.3036  1.0715  0.4853
 9719TIP3   OH250647   2.431   6.507   4.430  0.1058  0.5501  0.4234
 9719TIP3    H150648   2.404   6.476   4.344  0.0752 -0.1992  0.6988
 9719TIP3    H250649   2.499   6.572   4.412 -0.8429  1.3722 -0.2099
 9720TIP3   OH250650   0.425   3.864  17.237  0.0758 -0.4349  0.1282
 9720TIP3    H150651   0.513   3.835  17.216  0.3122  1.0780 -1.1246
 9720TIP3    H250652   0.382   3.873  17.152 -1.1496 -0.7459  0.7006
 9721TIP3   OH250653   0.907   3.292  14.249 -0.1895 -0.3549 -0.0178
 9721TIP3    H150654   0.824   3.261  14.213 -0.6157  0.4947  0.2296
 9721TIP3    H250655   0.963   3.303  14.172 -0.3176 -0.8774 -0.1915
 9722TIP3   OH250656   5.864   0.251   2.341  0.4417 -0.0551  0.1903
 9722TIP3    H150657   5.948   0.285   2.312  0.2165 -0.4134 -0.8743
 9722TIP3    H250658   5.886   0.178   2.398  0.9237  1.6743  2.3128
 9723TIP3   OH250659   1.455   1.729  13.776 -0.7666 -0.5228  0.7216
 9723TIP3    H150660   1.535   1.699  13.819 -0.9027  3.1600  3.8787
 9723TIP3    H250661   1.486   1.785  13.704 -0.3870  1.3639  2.2881
 9724TIP3   OH250662   3.916   5.505  13.974  0.1557  0.6203 -0.3643
 9724TIP3    H150663   3.952   5.451  14.045  1.8027 -0.1714 -1.7845
 9724TIP3    H250664   3.859   5.567  14.019 -0.2894 -1.0666  1.4825
 9725TIP3   OH250665   1.088   1.714  14.894 -0.4444 -0.4409  0.2546
 9725TIP3    H150666   1.152   1.681  14.831  1.5204  1.5070  1.1959
 9725TIP3    H250667   1.122   1.687  14.979 -0.3743  1.3742  0.8279
 9726TIP3   OH250668   5.327   2.901  16.889  0.0750 -0.1299  0.3436
 9726TIP3    H150669   5.263   2.951  16.837 -0.7527 -1.0397  0.4722
 9726TIP3    H250670   5.383   2.859  16.824  1.3027  1.6198  0.2420
 9727TIP3   OH250671   1.561   4.288   2.531 -0.1473 -0.0432 -0.4482
 9727TIP3    H150672   1.474   4.320   2.556 -0.0454 -0.2461  0.2073
 9727TIP3    H250673   1.612   4.366   2.512  0.4925  0.3021  2.4388
 9728TIP3   OH250674   5.806   4.911  11.261  0.8693  0.2108  0.5571
 9728TIP3    H150675   5.778   4.943  11.175  2.9509  0.9431  0.1254
 9728TIP3    H250676   5.724   4.885  11.304 -0.5111  2.5428 -0.5370
 9729TIP3   OH250677   0.492   1.659   2.842  0.0065 -0.0390 -0.2300
 9729TIP3    H150678   0.479   1.754   2.850  0.2185 -0.0347  0.0593
 9729TIP3    H250679   0.406   1.625   2.818 -0.3551  0.0810  0.8653
 9730TIP3   OH250680   3.019   6.671  16.000 -1.0521 -0.0146 -0.1007
 9730TIP3    H150681   2.965   6.596  16.025  0.0812 -0.9940 -0.5285
 9730TIP3    H250682   3.028   6.722  16.080 -2.9781  0.3928 -0.1323
 9731TIP3   OH250683   3.917   1.905  15.936 -1.1303  0.2426  0.2827
 9731TIP3    H150684   3.904   1.843  15.865 -2.6243  1.8549 -0.9015
 9731TIP3    H250685   4.000   1.879  15.976 -0.1512 -0.5561 -2.1985
 9732TIP3   OH250686   0.416   4.876  15.821  0.5840 -0.2594  0.0913
 9732TIP3    H150687   0.428   4.907  15.911  0.2757 -1.0325  0.4069
 9732TIP3    H250688   0.505   4.866  15.787  0.7794 -1.8028  0.9645
 9733TIP3   OH250689   6.715   2.558  11.541 -0.1281  0.2628  0.3371
 9733TIP3    H150690   6.621   2.578  11.538  0.2094  2.1781  1.6601
 9733TIP3    H250691   6.742   2.555  11.449 -1.5899 -0.9065 -0.0757
 9734TIP3   OH250692   1.388   3.447  11.562  0.0336  0.0751  0.3002
 9734TIP3    H150693   1.335   3.374  11.530 -0.0333  0.3185 -0.1462
 9734TIP3    H250694   1.478   3.416  11.556  0.0607  0.2984 -0.6147
 9735TIP3   OH250695   0.777   6.272   2.584  0.0329  0.0859  0.2204
 9735TIP3    H150696   0.729   6.240   2.508  0.3163  1.8796 -0.7265
 9735TIP3    H250697   0.734   6.229   2.659 -2.1835  0.6351 -0.7012
 9736TIP3   OH250698   5.741   2.933  16.108  0.2375 -0.5676 -0.1836
 9736TIP3    H150699   5.807   2.873  16.141  0.6334  0.3051  0.6584
 9736TIP3    H250700   5.785   3.018  16.105 -0.6159 -0.1164 -0.3352
 9737TIP3   OH250701   4.726   1.262   3.609 -0.0477 -0.2029 -0.2825
 9737TIP3    H150702   4.800   1.317   3.633 -0.3296 -0.9437  2.4101
 9737TIP3    H250703   4.654   1.324   3.594  0.1602  0.2867  0.7153
 9738TIP3   OH250704   5.567   4.437  13.504  0.1693 -0.0981  0.4165
 9738TIP3    H150705   5.637   4.423  13.440 -0.3338 -0.4769 -0.0574
 9738TIP3    H250706   5.551   4.350  13.541 -1.9937 -0.5800 -1.5168
 9739TIP3   OH250707   3.563   1.499  11.038 -0.3692 -0.2559  0.8066
 9739TIP3    H150708   3.576   1.421  10.984  0.4194  0.0300  0.5745
 9739TIP3    H250709   3.615   1.567  10.995 -1.0214  0.3867  1.0316
 9740TIP3   OH250710   1.397   3.836   4.730  1.0346  0.4212  0.0933
 9740TIP3    H150711   1.458   3.776   4.687  0.0371  0.5607 -1.5436
 9740TIP3    H250712   1.313   3.791   4.727  0.6095  1.1864  0.3500
 9741TIP3   OH250713   2.108   1.942   2.504 -0.1854 -0.0223 -0.1743
 9741TIP3    H150714   2.150   1.977   2.425  1.2634 -2.8272 -0.7201
 9741TIP3    H250715   2.181   1.911   2.558 -1.2422  0.7370  1.7223
 9742TIP3   OH250716   2.968   2.897  12.714  0.3700 -0.4069  0.9378
 9742TIP3    H150717   2.924   2.816  12.739 -2.3924  1.3811  2.0438
 9742TIP3    H250718   2.910   2.936  12.648  2.2794  0.1142 -0.4730
 9743TIP3   OH250719   1.317   5.486   1.745  0.3248 -0.1946  0.3314
 9743TIP3    H150720   1.225   5.496   1.719  0.4820  0.5947  0.0799
 9743TIP3    H250721   1.349   5.412   1.693  0.1803  0.3300 -0.5084
 9744TIP3   OH250722   3.953   1.545  15.455 -0.5297  0.1598 -0.0454
 9744TIP3    H150723   4.015   1.519  15.523 -1.3310 -0.8341  0.3013
 9744TIP3    H250724   3.867   1.524  15.490 -1.0003  0.3341 -1.0566
 9745TIP3   OH250725   0.976   3.330   3.879 -0.5609 -0.0845  0.3130
 9745TIP3    H150726   0.898   3.282   3.907 -1.1063 -0.1060 -1.1951
 9745TIP3    H250727   0.942   3.407   3.833  0.3138  1.5241  2.3147
 9746TIP3   OH250728   0.311   3.372  16.753 -0.0769  0.0182 -0.4277
 9746TIP3    H150729   0.312   3.294  16.698  2.0004 -0.2022 -0.1201
 9746TIP3    H250730   0.323   3.445  16.693  0.1704 -0.0735 -0.4899
 9747TIP3   OH250731   0.854   5.369  15.639  0.3287 -0.0243 -0.0676
 9747TIP3    H150732   0.924   5.427  15.670  0.4183  0.5080 -1.2229
 9747TIP3    H250733   0.900   5.293  15.603  0.2918  0.0576 -0.2882
 9748TIP3   OH250734   1.236   6.727  15.657 -0.6754 -0.1857 -0.0772
 9748TIP3    H150735   1.157   6.706  15.707 -1.7435  0.9474 -1.2234
 9748TIP3    H250736   1.211   6.804  15.605  0.1627 -1.7297 -2.8332
 9749TIP3   OH250737   2.432   1.307   1.356 -0.0191  0.2807  0.5916
 9749TIP3    H150738   2.486   1.306   1.277  0.0884 -0.7064  0.6714
 9749TIP3    H250739   2.376   1.384   1.346 -0.2785 -0.0547 -0.6354
 9750TIP3   OH250740   0.143   4.459   3.025  0.3424  0.3275 -0.1257
 9750TIP3    H150741   0.186   4.387   3.070 -1.0441 -0.1531  0.4796
 9750TIP3    H250742   0.164   4.536   3.077 -0.6553 -0.1163  0.9703
 9751TIP3   OH250743   5.876   2.698  15.970 -0.3040 -0.1992  0.5852
 9751TIP3    H150744   5.843   2.679  15.882 -1.1032 -0.3915  0.9215
 9751TIP3    H250745   5.967   2.670  15.968  0.2321  1.5254 -0.7542
 9752TIP3   OH250746   1.180   0.279   2.229 -0.1783 -0.3409  0.1760
 9752TIP3    H150747   1.190   0.219   2.156 -0.4229 -1.3253  0.9391
 9752TIP3    H250748   1.104   0.332   2.207 -0.2443 -0.6313 -0.2878
 9753TIP3   OH250749   0.217   1.458  17.027 -0.0977  0.8429 -0.0382
 9753TIP3    H150750   0.295   1.512  17.008  0.7379  0.9125  3.2668
 9753TIP3    H250751   0.144   1.511  16.995  1.0101  2.1505 -0.4941
 9754TIP3   OH250752   0.909   4.337   5.526 -0.0266 -0.2962 -0.6209
 9754TIP3    H150753   0.860   4.311   5.604  0.9997 -1.2118 -0.2641
 9754TIP3    H250754   0.919   4.432   5.534  1.9745 -0.6443  1.5219
 9755TIP3   OH250755   0.162   1.359  14.194 -0.1431  0.0673  0.4518
 9755TIP3    H150756   0.239   1.409  14.168 -0.3171  0.4679  0.6954
 9755TIP3    H250757   0.090   1.397  14.143 -0.0985 -0.6089 -0.1136
 9756TIP3   OH250758   4.345   5.078  16.838 -0.3177 -0.0360 -0.4002
 9756TIP3    H150759   4.333   5.160  16.886  3.8607 -1.9894  4.5291
 9756TIP3    H250760   4.262   5.032  16.850 -1.6199  2.1846 -0.5853
 9757TIP3   OH250761   3.846   0.869   1.975  0.2319  0.0118  0.0634
 9757TIP3    H150762   3.765   0.920   1.977  2.6233  4.0330 -0.2572
 9757TIP3    H250763   3.860   0.851   1.883  0.3775  0.5262 -0.0199
 9758TIP3   OH250764   6.223   3.810   3.539 -0.7578 -0.0471 -0.0023
 9758TIP3    H150765   6.204   3.834   3.448  1.4102 -1.2677 -0.8329
 9758TIP3    H250766   6.234   3.715   3.535 -1.9433 -0.2776  1.8126
 9759TIP3   OH250767   4.087   4.592   5.394 -0.2632  0.1286 -0.8775
 9759TIP3    H150768   4.041   4.517   5.432  0.7717  0.5500  1.2491
 9759TIP3    H250769   4.179   4.575   5.410  0.0220  1.5589 -0.9228
 9760TIP3   OH250770   3.586   3.389   2.094  0.8454 -0.3130 -0.6695
 9760TIP3    H150771   3.583   3.300   2.128  1.6643  0.7684  2.3418
 9760TIP3    H250772   3.515   3.435   2.138  0.0200  0.4032 -2.6772
 9761TIP3   OH250773   6.084   5.196   2.754  0.1107  0.5835  0.0645
 9761TIP3    H150774   6.074   5.109   2.793  1.0832  0.1601 -0.6220
 9761TIP3    H250775   6.104   5.253   2.828 -0.5293  0.2378  0.5175
 9762TIP3   OH250776   0.329   6.537   4.311 -0.1185 -0.0954  0.4487
 9762TIP3    H150777   0.244   6.503   4.339 -0.4615  0.5727  0.2251
 9762TIP3    H250778   0.368   6.574   4.390 -0.1237 -0.2207  0.5094
 9763TIP3   OH250779   2.147   5.298  10.762 -0.0940 -0.1439  0.8666
 9763TIP3    H150780   2.224   5.354  10.774  0.0473 -0.0878 -0.2615
 9763TIP3    H250781   2.082   5.334  10.822 -0.0149  1.2562  0.1190
 9764TIP3   OH250782   0.307   3.184  15.397 -0.2596  0.5789 -0.6177
 9764TIP3    H150783   0.401   3.171  15.412  0.2548  4.9287  0.5476
 9764TIP3    H250784   0.264   3.139  15.470  1.1189  1.8127  0.9666
 9765TIP3   OH250785   2.868   6.449  13.616 -0.0269  0.0426 -0.4719
 9765TIP3    H150786   2.920   6.378  13.654  1.7694  1.0043 -1.0582
 9765TIP3    H250787   2.785   6.408  13.591  0.8162 -1.7519 -0.3880
 9766TIP3   OH250788   5.672   1.367  12.849  0.0542 -0.0954 -0.6367
 9766TIP3    H150789   5.648   1.276  12.834  0.1317 -0.4688  1.3529
 9766TIP3    H250790   5.765   1.372  12.827  0.3572 -0.8100  0.4440
 9767TIP3   OH250791   4.446   5.492  13.184 -0.1517  0.1764 -0.4031
 9767TIP3    H150792   4.445   5.520  13.276  0.9285 -2.8485  0.6004
 9767TIP3    H250793   4.413   5.567  13.136  1.7827  2.8224  2.1818
 9768TIP3   OH250794   4.197   5.682  16.401  0.3056  0.0848  0.2064
 9768TIP3    H150795   4.164   5.634  16.477 -0.7596  0.4554 -0.0138
 9768TIP3    H250796   4.118   5.714  16.357  0.9928  2.2314  0.4691
 9769TIP3   OH250797   1.489   6.788  13.454  0.2588 -0.2820  0.1639
 9769TIP3    H150798   1.520   6.868  13.410  1.4594 -0.6519  0.3208
 9769TIP3    H250799   1.394   6.798  13.458  0.3971  1.1336  0.1525
 9770TIP3   OH250800   3.426   5.460   1.838  0.0156 -0.5584 -0.3869
 9770TIP3    H150801   3.462   5.525   1.897 -1.3133 -0.4279  0.2873
 9770TIP3    H250802   3.495   5.445   1.774  1.7538 -1.2125  1.5798
 9771TIP3   OH250803   1.882   4.036  11.233  0.2437  0.1230  0.5729
 9771TIP3    H150804   1.920   4.122  11.213  1.1674 -0.5992 -0.8388
 9771TIP3    H250805   1.883   3.989  11.149 -2.0827 -0.5802  0.8918
 9772TIP3   OH250806   6.461   2.760   5.530  0.7451 -0.5134  0.2381
 9772TIP3    H150807   6.391   2.736   5.470  0.5567 -1.4432  0.8148
 9772TIP3    H250808   6.416   2.782   5.612  1.0030  0.6289  0.0874
 9773TIP3   OH250809   2.360   1.138  16.762  0.1882 -0.2499  0.0149
 9773TIP3    H150810   2.452   1.110  16.763 -0.0976 -1.2022 -0.0564
 9773TIP3    H250811   2.337   1.146  16.855  0.2838 -0.2425  0.0394
 9774TIP3   OH250812   5.411   1.456  12.768 -0.2389 -0.5565 -0.1015
 9774TIP3    H150813   5.407   1.447  12.673  0.0150  0.2389 -0.1898
 9774TIP3    H250814   5.493   1.412  12.792  1.8607  2.8174 -0.7146
 9775TIP3   OH250815   3.331   3.737   5.551 -0.8162 -0.9847 -0.4859
 9775TIP3    H150816   3.423   3.711   5.557  0.1962  1.7825 -2.9691
 9775TIP3    H250817   3.288   3.663   5.508  0.2869 -2.1419  0.3378
 9776TIP3   OH250818   3.215   6.339   2.207 -0.2252 -0.4608  0.1704
 9776TIP3    H150819   3.263   6.334   2.124 -0.4080 -2.4730  0.1714
 9776TIP3    H250820   3.130   6.375   2.183  0.3733  0.7143 -0.2252
 9777TIP3   OH250821   1.191   0.078   2.859  0.0829 -0.0015  0.3050
 9777TIP3    H150822   1.261   0.123   2.811 -0.5141  0.1246 -0.4562
 9777TIP3    H250823   1.215  -0.014   2.856  0.0496  0.0045 -0.2430
 9778TIP3   OH250824   4.551   6.064   4.412  0.2679  0.1850  0.0943
 9778TIP3    H150825   4.563   6.009   4.335 -1.0766 -0.7183  0.5116
 9778TIP3    H250826   4.640   6.093   4.435  0.8286 -0.6652 -0.9490
 9779TIP3   OH250827   4.158   1.498   5.458 -0.2419  0.3628  0.4617
 9779TIP3    H150828   4.245   1.459   5.467  0.2557  1.1389 -0.8323
 9779TIP3    H250829   4.172   1.592   5.472 -0.8878  0.4728  0.3824
 9780TIP3   OH250830   0.668   4.878  12.214 -0.7312  0.1519  0.2560
 9780TIP3    H150831   0.578   4.844  12.216 -0.5443 -0.3053  0.8139
 9780TIP3    H250832   0.718   4.818  12.269 -0.0962  0.4593  0.0158
 9781TIP3   OH250833   2.779   2.414   4.379  0.0205  0.1827 -0.0483
 9781TIP3    H150834   2.758   2.321   4.386 -0.7235  0.5072  2.4442
 9781TIP3    H250835   2.871   2.419   4.404 -0.3899  0.3084  1.4692
 9782TIP3   OH250836   5.055   3.774   2.341  0.1830  0.2396  0.9487
 9782TIP3    H150837   5.128   3.712   2.338 -0.7174 -0.7943 -0.9795
 9782TIP3    H250838   5.088   3.852   2.296 -0.3326 -0.7526 -1.2073
 9783TIP3   OH250839   4.181   3.634  14.101 -0.2886 -0.0257 -0.1907
 9783TIP3    H150840   4.106   3.627  14.043 -0.5091  1.2640 -0.0739
 9783TIP3    H250841   4.245   3.687  14.052  0.0328 -0.0324  0.2147
 9784TIP3   OH250842   4.708   6.308  16.738  0.2067  0.3913  0.1461
 9784TIP3    H150843   4.671   6.221  16.724 -0.7785  0.4767  2.0370
 9784TIP3    H250844   4.710   6.319  16.833  0.5540  2.3353 -0.0495
 9785TIP3   OH250845   5.594   2.435   1.590  0.2729 -0.1688 -0.0089
 9785TIP3    H150846   5.559   2.511   1.542  0.5009  0.9924  1.6281
 9785TIP3    H250847   5.596   2.365   1.525 -1.1297  0.8876 -1.2248
 9786TIP3   OH250848   5.313   2.420   0.985  0.3160  0.4359  0.0484
 9786TIP3    H150849   5.315   2.514   0.970  0.7616  0.2453 -1.1250
 9786TIP3    H250850   5.405   2.396   0.998  0.1919  0.1776  0.4788
 9787TIP3   OH250851   3.509   3.354  13.904 -0.2484  0.4503  0.6126
 9787TIP3    H150852   3.549   3.409  13.972 -0.3878 -1.3793  2.2147
 9787TIP3    H250853   3.421   3.335  13.937  0.7207 -2.9600  1.4428
 9788TIP3   OH250854   4.936   6.343   0.141  0.0625 -0.2615 -0.6313
 9788TIP3    H150855   4.989   6.362   0.219  1.6284 -0.5565 -1.5935
 9788TIP3    H250856   4.851   6.383   0.159  0.9928  1.3010  0.4501
 9789TIP3   OH250857   2.527   1.758   5.093  0.2433 -0.7951 -0.0441
 9789TIP3    H150858   2.491   1.730   5.009  0.1909 -0.6134 -0.0821
 9789TIP3    H250859   2.508   1.685   5.152  2.0783 -1.7910 -0.6639
 9790TIP3   OH250860   1.201   5.096   3.813  0.6339 -0.3835  0.1831
 9790TIP3    H150861   1.292   5.127   3.816  0.9713 -1.3394 -0.1603
 9790TIP3    H250862   1.173   5.098   3.905 -0.6348  4.6430 -0.1566
 9791TIP3   OH250863   4.954   3.425  16.484  0.4519  0.0771  0.0627
 9791TIP3    H150864   4.866   3.424  16.445  0.3145 -0.8431  0.3753
 9791TIP3    H250865   4.961   3.511  16.525  0.5246  0.9908 -1.7986
 9792TIP3   OH250866   3.086   2.002  13.373  0.2330 -0.6347 -0.0286
 9792TIP3    H150867   3.039   1.920  13.391  1.2180 -1.1406  0.2508
 9792TIP3    H250868   3.175   1.974  13.353  1.0661  0.5306  1.9997
 9793TIP3   OH250869   0.181   2.284  12.091 -0.1061  0.0673 -0.2994
 9793TIP3    H150870   0.146   2.359  12.043  1.3724  0.4613 -0.7908
 9793TIP3    H250871   0.273   2.306  12.106  0.3974 -1.7371 -0.6042
 9794TIP3   OH250872   4.081   6.532   4.029 -0.1929  0.6093  0.1090
 9794TIP3    H150873   4.098   6.458   3.972 -0.7578  1.1295 -0.7438
 9794TIP3    H250874   3.993   6.516   4.064  0.0659  0.3980  0.6618
 9795TIP3   OH250875   3.606   0.356   5.623 -0.5222  0.1199  0.9444
 9795TIP3    H150876   3.603   0.323   5.533 -1.9056 -0.6177  1.2441
 9795TIP3    H250877   3.691   0.398   5.630  0.5011 -1.7054 -0.0521
 9796TIP3   OH250878   1.507   0.816  15.238 -0.2269 -0.2427  0.7216
 9796TIP3    H150879   1.426   0.770  15.257 -1.4521  0.7885 -1.8344
 9796TIP3    H250880   1.566   0.748  15.205 -0.7579 -0.6441  0.5986
 9797TIP3   OH250881   3.786   6.205  14.899 -0.1068  0.4940 -0.2452
 9797TIP3    H150882   3.802   6.127  14.952  2.2145  1.2418  0.2234
 9797TIP3    H250883   3.869   6.253  14.901 -1.9824  3.8473  0.9246
 9798TIP3   OH250884   6.649   4.149  12.490  0.5467 -0.2738 -0.4206
 9798TIP3    H150885   6.592   4.178  12.562  0.8295 -3.4605  1.1945
 9798TIP3    H250886   6.697   4.227  12.464 -0.5477  1.2493  2.0005
 9799TIP3   OH250887   6.639   1.092   5.234  0.2324 -0.0010 -0.0909
 9799TIP3    H150888   6.703   1.147   5.189  2.7798 -1.9331  1.0708
 9799TIP3    H250889   6.691   1.028   5.282 -2.5635 -1.2451  1.4227
 9800TIP3   OH250890   5.552   6.467  15.233 -0.0328  0.5229  0.2287
 9800TIP3    H150891   5.570   6.545  15.285  1.5317 -1.3576  2.6409
 9800TIP3    H250892   5.485   6.419  15.283  0.0490 -0.3647 -0.4860
 9801TIP3   OH250893   2.400   6.252  11.245 -0.6494  0.1027 -0.1249
 9801TIP3    H150894   2.305   6.264  11.253 -0.5468 -0.0942  1.5363
 9801TIP3    H250895   2.417   6.168  11.287  0.1310 -0.3509 -1.3515
 9802TIP3   OH250896   0.004   1.817   0.781 -0.4394 -0.4503 -0.4159
 9802TIP3    H150897   0.053   1.839   0.702 -0.8957  0.9356 -0.3194
 9802TIP3    H250898  -0.073   1.873   0.778 -0.6185 -0.6177  0.8634
 9803TIP3   OH250899   2.527   3.263   2.937 -0.1269 -0.0507 -0.2577
 9803TIP3    H150900   2.601   3.308   2.979  0.2192  0.5364 -1.4795
 9803TIP3    H250901   2.462   3.257   3.007  2.0109 -2.9467  1.6313
 9804TIP3   OH250902   3.536   2.826   3.359  0.1291 -0.2108 -0.1059
 9804TIP3    H150903   3.451   2.781   3.352  0.3978 -0.7080 -0.1677
 9804TIP3    H250904   3.598   2.768   3.315  0.8994 -0.8840  1.8458
 9805TIP3   OH250905   5.437   0.322   4.347 -0.0092 -0.4102 -0.2262
 9805TIP3    H150906   5.410   0.414   4.341  0.2851 -0.2565  0.6890
 9805TIP3    H250907   5.481   0.304   4.264 -2.1858 -0.4290 -1.4183
 9806TIP3   OH250908   3.015   4.546   3.889  1.2834 -0.6265  0.4440
 9806TIP3    H150909   3.068   4.626   3.886 -1.0237  0.9907  1.4724
 9806TIP3    H250910   2.952   4.556   3.818 -0.7257 -0.2577  2.2259
 9807TIP3   OH250911   1.163   4.091  16.408  0.1192 -0.8868 -0.0113
 9807TIP3    H150912   1.128   4.039  16.480 -1.0868  0.5033  0.4403
 9807TIP3    H250913   1.086   4.119  16.359  0.9354 -1.8597 -1.8838
 9808TIP3   OH250914   2.554   2.637   0.069  0.1762  0.2909  0.2247
 9808TIP3    H150915   2.596   2.723   0.077  1.0974 -0.1790  0.4288
 9808TIP3    H250916   2.478   2.642   0.127 -0.7644  1.5622 -1.0650
 9809TIP3   OH250917   0.039   3.185   1.044 -0.1681 -0.2106 -0.0802
 9809TIP3    H150918  -0.019   3.110   1.030  1.6041 -2.1608  2.6291
 9809TIP3    H250919  -0.001   3.233   1.116 -0.5431  0.6943 -0.8802
 9810TIP3   OH250920   4.838   5.556  11.079 -0.1596  0.0009  0.2284
 9810TIP3    H150921   4.767   5.574  11.140 -1.7896  0.2345 -1.7077
 9810TIP3    H250922   4.831   5.624  11.013  0.5861 -1.1828 -1.0859
 9811TIP3   OH250923   6.344   0.706   4.085  0.0896 -0.0729  0.8284
 9811TIP3    H150924   6.343   0.715   4.180  0.0758 -0.2388  0.8429
 9811TIP3    H250925   6.270   0.760   4.055  0.8230  0.9491  0.8303
 9812TIP3   OH250926   2.550   3.434  12.691  0.1754 -0.3980  0.3127
 9812TIP3    H150927   2.632   3.455  12.645 -0.3223  0.5954 -0.1387
 9812TIP3    H250928   2.530   3.344  12.665 -0.6103  0.4628 -2.2240
 9813TIP3   OH250929   4.130   0.381  17.002 -0.7522 -0.1756 -0.1131
 9813TIP3    H150930   4.081   0.446  17.054  1.3808  0.7686  0.7630
 9813TIP3    H250931   4.195   0.346  17.062 -0.2196 -1.2874 -1.3167
 9814TIP3   OH250932   0.306   4.477   2.779  0.5013 -0.1407 -0.0522
 9814TIP3    H150933   0.233   4.443   2.831 -0.3583  0.4524 -0.8735
 9814TIP3    H250934   0.364   4.402   2.768  0.5377 -0.3570  1.5016
 9815TIP3   OH250935   3.859   2.124   1.344  0.4184  0.2060 -0.4047
 9815TIP3    H150936   3.878   2.058   1.411  0.8630  0.0140 -0.7143
 9815TIP3    H250937   3.840   2.073   1.265  0.7456  0.4507 -0.6400
 9816TIP3   OH250938   0.240   4.266   5.549 -0.0267  0.2607  0.0330
 9816TIP3    H150939   0.229   4.340   5.609  0.7178 -0.1839  0.7270
 9816TIP3    H250940   0.165   4.272   5.490 -0.9831  0.4743  1.2484
 9817TIP3   OH250941   4.749   3.070   1.864  0.3647 -0.1125  0.2003
 9817TIP3    H150942   4.735   3.057   1.771 -1.3075 -0.5096  0.4908
 9817TIP3    H250943   4.787   2.987   1.895 -0.8595 -0.6777  0.2108
 9818TIP3   OH250944   2.581   1.336   2.881 -0.0264  0.0331  0.1283
 9818TIP3    H150945   2.600   1.414   2.829  0.7529 -0.7655 -0.8040
 9818TIP3    H250946   2.594   1.363   2.972 -2.0637  1.6415 -0.0161
 9819TIP3   OH250947   2.252   5.404   5.985  0.2938  0.2984  0.5008
 9819TIP3    H150948   2.331   5.405   5.930 -0.4345 -3.2336 -0.8026
 9819TIP3    H250949   2.281   5.366   6.068 -0.0040 -1.1097 -0.0190
 9820TIP3   OH250950   6.434   2.875  11.930 -0.3438  0.3971 -0.3695
 9820TIP3    H150951   6.400   2.886  11.841  0.0568 -0.3516 -0.6228
 9820TIP3    H250952   6.529   2.883  11.921 -0.2374 -0.5319 -0.1547
 9821TIP3   OH250953   5.414   1.725  11.905 -0.4907 -0.1867 -0.2131
 9821TIP3    H150954   5.338   1.743  11.959  0.9350  0.6260  1.5661
 9821TIP3    H250955   5.465   1.661  11.955  0.1735 -0.4657 -1.2204
 9822TIP3   OH250956   2.104   2.118   5.794 -0.7156  0.2610 -0.4977
 9822TIP3    H150957   2.056   2.174   5.855  2.1686  0.9057  1.2780
 9822TIP3    H250958   2.102   2.031   5.835  0.1877  0.4340 -0.0793
 9823TIP3   OH250959   1.607   5.384   4.120 -0.4212 -0.4326  0.4301
 9823TIP3    H150960   1.676   5.447   4.098  0.5585 -0.7211  2.5646
 9823TIP3    H250961   1.558   5.426   4.191 -2.7096 -0.0858 -1.2850
 9824TIP3   OH250962   5.052   4.416  13.561 -0.2437 -0.0431  0.3067
 9824TIP3    H150963   5.072   4.451  13.474 -1.0360 -3.0878 -1.1721
 9824TIP3    H250964   4.957   4.428  13.570 -0.0299  1.0552  1.1246
 9825TIP3   OH250965   0.861   3.715  17.018  0.1732  0.6570  0.0601
 9825TIP3    H150966   0.913   3.691  16.940  0.7226 -1.5308  1.0690
 9825TIP3    H250967   0.789   3.768  16.983 -0.2540 -1.2707 -2.1047
 9826TIP3   OH250968   0.481   4.166   2.426 -0.6590  0.5514 -0.6319
 9826TIP3    H150969   0.485   4.115   2.345 -0.0214  0.6091 -0.6328
 9826TIP3    H250970   0.437   4.247   2.401 -1.3940  0.1449 -0.6980
 9827TIP3   OH250971   5.546   6.189  12.254  0.2477  0.1755  0.4018
 9827TIP3    H150972   5.567   6.112  12.308  0.0600  1.2514  2.0613
 9827TIP3    H250973   5.483   6.237  12.307  0.9882  1.8908 -0.2609
 9828TIP3   OH250974   5.074   0.526   4.539 -0.4714 -0.1268  0.3740
 9828TIP3    H150975   5.075   0.599   4.477  0.8021 -0.2443  0.2503
 9828TIP3    H250976   5.073   0.567   4.625 -0.5978  0.0356  0.2957
 9829TIP3   OH250977   2.510   0.635   5.389 -0.0489 -0.0973  0.2370
 9829TIP3    H150978   2.507   0.729   5.371  0.9581 -0.3492 -1.3785
 9829TIP3    H250979   2.464   0.625   5.472 -1.5362  1.6304 -0.3485
 9830TIP3   OH250980   4.569   3.205   2.015  0.0076  0.4729  0.4589
 9830TIP3    H150981   4.605   3.240   2.096  0.9475 -1.4023  0.8797
 9830TIP3    H250982   4.642   3.160   1.973 -1.0864 -0.7915 -0.1470
 9831TIP3   OH250983   1.328   1.717   6.153  0.0501  0.3429  0.2267
 9831TIP3    H150984   1.381   1.702   6.231 -0.2455 -1.5813  0.0917
 9831TIP3    H250985   1.383   1.687   6.081 -0.0472  1.2115 -0.2085
 9832TIP3   OH250986   3.482   4.808   4.685 -0.5161  0.8894  0.3598
 9832TIP3    H150987   3.418   4.864   4.729 -0.0245  1.1120  0.7800
 9832TIP3    H250988   3.561   4.815   4.737 -0.6712 -0.7951  0.8538
 9833TIP3   OH250989   0.899   2.092  11.439 -0.3170 -0.9161 -0.5350
 9833TIP3    H150990   0.984   2.131  11.461 -1.2407 -0.3624  2.2356
 9833TIP3    H250991   0.875   2.041  11.516 -2.9902 -0.2016 -0.8242
 9834TIP3   OH250992   2.306   2.166  13.482  0.2928 -0.0128 -0.0372
 9834TIP3    H150993   2.311   2.253  13.521  0.4096  0.1432 -0.3987
 9834TIP3    H250994   2.323   2.180  13.389 -0.5711 -0.3006 -0.2486
 9835TIP3   OH250995   0.005   2.711   4.247  0.6285  0.4963  0.0761
 9835TIP3    H150996  -0.046   2.645   4.295  0.6686  0.7885  0.5215
 9835TIP3    H250997  -0.001   2.790   4.300  1.1372  0.6723 -0.1218
 9836TIP3   OH250998   3.968   5.324   2.546  0.2339  0.1465  0.1020
 9836TIP3    H150999   3.907   5.382   2.501 -0.8791  0.1367  1.5528
 9836TIP3    H251000   4.028   5.383   2.592 -1.6805  0.2135  2.6255
 9837TIP3   OH251001   6.165   0.554  16.630  0.1397  0.5118 -0.1016
 9837TIP3    H151002   6.178   0.459  16.621 -0.5155  0.4855 -0.8299
 9837TIP3    H251003   6.207   0.576  16.713  0.4616 -0.3860 -0.0163
 9838TIP3   OH251004   1.169   1.001  11.519 -0.4247  0.2080 -0.1043
 9838TIP3    H151005   1.164   0.988  11.424  0.1211  1.3402 -0.3011
 9838TIP3    H251006   1.246   0.951  11.546 -0.3630  0.1820 -0.3254
 9839TIP3   OH251007   3.041   4.430   4.277 -0.1366 -0.5256  0.0778
 9839TIP3    H151008   3.104   4.368   4.239  1.3313  0.4616  0.8516
 9839TIP3    H251009   3.094   4.488   4.331 -1.7666  0.1604  0.9785
 9840TIP3   OH251010   5.812   5.058   0.897 -0.4271 -0.2063 -0.0368
 9840TIP3    H151011   5.790   5.103   0.816 -1.7903 -0.9988 -0.1316
 9840TIP3    H251012   5.893   5.099   0.927  0.3221 -0.2080 -2.0243
 9841TIP3   OH251013   0.530   4.007  16.377 -0.0179  0.2689  0.1342
 9841TIP3    H151014   0.567   4.038  16.294 -1.2262  0.1878 -0.4589
 9841TIP3    H251015   0.491   4.085  16.416 -0.1794  0.1430  0.2214
 9842TIP3   OH251016   2.372   4.621   5.008 -0.1409 -0.2217  0.3780
 9842TIP3    H151017   2.405   4.553   5.066 -0.2995  0.5443  1.3854
 9842TIP3    H251018   2.277   4.612   5.012 -0.1371 -0.5518 -0.2348
 9843TIP3   OH251019   1.261   6.442  14.286 -1.1443  0.2785  0.5017
 9843TIP3    H151020   1.287   6.507  14.352 -0.4446  1.7206 -1.1343
 9843TIP3    H251021   1.243   6.494  14.207 -4.0132 -1.2014  0.1160
 9844TIP3   OH251022   3.980   5.362  12.463 -0.9657 -0.7128 -0.1368
 9844TIP3    H151023   4.050   5.383  12.525 -2.1366 -3.5204  2.2520
 9844TIP3    H251024   3.916   5.433  12.474 -0.0141  0.1269  0.0341
 9845TIP3   OH251025   1.663   5.290   1.277  0.6282 -0.3777  0.0805
 9845TIP3    H151026   1.666   5.355   1.347 -0.6847 -0.1786 -0.0346
 9845TIP3    H251027   1.617   5.333   1.205  0.7803 -1.0322 -0.4151
 9846TIP3   OH251028   0.702   2.888  15.120  0.3984  0.6556  0.4345
 9846TIP3    H151029   0.622   2.911  15.073 -0.3435 -2.3389  0.1456
 9846TIP3    H251030   0.771   2.937  15.075 -0.5253 -0.8192 -2.7003
 9847TIP3   OH251031   1.618   2.498  13.732 -0.4410 -0.0684 -0.0770
 9847TIP3    H151032   1.605   2.570  13.670  1.1615  1.5633  1.4418
 9847TIP3    H251033   1.697   2.454  13.701 -0.1875  0.1601  0.2408
 9848TIP3   OH251034   6.600   4.607   4.397  0.1206  0.0314  0.4461
 9848TIP3    H151035   6.523   4.554   4.415  0.0301 -0.0923 -0.2837
 9848TIP3    H251036   6.671   4.543   4.385  0.2147  0.1168  0.5484
 9849TIP3   OH251037   4.353   2.291   1.303 -0.3934 -0.2966  0.0279
 9849TIP3    H151038   4.337   2.385   1.293  2.1424 -0.0218 -1.8529
 9849TIP3    H251039   4.431   2.274   1.251  0.1436 -3.1763  1.6620
 9850TIP3   OH251040   1.617   1.939   3.558  0.3690  0.4371 -0.1312
 9850TIP3    H151041   1.589   1.855   3.594  1.1007  0.6519  0.9563
 9850TIP3    H251042   1.712   1.932   3.553  0.3778  0.9390 -0.7116
 9851TIP3   OH251043   1.947   1.828   3.872  0.0117 -0.5452 -0.0646
 9851TIP3    H151044   1.895   1.762   3.825  0.7327 -1.3865  0.3130
 9851TIP3    H251045   1.983   1.781   3.947 -1.3412  0.8389  1.5118
 9852TIP3   OH251046   3.971   4.921  12.309  0.2790  0.4436 -0.0930
 9852TIP3    H151047   3.994   4.844  12.257 -1.2622  0.7338 -1.2308
 9852TIP3    H251048   3.899   4.962  12.261 -0.3542  1.4040  1.6252
 9853TIP3   OH251049   3.013   6.586   1.642  0.3759  0.0291 -0.3435
 9853TIP3    H151050   2.920   6.605   1.654 -0.0010 -0.5966 -2.2006
 9853TIP3    H251051   3.041   6.644   1.571  1.0319 -0.9212 -0.8668
 9854TIP3   OH251052   1.729   3.729  11.873 -0.5360  0.2245  0.0702
 9854TIP3    H151053   1.694   3.758  11.958 -2.6420 -0.4463 -0.5391
 9854TIP3    H251054   1.652   3.723  11.817  0.7509 -0.1201 -1.6781
 9855TIP3   OH251055   1.601   0.706  11.415 -0.1168 -0.4231 -0.0152
 9855TIP3    H151056   1.673   0.739  11.468  0.2559 -0.2900 -0.5942
 9855TIP3    H251057   1.615   0.611  11.412 -0.3142 -0.4664  0.3760
 9856TIP3   OH251058   2.271   2.035   1.170  0.0306  0.2698 -0.0796
 9856TIP3    H151059   2.284   2.111   1.227  0.0118 -0.7575  1.3275
 9856TIP3    H251060   2.177   2.017   1.177 -0.3350  1.3351 -2.0076
 9857TIP3   OH251061   3.150   2.810   1.985  0.4071 -0.2350 -0.1304
 9857TIP3    H151062   3.148   2.803   1.890 -0.2164 -1.5848 -0.0210
 9857TIP3    H251063   3.238   2.845   2.004  0.3599  0.5047 -1.2125
 9858TIP3   OH251064   2.271   1.650  15.567  0.0224  0.0142  0.1617
 9858TIP3    H151065   2.260   1.559  15.540  0.9547 -0.1053  0.1766
 9858TIP3    H251066   2.337   1.685  15.508 -0.7831  0.8578 -0.2379
 9859TIP3   OH251067   5.836   0.222  12.342  0.3144  0.4175  0.3819
 9859TIP3    H151068   5.747   0.198  12.317  0.3974  0.8913 -0.4074
 9859TIP3    H251069   5.838   0.318  12.334  1.1194  0.3425 -0.3998
 9860TIP3   OH251070   5.533   0.655  16.461 -0.0676 -0.4197  0.2549
 9860TIP3    H151071   5.565   0.711  16.532  2.7955 -0.0723 -1.2441
 9860TIP3    H251072   5.540   0.710  16.383 -2.9833 -0.8778 -0.3617
 9861TIP3   OH251073   3.082   0.446  11.792 -0.0059 -0.3817 -0.1626
 9861TIP3    H151074   3.124   0.480  11.871  1.8496 -1.0668 -0.8120
 9861TIP3    H251075   3.096   0.514  11.726 -0.7536 -0.2052 -0.1410
 9862TIP3   OH251076   3.740   3.354  14.812 -0.8004  0.6361  0.0855
 9862TIP3    H151077   3.752   3.398  14.896 -0.5185  0.3510  0.1967
 9862TIP3    H251078   3.829   3.334  14.782 -0.8991  0.7102 -0.2697
 9863TIP3   OH251079   3.000   2.902   5.092 -0.0405 -0.2310 -0.0565
 9863TIP3    H151080   3.024   2.865   5.176  0.2470  0.7223  0.2935
 9863TIP3    H251081   2.977   2.827   5.037  2.5481 -1.0923 -0.0147
 9864TIP3   OH251082   2.725   5.850  11.367  0.1956  0.2290 -0.7825
 9864TIP3    H151083   2.753   5.785  11.304  1.5250  0.6545 -0.6479
 9864TIP3    H251084   2.772   5.828  11.448  0.1862  0.9764 -0.5627
 9865TIP3   OH251085   2.966   5.106  16.617 -0.1074  0.1951  0.6613
 9865TIP3    H151086   2.891   5.058  16.653  0.5407 -1.3737 -0.0780
 9865TIP3    H251087   3.026   5.039  16.586  0.6389  1.4848 -0.7686
 9866TIP3   OH251088   2.405   2.263  12.579  0.4904 -0.2572 -0.2629
 9866TIP3    H151089   2.445   2.267  12.491  1.5236 -1.1211  0.1549
 9866TIP3    H251090   2.380   2.354  12.597  1.7102  0.2115 -0.8127
 9867TIP3   OH251091   0.696   2.069   3.822  0.3508  0.5313 -0.4481
 9867TIP3    H151092   0.635   2.122   3.874  0.6741 -1.2814  1.8154
 9867TIP3    H251093   0.781   2.111   3.835  0.2049  0.8893 -0.6387
 9868TIP3   OH251094   1.475   5.788  15.916 -0.3132 -0.5635  0.2927
 9868TIP3    H151095   1.494   5.731  15.842  0.6404 -0.0092  0.0983
 9868TIP3    H251096   1.391   5.757  15.949 -0.5474 -1.0897 -0.7567
 9869TIP3   OH251097   1.958   6.056  12.113  0.5960  0.0018 -0.7108
 9869TIP3    H151098   2.051   6.071  12.094  0.6773 -0.8990 -1.0459
 9869TIP3    H251099   1.948   5.961  12.107  0.2311 -0.1593  2.0046
 9870TIP3   OH251100   5.699   4.772   3.680 -0.3726  0.2560 -1.0485
 9870TIP3    H151101   5.745   4.839   3.730  1.3038 -1.8964  0.4029
 9870TIP3    H251102   5.750   4.762   3.600  1.9555 -2.2953  0.6634
 9871TIP3   OH251103   2.342   1.377  13.848  0.3432 -0.5113 -0.5335
 9871TIP3    H151104   2.359   1.345  13.759  0.2038 -1.6004 -0.1812
 9871TIP3    H251105   2.357   1.300  13.904  2.5724  0.6998  0.6124
 9872TIP3   OH251106   4.965   0.057   3.782 -0.2905 -0.3096 -0.0887
 9872TIP3    H151107   5.023  -0.005   3.826  0.8101  0.4711 -0.4298
 9872TIP3    H251108   5.017   0.092   3.710 -1.6555 -0.6309 -1.2538
 9873TIP3   OH251109   5.736   2.456  13.623 -0.2445  0.2156  0.1989
 9873TIP3    H151110   5.754   2.366  13.596 -2.7794 -0.1964 -0.2882
 9873TIP3    H251111   5.785   2.510  13.560 -0.8289 -0.8075 -1.1736
 9874TIP3   OH251112   3.135   0.215  14.508 -0.0174  0.0887 -0.0081
 9874TIP3    H151113   3.211   0.163  14.484 -0.8450 -0.6059 -1.1486
 9874TIP3    H251114   3.068   0.193  14.444 -1.2363  0.5894  1.0462
 9875TIP3   OH251115   3.717   2.535   1.198  0.3993 -0.5756  0.2569
 9875TIP3    H151116   3.636   2.578   1.225 -0.1810 -0.0901 -2.1399
 9875TIP3    H251117   3.757   2.506   1.280 -1.0337  1.2414  1.6409
 9876TIP3   OH251118   1.535   1.645   1.568 -0.0374  0.5211 -0.3903
 9876TIP3    H151119   1.469   1.579   1.544  1.7830 -0.9822 -1.4394
 9876TIP3    H251120   1.606   1.630   1.506  1.4605  1.8404  0.9830
 9877TIP3   OH251121   0.534   5.372  15.356 -0.1462  0.0654  0.8158
 9877TIP3    H151122   0.590   5.422  15.297 -1.2213  0.7738  0.3765
 9877TIP3    H251123   0.562   5.398  15.444  1.1443 -0.6375  0.6178
 9878TIP3   OH251124   5.859   2.519   2.323 -0.2019  0.1923  0.8101
 9878TIP3    H151125   5.823   2.603   2.297 -0.9185 -0.8259 -1.6440
 9878TIP3    H251126   5.806   2.454   2.277  2.3173 -1.4957  0.1518
 9879TIP3   OH251127   0.501   4.442   4.036 -0.1374  0.1923  0.0836
 9879TIP3    H151128   0.418   4.414   3.999  0.0594 -1.2209  0.6835
 9879TIP3    H251129   0.567   4.398   3.983  0.1839 -0.1577  0.7726
 9880TIP3   OH251130   6.255   3.048   1.671 -0.8380 -0.0543 -0.1799
 9880TIP3    H151131   6.210   2.991   1.734 -1.2330  1.1521  0.6539
 9880TIP3    H251132   6.186   3.106   1.639 -0.4380 -0.0452 -1.0151
 9881TIP3   OH251133   0.763   2.911  16.043  0.1340  0.1706  0.2117
 9881TIP3    H151134   0.780   2.817  16.048 -1.0051 -0.2246 -2.4540
 9881TIP3    H251135   0.848   2.949  16.021  0.3393 -0.3767  0.0323
 9882TIP3   OH251136   2.413   3.864   0.191  0.2401  0.4654 -0.2561
 9882TIP3    H151137   2.492   3.916   0.176 -1.5740  2.8777 -1.8949
 9882TIP3    H251138   2.355   3.887   0.118 -2.4269 -0.2975  1.5418
 9883TIP3   OH251139   1.613   5.235   0.195 -0.4558  0.2529  0.5850
 9883TIP3    H151140   1.624   5.168   0.262  0.9223  0.7741  0.8940
 9883TIP3    H251141   1.519   5.233   0.175 -0.7233 -0.5637  1.8260
 9884TIP3   OH251142   2.973   0.375   4.897  0.1575 -0.4018 -0.6768
 9884TIP3    H151143   2.963   0.461   4.856 -0.7950 -0.1955 -0.0145
 9884TIP3    H251144   2.912   0.319   4.850 -0.1558 -0.4152 -0.2557
 9885TIP3   OH251145   2.417   6.714  14.606 -0.2525 -0.0300  0.2086
 9885TIP3    H151146   2.363   6.715  14.685  1.2199  1.0547  1.2453
 9885TIP3    H251147   2.492   6.660  14.630 -0.6538 -1.1687 -1.0716
 9886TIP3   OH251148   1.347   0.821  15.778  0.2445  0.2511  0.4459
 9886TIP3    H151149   1.335   0.895  15.837  0.4338  0.0287  0.7639
 9886TIP3    H251150   1.440   0.797  15.787 -0.1842 -1.0615  1.5778
 9887TIP3   OH251151   2.900   4.229   0.529 -0.0373  0.3795  0.2678
 9887TIP3    H151152   2.924   4.137   0.540  0.4498  0.6329  1.3720
 9887TIP3    H251153   2.868   4.234   0.439  1.2891 -0.5684 -0.2776
 9888TIP3   OH251154   4.362   6.272   0.138  0.1889 -0.1569 -0.4935
 9888TIP3    H151155   4.272   6.280   0.106 -0.0510  0.4563  0.3177
 9888TIP3    H251156   4.356   6.291   0.231  1.3084  0.8084 -0.6089
 9889TIP3   OH251157   3.910   3.676   5.014  0.1412  0.0842  0.3025
 9889TIP3    H151158   3.916   3.616   5.089  1.3794 -1.6412 -1.1386
 9889TIP3    H251159   3.997   3.715   5.008  0.2825 -0.3898 -0.7321
 9890TIP3   OH251160   4.528   1.306   4.800 -0.4489  0.2935 -0.2471
 9890TIP3    H151161   4.611   1.347   4.777 -0.8736  1.4376  0.2017
 9890TIP3    H251162   4.538   1.280   4.891 -0.0783 -0.8767 -0.6171
 9891TIP3   OH251163   2.042   1.497   2.589  0.2109 -0.2986 -0.1911
 9891TIP3    H151164   2.095   1.518   2.512  0.0248 -0.3372 -0.3291
 9891TIP3    H251165   1.990   1.421   2.563 -0.3021  0.0659 -0.2339
 9892TIP3   OH251166   5.011   4.343   0.094 -0.3639  0.0960  0.0154
 9892TIP3    H151167   5.025   4.253   0.124  0.3713  0.1233 -0.2289
 9892TIP3    H251168   5.079   4.394   0.138 -0.2303  0.3846 -0.5197
 9893TIP3   OH251169   4.254   4.460   5.104  0.3144  0.8256 -0.7742
 9893TIP3    H151170   4.205   4.381   5.128  0.0896  0.2864 -2.8633
 9893TIP3    H251171   4.341   4.447   5.142 -0.6332  1.0167  1.5276
 9894TIP3   OH251172   4.128   2.407  15.627 -0.0582 -0.3383 -0.1011
 9894TIP3    H151173   4.118   2.486  15.574 -0.1132  1.0434  1.8943
 9894TIP3    H251174   4.044   2.362  15.618 -0.4064  0.3706 -0.4339
 9895TIP3   OH251175   1.238   4.882   4.597 -0.2189  0.1549  0.0360
 9895TIP3    H151176   1.188   4.941   4.653  0.5282  0.7627  0.0669
 9895TIP3    H251177   1.245   4.801   4.648 -1.1480  0.0634  0.0368
 9896TIP3   OH251178   4.285   3.019  15.334 -0.5636 -0.0278  0.7417
 9896TIP3    H151179   4.214   3.078  15.309 -0.0023  1.1152  1.7845
 9896TIP3    H251180   4.249   2.968  15.406 -1.0007 -0.8584 -0.0646
 9897TIP3   OH251181   0.589   4.878   5.157 -0.2817 -0.0421 -0.1367
 9897TIP3    H151182   0.596   4.948   5.093 -1.3923  0.4783  0.2948
 9897TIP3    H251183   0.537   4.810   5.114 -0.1896 -0.1084 -0.1436
 9898TIP3   OH251184   1.032   4.612   3.743 -0.2336  0.2962 -0.7382
 9898TIP3    H151185   1.042   4.697   3.787  0.3572  0.8392 -1.9129
 9898TIP3    H251186   1.106   4.608   3.683  1.0217 -2.0367  0.8793
 9899TIP3   OH251187   6.690   1.029   0.835 -0.1814 -0.6061 -0.3345
 9899TIP3    H151188   6.617   0.972   0.814 -0.2915 -0.2268 -1.0267
 9899TIP3    H251189   6.745   1.027   0.756  0.9266 -1.4493  0.4410
 9900TIP3   OH251190   5.399   6.156   4.900 -0.0743 -0.1072  0.0139
 9900TIP3    H151191   5.360   6.130   4.983 -1.8020 -1.3690 -1.1740
 9900TIP3    H251192   5.456   6.229   4.923 -0.5924 -0.3738  2.2927
 9901TIP3   OH251193   2.515   1.541   1.016 -0.4101 -0.0922 -0.8744
 9901TIP3    H151194   2.505   1.587   1.100 -0.8723  0.1761 -1.0750
 9901TIP3    H251195   2.492   1.450   1.036  0.5211 -0.2489 -0.4723
 9902TIP3   OH251196   6.027   5.227   5.075 -0.2437  0.2497 -0.1664
 9902TIP3    H151197   6.071   5.151   5.112  0.7120  1.2687  0.8461
 9902TIP3    H251198   5.965   5.254   5.143 -0.7638  0.2017 -0.6277
 9903TIP3   OH251199   6.754   2.742  14.437  0.5975  0.1643  0.4438
 9903TIP3    H151200   6.798   2.662  14.409 -0.7859 -0.7862  0.9153
 9903TIP3    H251201   6.736   2.790  14.356  1.5883  0.0905  0.1750
 9904TIP3   OH251202   5.050   2.812   0.059 -0.0903  0.3633 -0.4880
 9904TIP3    H151203   5.034   2.773  -0.027 -1.4186 -0.0712 -0.0584
 9904TIP3    H251204   5.066   2.904   0.041  2.1248 -0.1828 -1.4390
 9905TIP3   OH251205   5.146   4.682  11.212 -0.0885  0.6562  0.3735
 9905TIP3    H151206   5.133   4.606  11.155 -0.0835 -0.3479  1.6959
 9905TIP3    H251207   5.064   4.732  11.205  0.1670  0.8928 -1.0240
 9906TIP3   OH251208   5.206   0.258   0.097  0.3163  0.3270 -0.0584
 9906TIP3    H151209   5.140   0.257   0.027 -0.5192  1.4336  0.6949
 9906TIP3    H251210   5.219   0.350   0.117  2.3217  0.1259 -0.3774
 9907TIP3   OH251211   2.761   0.813  12.054  0.6553 -0.2291  0.3990
 9907TIP3    H151212   2.705   0.882  12.019  0.6373 -0.5663 -0.2448
 9907TIP3    H251213   2.841   0.858  12.079  0.9646 -0.0896 -0.7897
 9908TIP3   OH251214   2.452   1.632   1.274  0.0134 -0.6112 -0.0277
 9908TIP3    H151215   2.530   1.634   1.330  1.0337  3.2216 -1.4205
 9908TIP3    H251216   2.414   1.719   1.283 -1.6389 -0.9953 -2.7921
 9909TIP3   OH251217   4.009   3.291  14.854  0.0274  0.2124 -0.1080
 9909TIP3    H151218   4.016   3.287  14.949  0.6121  1.6051 -0.0764
 9909TIP3    H251219   4.100   3.290  14.823 -0.2052 -2.3936 -0.7646
 9910TIP3   OH251220   2.213   2.934  11.863 -0.2228  0.1446 -0.0869
 9910TIP3    H151221   2.206   2.851  11.910 -1.8970 -0.0797 -0.6588
 9910TIP3    H251222   2.143   2.988  11.899  1.2008  1.5145  0.6546
 9911TIP3   OH251223   5.705   2.686  17.084  0.1106 -0.0764  0.4345
 9911TIP3    H151224   5.768   2.647  17.023  0.0122  0.7515 -0.2108
 9911TIP3    H251225   5.658   2.611  17.121 -1.0522 -0.5208 -1.8234
 9912TIP3   OH251226   0.912   0.105  15.356  0.6445 -0.3972 -0.3354
 9912TIP3    H151227   1.003   0.124  15.378  0.4926 -1.1467  1.0103
 9912TIP3    H251228   0.916   0.063  15.270  1.3527  1.5944 -1.3048
 9913TIP3   OH251229   5.116   0.987  15.313  0.2216  0.2268  0.1122
 9913TIP3    H151230   5.084   0.901  15.287 -3.6613  1.5160  0.3171
 9913TIP3    H251231   5.134   0.978  15.407 -2.0608  0.1411  0.5626
 9914TIP3   OH251232   6.347   0.986  12.695 -0.2331  0.2817  0.2011
 9914TIP3    H151233   6.351   1.060  12.755 -1.8949 -0.1888  0.9266
 9914TIP3    H251234   6.367   0.910  12.750  0.7063  0.1037 -0.3774
 9915TIP3   OH251235   1.176   0.150   3.576 -0.1452  0.1380 -0.1658
 9915TIP3    H151236   1.143   0.193   3.655  0.5122  1.1449 -0.4302
 9915TIP3    H251237   1.137   0.199   3.504  1.1475  0.7542 -0.4746
 9916TIP3   OH251238   3.241   0.149   0.211  0.0585 -0.7985  0.3886
 9916TIP3    H151239   3.314   0.141   0.271  1.4147 -0.4842 -1.1808
 9916TIP3    H251240   3.276   0.121   0.126 -0.9870  1.5626 -0.8564
 9917TIP3   OH251241   0.179   4.285  11.431 -0.6496  0.0465  0.2424
 9917TIP3    H151242   0.094   4.241  11.423 -0.5799 -0.0899  0.2407
 9917TIP3    H251243   0.158   4.371  11.466 -0.7779 -0.0359  0.3753
 9918TIP3   OH251244   2.180   6.340  16.663 -0.3116  0.2517  0.8531
 9918TIP3    H151245   2.113   6.278  16.631  0.0329  0.6762 -0.7538
 9918TIP3    H251246   2.255   6.324  16.606  0.3495  1.0055  1.5154
 9919TIP3   OH251247   5.776   5.457   4.416  0.3853  0.4554 -0.1398
 9919TIP3    H151248   5.804   5.429   4.504  0.5756  0.1101 -0.3110
 9919TIP3    H251249   5.815   5.544   4.405 -0.0641  0.7227  0.3225
 9920TIP3   OH251250   3.084   4.613  12.064 -0.3777  0.4776  0.7009
 9920TIP3    H151251   3.132   4.657  12.134  1.0258 -0.6477  0.4712
 9920TIP3    H251252   3.149   4.601  11.995 -0.8670 -1.4325  0.5442
 9921TIP3   OH251253   1.145   5.977   3.302  0.2736  0.3516 -0.0964
 9921TIP3    H151254   1.131   5.928   3.383  0.6942  2.1058  1.0407
 9921TIP3    H251255   1.066   6.030   3.291 -1.3948 -2.4721 -2.7474
 9922TIP3   OH251256   2.990   5.591   4.154 -0.0372  0.6598  0.1063
 9922TIP3    H151257   2.995   5.682   4.182 -0.2510  0.7945 -0.2968
 9922TIP3    H251258   2.905   5.561   4.185  0.1545  0.5101  0.4947
 9923TIP3   OH251259   5.625   6.221   1.934 -0.2083 -0.2288  0.3901
 9923TIP3    H151260   5.717   6.226   1.908 -0.2386 -1.2200  0.0573
 9923TIP3    H251261   5.619   6.140   1.985 -1.2221 -1.0255 -0.9562
 9924TIP3   OH251262   3.390   4.011   6.270  0.5534  0.0104 -0.3747
 9924TIP3    H151263   3.423   3.986   6.184  1.5916 -2.5486  0.7105
 9924TIP3    H251264   3.295   4.002   6.263  0.3856  2.8393 -2.1388
 9925TIP3   OH251265   4.420   1.827   0.491  0.2467  0.0893 -0.6898
 9925TIP3    H151266   4.411   1.922   0.478 -2.0766 -0.1459 -0.9131
 9925TIP3    H251267   4.452   1.819   0.581  0.8097  1.0907 -0.7871
 9926TIP3   OH251268   5.186   5.991   3.292  0.4576  0.0431 -0.5587
 9926TIP3    H151269   5.236   6.038   3.359 -1.1500  2.7951 -1.2370
 9926TIP3    H251270   5.252   5.945   3.240  2.0419  1.2656  0.3438
 9927TIP3   OH251271   4.731   1.853  14.581 -0.1628 -0.1195 -0.5515
 9927TIP3    H151272   4.817   1.817  14.601 -0.7827 -0.9322  0.7269
 9927TIP3    H251273   4.692   1.871  14.666 -1.9669 -1.4739 -1.0609
 9928TIP3   OH251274   2.336   3.585   4.900  0.7681 -0.3948  0.1561
 9928TIP3    H151275   2.328   3.539   4.817 -0.8104  0.2447 -0.0665
 9928TIP3    H251276   2.255   3.635   4.908  1.5085  0.6547  1.4143
 9929TIP3   OH251277   1.346   2.566  15.515  0.1119  0.3608  0.2533
 9929TIP3    H151278   1.344   2.512  15.594 -0.6357 -0.8679 -0.5785
 9929TIP3    H251279   1.337   2.503  15.443 -2.7483  1.7297 -0.6658
 9930TIP3   OH251280   3.495   0.443  13.505  0.3392 -0.1551 -0.4906
 9930TIP3    H151281   3.575   0.433  13.453  0.7884 -2.1697  0.5334
 9930TIP3    H251282   3.440   0.369  13.479  0.8856 -1.6259  2.3761
 9931TIP3   OH251283   4.431   0.463  11.337 -0.5737 -0.2928  0.0042
 9931TIP3    H151284   4.376   0.493  11.410  0.0174  1.3175 -0.2074
 9931TIP3    H251285   4.400   0.512  11.261  0.7254  0.1621 -0.2485
 9932TIP3   OH251286   4.380   3.704  12.357 -0.3867  0.4238  0.1933
 9932TIP3    H151287   4.326   3.626  12.354 -0.9822  0.8404  0.0267
 9932TIP3    H251288   4.468   3.673  12.335 -0.8810  0.0193 -1.3151
 9933TIP3   OH251289   2.752   6.552  11.490  0.3643 -0.2602 -0.2805
 9933TIP3    H151290   2.711   6.500  11.421  1.0402 -0.2982 -0.6663
 9933TIP3    H251291   2.713   6.639  11.482 -3.3559 -1.5476  2.6150
 9934TIP3   OH251292   1.541   0.770  11.791 -0.4219 -0.7399  0.3640
 9934TIP3    H151293   1.578   0.687  11.761 -1.3912 -1.8684  2.1999
 9934TIP3    H251294   1.508   0.811  11.711  1.5692 -1.3293 -0.7901
 9935TIP3   OH251295   0.736   3.284  12.710 -0.3019 -0.2214 -0.5843
 9935TIP3    H151296   0.721   3.351  12.777 -0.5240 -1.6042  0.7642
 9935TIP3    H251297   0.649   3.259  12.680 -0.2326 -0.1937 -0.8126
 9936TIP3   OH251298   6.017   5.514   4.996 -0.2978  0.3663 -0.1428
 9936TIP3    H151299   6.074   5.473   5.062 -1.1346  0.6948  0.8051
 9936TIP3    H251300   5.955   5.444   4.972 -1.9327  1.1029  1.7142
 9937TIP3   OH251301   5.391   1.227  17.067  0.6041  0.3056 -0.2921
 9937TIP3    H151302   5.456   1.162  17.093 -0.4588 -1.1835 -1.2456
 9937TIP3    H251303   5.433   1.311  17.082  1.1039 -0.5366  3.3336
 9938TIP3   OH251304   4.944   5.711  15.538  0.3175 -0.1628  0.5250
 9938TIP3    H151305   4.871   5.685  15.594  0.3244  0.2306  0.7217
 9938TIP3    H251306   4.915   5.689  15.449  0.2911 -0.7471  0.6812
 9939TIP3   OH251307   0.899   6.517  17.087 -0.0046  0.1429 -0.3686
 9939TIP3    H151308   0.897   6.473  17.002  0.5905  0.4824 -0.5637
 9939TIP3    H251309   0.851   6.599  17.073 -0.4313 -0.0758 -0.2129
 9940TIP3   OH251310   1.946   6.810  15.044  0.0379 -1.1465 -0.1221
 9940TIP3    H151311   1.873   6.864  15.071 -0.6038 -2.0507 -0.0213
 9940TIP3    H251312   1.943   6.810  14.948  1.1023  0.4192 -0.1699
 9941TIP3   OH251313   4.460   0.477  14.791  0.2411  0.3380 -0.3131
 9941TIP3    H151314   4.417   0.402  14.750 -0.6063  0.6418  0.0160
 9941TIP3    H251315   4.508   0.519  14.719  0.8227 -0.5756 -0.4699
 9942TIP3   OH251316   1.630   5.559   5.931 -0.3338  0.1801 -0.1304
 9942TIP3    H151317   1.628   5.477   5.980  0.3417 -0.1644 -0.6730
 9942TIP3    H251318   1.645   5.533   5.840 -0.3349  0.8888 -0.3398
 9943TIP3   OH251319   6.427   4.430   2.188 -0.2485  0.5696  0.1371
 9943TIP3    H151320   6.437   4.510   2.240 -0.2992  2.6330 -2.9328
 9943TIP3    H251321   6.337   4.433   2.155  0.4275  0.4017 -1.7921
 9944TIP3   OH251322   3.828   3.916  16.951 -0.5058  0.2424  0.4001
 9944TIP3    H151323   3.738   3.914  16.984 -0.0227 -1.0008  1.7129
 9944TIP3    H251324   3.882   3.938  17.027  0.5238 -1.5838  0.2452
 9945TIP3   OH251325   3.299   1.624  16.242 -0.1714  0.3510  0.2221
 9945TIP3    H151326   3.269   1.710  16.270  0.4098  1.1419 -1.4952
 9945TIP3    H251327   3.343   1.640  16.158 -0.4211 -1.6693 -0.3327
 9946TIP3   OH251328   0.208   1.074   2.818 -0.3212 -0.4920 -0.3933
 9946TIP3    H151329   0.115   1.083   2.799 -0.1751 -1.3552 -1.5549
 9946TIP3    H251330   0.248   1.154   2.783 -0.6069 -0.1336  0.0835
 9947TIP3   OH251331   0.279   4.002   3.603 -0.5448 -0.1844  0.0308
 9947TIP3    H151332   0.223   4.065   3.649 -0.0393 -0.1835  0.6532
 9947TIP3    H251333   0.219   3.932   3.578 -0.5206 -1.0816  2.3477
 9948TIP3   OH251334   0.975   1.570  11.277  0.0074  0.8150  0.0632
 9948TIP3    H151335   1.068   1.559  11.255  0.4487 -0.1484  2.2344
 9948TIP3    H251336   0.929   1.515  11.213  0.8514  2.0602 -1.6407
 9949TIP3   OH251337   6.211   0.657  12.903 -0.0375 -0.4912  0.3695
 9949TIP3    H151338   6.273   0.600  12.857  1.0753  0.8967  0.1235
 9949TIP3    H251339   6.133   0.602  12.915 -0.1896 -1.0689 -2.7080
 9950TIP3   OH251340   3.150   1.109  14.968 -0.3474 -1.0269 -0.8820
 9950TIP3    H151341   3.066   1.139  15.003 -0.2994 -2.9254  0.9751
 9950TIP3    H251342   3.131   1.023  14.929  0.3968 -0.6743 -2.0446
 9951TIP3   OH251343   0.522   1.522  15.568  0.4990  0.6315 -0.3578
 9951TIP3    H151344   0.593   1.569  15.612  1.8581  0.5807 -2.3896
 9951TIP3    H251345   0.552   1.515  15.477 -2.1403  0.6427 -1.2682
 9952TIP3   OH251346   1.082   1.332  16.759 -0.6374 -0.0907  0.1565
 9952TIP3    H151347   1.105   1.385  16.682  1.6609 -0.5223  0.4958
 9952TIP3    H251348   1.145   1.259  16.757 -2.3338 -1.6067  0.9285
 9953TIP3   OH251349   0.165   6.654   2.063 -0.2953 -0.1421  0.3914
 9953TIP3    H151350   0.259   6.650   2.047 -0.5685 -0.9845 -1.0269
 9953TIP3    H251351   0.133   6.720   2.002 -0.9458 -1.4542 -0.7061
 9954TIP3   OH251352   1.811   3.334  16.119 -0.3587 -0.1592 -0.4806
 9954TIP3    H151353   1.770   3.308  16.036  1.5489 -0.9563 -1.2130
 9954TIP3    H251354   1.824   3.428  16.111  0.8394 -0.4042 -1.5778
 9955TIP3   OH251355   0.829   2.499   3.716  0.5118 -0.0520  0.0598
 9955TIP3    H151356   0.764   2.566   3.736 -0.6924 -0.5661 -1.9269
 9955TIP3    H251357   0.910   2.547   3.701  0.2955  0.7105  1.2965
 9956TIP3   OH251358   3.437   4.923  15.182 -0.0865  0.0370 -0.7911
 9956TIP3    H151359   3.420   4.834  15.153 -0.8249 -0.1903  0.2920
 9956TIP3    H251360   3.439   4.917  15.278 -0.1628  1.1797 -0.7093
 9957TIP3   OH251361   4.943   4.052   5.336 -0.2802  0.2925 -0.0932
 9957TIP3    H151362   4.921   4.145   5.331  1.8458  0.7148 -2.4642
 9957TIP3    H251363   4.992   4.044   5.418 -0.5297  1.2430  0.1585
 9958TIP3   OH251364   3.515   6.622   1.318  0.5665 -0.0410  0.3670
 9958TIP3    H151365   3.470   6.557   1.371  2.4541 -0.1300  1.9261
 9958TIP3    H251366   3.485   6.706   1.353 -1.4965 -0.0231 -1.3265
 9959TIP3   OH251367   1.258   4.118   0.843  0.1103 -0.0191 -0.6124
 9959TIP3    H151368   1.232   4.061   0.770  0.6572  0.7879 -1.4496
 9959TIP3    H251369   1.336   4.076   0.880 -0.0736 -0.3444 -0.5941
 9960TIP3   OH251370   4.459   0.312   1.769 -0.0203 -0.3477 -0.0383
 9960TIP3    H151371   4.386   0.354   1.814  0.4570  0.3069  0.1251
 9960TIP3    H251372   4.418   0.241   1.718 -1.0060  1.1868 -1.4412
 9961TIP3   OH251373   0.840   5.514   5.178  0.5138  0.0810 -0.3745
 9961TIP3    H151374   0.859   5.575   5.249 -0.5957 -1.5236  1.3654
 9961TIP3    H251375   0.914   5.523   5.118  0.4942  2.8880 -0.0228
 9962TIP3   OH251376   1.541   2.041  14.142 -0.4517  0.4169 -0.3795
 9962TIP3    H151377   1.611   2.027  14.078 -0.2175  0.3422 -0.1102
 9962TIP3    H251378   1.460   2.020  14.095 -0.4572  2.4132 -1.2956
 9963TIP3   OH251379   6.379   0.591   0.196  0.0489 -0.5316 -0.1255
 9963TIP3    H151380   6.439   0.543   0.140  1.6791  1.8853 -0.5004
 9963TIP3    H251381   6.422   0.593   0.282  1.0011  1.9914 -0.6167
 9964TIP3   OH251382   5.124   3.721  15.418  0.2030 -0.5187  0.1716
 9964TIP3    H151383   5.216   3.703  15.438 -0.5541 -2.7245  1.9100
 9964TIP3    H251384   5.089   3.637  15.388 -1.2457  0.3177 -0.5518
 9965TIP3   OH251385   4.172   1.263  17.133 -0.1074  0.7222  0.2173
 9965TIP3    H151386   4.257   1.257  17.176 -0.4800 -1.1220  0.7470
 9965TIP3    H251387   4.109   1.235  17.199 -1.0774  1.5275 -0.3424
 9966TIP3   OH251388   5.818   5.714  11.923 -0.2392 -0.0048 -0.1509
 9966TIP3    H151389   5.849   5.738  11.836 -0.6425 -0.3863 -0.4066
 9966TIP3    H251390   5.770   5.791  11.954 -0.0940  0.1316 -0.2637
 9967TIP3   OH251391   5.563   6.353   4.567  0.0666 -0.4433 -0.6120
 9967TIP3    H151392   5.477   6.312   4.577 -0.4611  0.7732 -0.1810
 9967TIP3    H251393   5.611   6.326   4.646  0.5437 -2.1808 -1.4519
 9968TIP3   OH251394   2.724   1.460   4.034 -0.0134  0.1063 -0.3633
 9968TIP3    H151395   2.744   1.488   3.945  1.5196  2.1790  0.5851
 9968TIP3    H251396   2.669   1.530   4.070 -0.7569 -0.7841  0.2844
 9969TIP3   OH251397   3.151   4.702  12.590  0.0736  0.0498 -0.2228
 9969TIP3    H151398   3.085   4.694  12.659  0.2241  1.4499  0.0970
 9969TIP3    H251399   3.156   4.796  12.572  0.6152 -0.2245 -1.5799
 9970TIP3   OH251400   6.206   1.181   1.792 -0.7569 -0.1328 -0.0684
 9970TIP3    H151401   6.159   1.230   1.860 -0.2397 -2.2484  1.8562
 9970TIP3    H251402   6.180   1.223   1.710 -0.7259  3.0334  1.4683
 9971TIP3   OH251403   1.934   5.990  10.802  0.1518  0.2776 -0.7309
 9971TIP3    H151404   2.006   6.049  10.779  0.6723  0.3690  1.0629
 9971TIP3    H251405   1.859   6.024  10.753  0.6228  2.0002 -0.2999
 9972TIP3   OH251406   0.247   6.104   1.445  0.2533 -0.2018  0.1420
 9972TIP3    H151407   0.190   6.072   1.376  0.8038 -0.4477 -0.1945
 9972TIP3    H251408   0.228   6.048   1.520  1.3206 -1.4203 -0.4863
 9973TIP3   OH251409   2.282   5.282  16.457  0.4549  0.6267  0.4800
 9973TIP3    H151410   2.310   5.190  16.456  0.3178  0.5658  1.5026
 9973TIP3    H251411   2.336   5.322  16.525 -0.2057  1.0623  0.7564
 9974TIP3   OH251412   2.744   1.365   1.434 -0.5653 -0.3041  0.1915
 9974TIP3    H151413   2.743   1.280   1.391 -1.5087  0.0715 -0.5649
 9974TIP3    H251414   2.761   1.427   1.363 -2.5451  0.3533  0.2640
 9975TIP3   OH251415   2.099   0.796  14.921 -0.1195  0.4367 -0.2146
 9975TIP3    H151416   2.185   0.836  14.904 -0.1457  0.4080 -0.4159
 9975TIP3    H251417   2.073   0.759  14.836 -0.4955  0.7638 -0.2444
 9976TIP3   OH251418   2.610   1.087   3.116 -0.8652 -0.0021  0.0323
 9976TIP3    H151419   2.616   1.183   3.117 -3.2203  0.1488  1.3117
 9976TIP3    H251420   2.517   1.068   3.122 -0.6303 -2.3796 -2.4447
 9977TIP3   OH251421   2.949   2.315  11.541 -0.0147 -0.4792 -0.4175
 9977TIP3    H151422   2.954   2.376  11.614  1.6391  0.0499 -0.9370
 9977TIP3    H251423   2.946   2.228  11.581  1.2927 -0.2095  0.2761
 9978TIP3   OH251424   0.798   2.543   0.063 -0.5457 -0.4606 -0.0036
 9978TIP3    H151425   0.741   2.520  -0.010 -0.1263  0.7053 -0.7303
 9978TIP3    H251426   0.787   2.638   0.073  1.8646 -0.0523 -0.7300
 9979TIP3   OH251427   1.245   1.359  14.349 -0.3870 -0.4033  0.1748
 9979TIP3    H151428   1.235   1.363  14.254  1.7390 -0.8982 -0.0873
 9979TIP3    H251429   1.171   1.305  14.378 -1.4393  0.3231 -1.1131
 9980TIP3   OH251430   4.010   4.147  16.063  0.1322 -0.2889 -0.5485
 9980TIP3    H151431   4.049   4.170  15.979  0.6899 -0.3004 -0.2939
 9980TIP3    H251432   4.000   4.051  16.058  0.9371 -0.3892 -0.2740
 9981TIP3   OH251433   0.815   5.616  12.885 -0.0489 -1.4122  0.5762
 9981TIP3    H151434   0.779   5.601  12.972  1.4705 -0.5835  1.3559
 9981TIP3    H251435   0.907   5.636  12.900  0.1906 -1.0927 -1.2155
 9982TIP3   OH251436   0.858   6.217   1.205  0.3333  0.3498  0.8916
 9982TIP3    H151437   0.923   6.279   1.172 -0.0143 -0.5295 -1.5107
 9982TIP3    H251438   0.775   6.247   1.169 -0.3071  0.3180  2.3308
 9983TIP3   OH251439   4.047   1.529   2.811 -0.4128  0.1143 -0.3796
 9983TIP3    H151440   3.966   1.580   2.816  0.8312  2.3664 -1.8363
 9983TIP3    H251441   4.083   1.532   2.899  0.0973  2.6374 -0.6272
 9984TIP3   OH251442   1.930   3.448   0.326 -0.4466  0.4478  0.1678
 9984TIP3    H151443   1.990   3.504   0.275 -0.6676  0.7627  0.2524
 9984TIP3    H251444   1.987   3.402   0.387 -0.3512  1.1764  0.6385
 9985TIP3   OH251445   0.860   4.345  11.837 -0.6188  0.4829  0.7226
 9985TIP3    H151446   0.821   4.270  11.792 -1.8142  0.5749  1.5718
 9985TIP3    H251447   0.837   4.420  11.782  0.2535  0.2797  0.0710
 9986TIP3   OH251448   4.022   5.486  15.214 -0.3837  0.7286  0.1383
 9986TIP3    H151449   4.053   5.432  15.287 -1.3702 -0.5235 -0.3624
 9986TIP3    H251450   4.072   5.455  15.138 -1.5893 -0.1128 -0.3241
 9987TIP3   OH251451   5.942   3.787  14.474 -0.4332 -0.3465 -0.3548
 9987TIP3    H151452   5.911   3.877  14.487 -4.1888 -1.6639  0.3833
 9987TIP3    H251453   5.929   3.770  14.381 -0.7901 -0.5019 -0.2767
 9988TIP3   OH251454   3.110   1.726   0.037  0.4495 -0.4378 -0.2049
 9988TIP3    H151455   3.064   1.786  -0.022  0.0388  2.1870  2.6456
 9988TIP3    H251456   3.054   1.649   0.041 -0.8699  0.4550 -1.1128
 9989TIP3   OH251457   2.843   0.141   4.997 -0.4828  0.3294 -0.4414
 9989TIP3    H151458   2.857   0.223   5.044 -0.5626  0.2286 -0.2372
 9989TIP3    H251459   2.748   0.134   4.988 -0.5405 -0.2581  0.4938
 9990TIP3   OH251460   3.095   4.328   5.332 -0.3868  0.4763 -0.5638
 9990TIP3    H151461   3.102   4.407   5.387 -2.2809  1.6491 -1.9585
 9990TIP3    H251462   3.071   4.259   5.392  0.3139  1.1540  0.5241
 9991TIP3   OH251463   4.027   1.567  16.911  0.0083  0.2482  0.0351
 9991TIP3    H151464   3.946   1.613  16.933  0.2677  0.7129  0.0297
 9991TIP3    H251465   4.092   1.603  16.971  0.3537  0.3486 -0.3927
 9992TIP3   OH251466   4.847   3.040   2.672  0.0600 -0.4135  0.2319
 9992TIP3    H151467   4.789   2.983   2.722  0.0060  0.4940  1.2183
 9992TIP3    H251468   4.932   2.996   2.676  0.0529 -0.3629  1.1196
 9993TIP3   OH251469   2.395   0.689  16.833  0.3569  0.0388  0.2703
 9993TIP3    H151470   2.434   0.711  16.748  0.0093 -0.3005  0.0185
 9993TIP3    H251471   2.336   0.762  16.852 -1.0678 -0.8116 -0.7339
 9994TIP3   OH251472   1.582   2.196   1.737 -0.2774  0.0627 -0.4651
 9994TIP3    H151473   1.539   2.210   1.821 -0.6383 -0.9805 -0.4691
 9994TIP3    H251474   1.675   2.186   1.759 -0.5158 -1.3570 -0.0565
 9995TIP3   OH251475   6.053   5.139  15.310  0.0639 -0.3088 -0.0141
 9995TIP3    H151476   6.020   5.144  15.400 -0.0985  0.6974 -0.1196
 9995TIP3    H251477   5.993   5.196  15.260  1.5346  1.0021 -0.3332
 9996TIP3   OH251478   5.201   4.937   4.091 -0.0625 -0.0562 -0.2856
 9996TIP3    H151479   5.240   4.866   4.141 -1.3671 -1.2970 -0.9805
 9996TIP3    H251480   5.111   4.941   4.123 -0.8545 -0.7258 -2.3424
 9997TIP3   OH251481   1.078   0.897  14.929 -0.1400 -0.1082 -0.5106
 9997TIP3    H151482   1.074   0.942  15.013 -1.2223  0.5518 -0.9082
 9997TIP3    H251483   1.074   0.968  14.864 -1.7610 -0.7699 -1.1364
 9998TIP3   OH251484   2.651   5.413   1.749  0.4979 -0.0186  0.0272
 9998TIP3    H151485   2.743   5.437   1.760  0.6661 -1.3536  1.7454
 9998TIP3    H251486   2.605   5.463   1.816 -0.2396  1.6801 -1.7021
 9999TIP3   OH251487   2.918   1.846   4.292 -0.3142 -0.0635  0.0647
 9999TIP3    H151488   2.863   1.862   4.369  0.9164 -0.6981  1.0927
 9999TIP3    H251489   2.922   1.930   4.246  0.2012  0.7181  1.5253
10000TIP3   OH251490   4.140   6.383  12.765 -0.7817  0.2985 -0.1041
10000TIP3    H151491   4.084   6.317  12.805 -2.0859  0.9552 -0.7954
10000TIP3    H251492   4.079   6.453  12.740  0.6070  1.8830  0.8806
10001TIP3   OH251493   6.476   6.813   5.713  0.2274 -0.0064  0.0026
10001TIP3    H151494   6.482   6.772   5.799 -0.5193 -1.7387 -0.7369
10001TIP3    H251495   6.383   6.832   5.702 -0.0885 -2.0884 -1.4023
10002TIP3   OH251496   6.480   6.435  11.286  0.5969  0.3169 -0.0734
10002TIP3    H151497   6.534   6.356  11.282 -2.1023 -1.6539  0.9959
10002TIP3    H251498   6.447   6.438  11.376  0.9018  2.8716  0.0003
10003TIP3   OH251499   2.713   3.733   3.148 -0.6266 -0.7113  0.0962
10003TIP3    H151500   2.752   3.733   3.235 -1.9631  0.7295  0.7186
10003TIP3    H251501   2.772   3.785   3.094 -1.4962  1.1815  0.9505
10004TIP3   OH251502   2.929   3.171   2.184 -0.1475  0.2657  0.6342
10004TIP3    H151503   3.012   3.214   2.163 -0.2020 -0.3896 -1.0418
10004TIP3    H251504   2.863   3.225   2.140 -0.3574 -0.6416 -0.1909
10005TIP3   OH251505   2.216   4.414   2.012 -0.7516  0.3110 -0.0549
10005TIP3    H151506   2.299   4.367   2.003 -0.8765 -0.1071  0.8831
10005TIP3    H251507   2.219   4.451   2.101 -1.1320  1.1488 -0.3818
10006TIP3   OH251508   0.511   1.338   1.970 -0.3050 -0.2255  0.2259
10006TIP3    H151509   0.459   1.326   2.050  0.7290 -0.7440  0.8310
10006TIP3    H251510   0.472   1.414   1.928  0.2436  1.1543  2.1331
10007TIP3   OH251511   3.187   0.576  12.010  0.3824  0.3622  1.0061
10007TIP3    H151512   3.203   0.572  12.104  1.6251  0.9143  0.8237
10007TIP3    H251513   3.133   0.654  11.998  1.4384  1.1114  1.0971
10008TIP3   OH251514   6.030   6.178  16.407  0.3036 -0.0417  0.3726
10008TIP3    H151515   6.000   6.220  16.488 -1.0979  0.6816 -0.5055
10008TIP3    H251516   6.001   6.087  16.415 -2.4750  0.7275 -0.6087
10009TIP3   OH251517   4.142   4.960   1.852  0.1810  0.3786  0.0869
10009TIP3    H151518   4.189   4.976   1.770  1.4292  3.5961  1.3580
10009TIP3    H251519   4.086   4.885   1.833  2.0560 -0.3261 -3.0332
10010TIP3   OH251520   1.597   5.837  12.184 -0.8069  0.3587 -0.9778
10010TIP3    H151521   1.649   5.770  12.228 -2.9497 -0.3712  0.5429
10010TIP3    H251522   1.653   5.915  12.184  1.4548 -1.2062 -2.1697
10011TIP3   OH251523   1.067   5.440  14.767  0.0150 -0.6454  0.4077
10011TIP3    H151524   1.102   5.508  14.825  1.2694 -1.0919  0.1883
10011TIP3    H251525   1.068   5.480  14.680  0.2816 -0.7559  0.3571
10012TIP3   OH251526   0.562   5.787   1.027  0.0427  0.1680 -0.0022
10012TIP3    H151527   0.514   5.857   0.984 -0.5898 -0.7674 -0.8567
10012TIP3    H251528   0.504   5.711   1.021  1.5222 -0.9277 -0.8826
10013TIP3   OH251529   3.428   6.228  15.370  0.2628 -0.0033 -0.1111
10013TIP3    H151530   3.359   6.170  15.401  1.0768 -0.7884  0.2509
10013TIP3    H251531   3.400   6.315  15.399  0.4675 -0.5789  1.9157
10014TIP3   OH251532   1.731   1.463   3.988 -0.6330  0.6437  0.3624
10014TIP3    H151533   1.703   1.422   3.906 -2.7379 -0.1836  1.4785
10014TIP3    H251534   1.801   1.523   3.961 -0.7771 -0.1549 -1.9369
10015TIP3   OH251535   2.851   1.930   6.327 -0.1840 -0.1201 -0.6657
10015TIP3    H151536   2.832   1.857   6.387 -1.6906 -0.0965 -1.1136
10015TIP3    H251537   2.781   1.928   6.262  0.7814  0.5958 -1.7644
10016TIP3   OH251538   5.093   5.061   5.901 -0.1891 -0.2180  0.1265
10016TIP3    H151539   5.088   5.156   5.888 -0.2020 -0.2266  0.0693
10016TIP3    H251540   5.106   5.051   5.995 -1.2471 -0.1886  0.2850
10017TIP3   OH251541   6.059   2.978   5.406  0.3199  0.2609 -0.0714
10017TIP3    H151542   6.009   3.045   5.358 -2.0313 -1.4999 -0.1637
10017TIP3    H251543   6.031   2.988   5.497 -2.1149 -2.3001 -0.4783
10018TIP3   OH251544   1.559   1.612   1.882  0.0257 -0.2829  0.2380
10018TIP3    H151545   1.517   1.621   1.796  0.7263 -0.1441 -0.0941
10018TIP3    H251546   1.590   1.522   1.884  1.4813  0.1803 -0.3464
10019TIP3   OH251547   4.853   2.150  14.310 -0.0933  0.3916 -0.4780
10019TIP3    H151548   4.796   2.134  14.234 -0.5166  0.7949 -0.2480
10019TIP3    H251549   4.893   2.065  14.328 -1.3880 -0.1310 -0.0160
10020TIP3   OH251550   4.546   2.232  11.622  0.7675  0.2203  0.5264
10020TIP3    H151551   4.604   2.162  11.591  1.4102  0.2769  1.5956
10020TIP3    H251552   4.470   2.186  11.657  0.5933  0.1157  0.0280
10021TIP3   OH251553   0.717   3.581   3.165 -0.1741  0.7714 -0.0598
10021TIP3    H151554   0.758   3.659   3.128  0.9092  0.4729  0.4939
10021TIP3    H251555   0.689   3.609   3.252  0.2494  0.5221  0.1527
10022TIP3   OH251556   4.016   3.754  11.876  0.2106  0.5032  0.1802
10022TIP3    H151557   4.034   3.669  11.835 -1.2749 -0.4893  1.5132
10022TIP3    H251558   4.006   3.733  11.969 -2.2647  1.8224  0.2246
10023TIP3   OH251559   1.834   1.038  15.408  0.3387  0.6950  0.4785
10023TIP3    H151560   1.815   1.065  15.318  3.8728  2.2649  0.1579
10023TIP3    H251561   1.862   0.947  15.399  2.0310  1.2713 -0.1957
10024TIP3   OH251562   6.652   3.226   6.029 -0.1993 -0.0922 -0.1745
10024TIP3    H151563   6.575   3.170   6.033  0.7465 -1.5707 -1.9089
10024TIP3    H251564   6.618   3.312   6.003 -1.5267 -0.1105  1.4436
10025TIP3   OH251565   2.989   0.363  13.886  0.2169 -0.2474  0.1413
10025TIP3    H151566   3.040   0.422  13.831  1.8463 -0.2515  1.6193
10025TIP3    H251567   3.042   0.351  13.964 -1.0465 -2.0352  0.7531
10026TIP3   OH251568   5.737   0.876   6.502 -0.1681 -0.2718 -0.7801
10026TIP3    H151569   5.807   0.861   6.439 -0.0899 -1.9056 -0.3398
10026TIP3    H251570   5.782   0.888   6.585 -0.2554  2.1894 -1.0734
10027TIP3   OH251571   3.311   0.493  12.744 -0.5424  0.2650 -0.2451
10027TIP3    H151572   3.282   0.578  12.780  0.5892  1.1116 -1.3076
10027TIP3    H251573   3.391   0.473  12.793 -1.5547 -0.8848  0.9759
10028TIP3   OH251574   4.568   1.756  16.739 -0.2363 -0.8433 -0.1047
10028TIP3    H151575   4.518   1.674  16.741 -0.5316 -0.7535 -2.3083
10028TIP3    H251576   4.549   1.793  16.652  1.3436  0.6446  0.1714
10029TIP3   OH251577   2.814   5.833   3.813 -0.0416  0.1812  0.3795
10029TIP3    H151578   2.761   5.809   3.737 -0.0924  0.0229  0.4651
10029TIP3    H251579   2.853   5.751   3.842 -0.5830  0.1300  0.9512
10030TIP3   OH251580   6.316   4.843   6.129 -0.3451  0.9754 -0.0062
10030TIP3    H151581   6.383   4.799   6.181  0.4939  1.8406 -0.3434
10030TIP3    H251582   6.252   4.875   6.193  0.3330  1.4523  0.4379
10031TIP3   OH251583   6.202   4.397  14.007  0.1807 -0.0280  0.2036
10031TIP3    H151584   6.130   4.459  13.996  0.6134  0.9596  2.7735
10031TIP3    H251585   6.160   4.311  14.002 -1.1104  0.5325  1.1181
10032TIP3   OH251586   5.609   2.216   5.182  0.2253 -0.1001  0.0122
10032TIP3    H151587   5.660   2.160   5.240  0.3489  1.2979  1.2644
10032TIP3    H251588   5.604   2.167   5.100 -1.8910 -3.1918  1.8500
10033TIP3   OH251589   1.198   2.978   4.819  0.7984  0.4209  0.4410
10033TIP3    H151590   1.182   2.886   4.841  0.9445  0.2629 -0.1075
10033TIP3    H251591   1.289   2.980   4.789  1.0585  0.8956  1.2524
10034TIP3   OH251592   2.926   5.326   2.079 -0.2139  0.8211 -0.0570
10034TIP3    H151593   3.002   5.343   2.134 -0.2147  1.7175 -0.3340
10034TIP3    H251594   2.871   5.267   2.131  0.6792  0.1474  0.1358
10035TIP3   OH251595   4.308   4.519  10.178 -0.4928 -0.0901  0.3830
10035TIP3    H151596   4.400   4.525  10.201 -0.4920 -0.5703  0.5002
10035TIP3    H251597   4.293   4.426  10.160 -0.9096  0.0114  0.1892
10036TIP3   OH251598   2.248   5.842  11.275  0.1486  0.0737 -0.2408
10036TIP3    H151599   2.188   5.914  11.254  0.9651  0.3818 -1.6318
10036TIP3    H251600   2.191   5.770  11.301 -0.7500  0.8337 -0.0683
10037TIP3   OH251601   3.403   3.403   5.773 -0.5063 -0.0505  0.2015
10037TIP3    H151602   3.326   3.393   5.718  0.1257  0.0694 -0.7102
10037TIP3    H251603   3.464   3.336   5.742 -0.0274  0.2269  0.5375
10038TIP3   OH251604   6.103   5.342  10.904  0.1809  0.2260 -0.4593
10038TIP3    H151605   6.103   5.422  10.956  0.4403 -0.6782  0.9873
10038TIP3    H251606   6.077   5.274  10.967  3.2661 -1.3537 -0.7953
10039TIP3   OH251607   4.687   2.810   2.817 -0.6490 -0.2412 -0.0554
10039TIP3    H151608   4.735   2.733   2.787  1.1537  0.5150  0.7945
10039TIP3    H251609   4.664   2.790   2.908 -0.5935  0.0204  0.0175
10040TIP3   OH251610   4.977   5.454  14.677 -0.0478 -0.1826  0.2987
10040TIP3    H151611   5.035   5.422  14.746  0.4841 -0.1198 -0.1218
10040TIP3    H251612   4.999   5.546  14.667  0.4734 -0.3889 -0.5451
10041TIP3   OH251613   3.909   6.134  13.251  0.0923  0.2407 -0.2181
10041TIP3    H151614   3.936   6.073  13.319  2.3375 -0.5993 -1.8020
10041TIP3    H251615   3.922   6.220  13.290  2.0035 -0.2171  0.2001
10042TIP3   OH251616   0.741   2.919  10.700  0.1278  0.3063  0.0201
10042TIP3    H151617   0.688   2.998  10.712  0.5411  0.9301 -1.9315
10042TIP3    H251618   0.827   2.943  10.736  0.1920  0.6904 -0.3783
10043TIP3   OH251619   3.153   3.959   4.690  0.7826 -0.3806  0.0631
10043TIP3    H151620   3.074   3.929   4.736  0.2024 -1.2394 -1.4354
10043TIP3    H251621   3.122   4.028   4.632  1.4094  0.3247  0.5654
10044TIP3   OH251622   6.702   1.222  13.160 -0.1799  0.1680  0.2820
10044TIP3    H151623   6.697   1.133  13.195  0.2211  0.5139  1.2195
10044TIP3    H251624   6.794   1.231  13.132 -0.4789 -0.0856 -0.8205
10045TIP3   OH251625   6.227   3.908  16.345  0.2028 -0.0686 -0.3715
10045TIP3    H151626   6.290   3.949  16.285  1.6857 -2.2785 -0.4156
10045TIP3    H251627   6.267   3.918  16.431  0.1813 -0.6537 -0.2889
10046TIP3   OH251628   1.664   4.597  13.349 -0.5646  0.0315 -0.2113
10046TIP3    H151629   1.665   4.505  13.375 -1.2965 -0.0562 -0.4729
10046TIP3    H251630   1.575   4.612  13.315  0.0198  0.4165 -1.6340
10047TIP3   OH251631   6.097   1.665  12.735 -0.0930 -0.1770  0.3860
10047TIP3    H151632   6.137   1.748  12.711 -0.0371 -0.9419 -2.3463
10047TIP3    H251633   6.006   1.687  12.753  0.7320  1.0328  3.3555
10048TIP3   OH251634   4.985   6.227   3.812  0.3236 -0.2632  0.2137
10048TIP3    H151635   5.026   6.150   3.773  0.1765 -0.8490  1.1824
10048TIP3    H251636   4.908   6.244   3.758  2.1137  1.1769 -1.9637
10049TIP3   OH251637   6.206   3.956   3.296  0.5213  0.9997  0.2552
10049TIP3    H151638   6.219   4.046   3.264  1.8722  0.9489  0.6186
10049TIP3    H251639   6.255   3.901   3.236 -1.8856  0.2633 -1.1221
10050TIP3   OH251640   4.442   3.090  14.199  0.4097  0.1300 -0.3945
10050TIP3    H151641   4.490   3.015  14.164 -1.7137 -0.7870 -1.4222
10050TIP3    H251642   4.407   3.059  14.283  2.1504  1.0303  0.6973
10051TIP3   OH251643   3.631   0.170  15.354 -0.1269 -0.9671  0.4636
10051TIP3    H151644   3.665   0.255  15.382  0.2562 -0.5450 -1.2320
10051TIP3    H251645   3.709   0.121  15.326 -0.5993 -0.9492 -0.9304
10052TIP3   OH251646   5.010   0.253  15.846  0.2082  0.6146 -0.1836
10052TIP3    H151647   5.087   0.216  15.803  0.2152  2.9762 -2.3071
10052TIP3    H251648   5.045   0.303  15.920  0.7728  1.8648 -1.2740
10053TIP3   OH251649   4.374   1.594  15.407  0.9013 -0.0783  0.0660
10053TIP3    H151650   4.371   1.508  15.449 -0.5281  0.3343  0.8227
10053TIP3    H251651   4.286   1.606  15.370  1.5814  0.3570 -1.4504
10054TIP3   OH251652   3.493   1.775   3.477 -0.1418 -0.0031  0.1385
10054TIP3    H151653   3.491   1.788   3.572  2.6619  0.0565  0.2302
10054TIP3    H251654   3.441   1.848   3.442 -0.3552  0.5512  1.5706
10055TIP3   OH251655   5.287   6.529  13.223  0.0288 -0.3027  0.3684
10055TIP3    H151656   5.272   6.571  13.139 -0.5627 -2.3201 -0.5662
10055TIP3    H251657   5.336   6.594  13.274 -1.3337  1.6832 -0.8116
10056TIP3   OH251658   0.282   3.338  13.097 -0.3658 -0.7108  0.1650
10056TIP3    H151659   0.265   3.291  13.015 -1.3988 -0.7436  0.3896
10056TIP3    H251660   0.250   3.427  13.080  1.1746 -0.1965 -0.1096
10057TIP3   OH251661   6.007   4.494  13.728 -0.1402  0.1806 -0.4325
10057TIP3    H151662   6.001   4.588  13.744  0.0549  0.0818  0.2210
10057TIP3    H251663   5.936   4.456  13.779  0.5981 -0.1509  0.3644
10058TIP3   OH251664   3.193   5.640   1.117  0.3855  0.4119 -0.3875
10058TIP3    H151665   3.250   5.581   1.166  0.3710 -0.3453 -1.2713
10058TIP3    H251666   3.127   5.583   1.078 -1.7224  1.4242  1.6443
10059TIP3   OH251667   5.092   2.823   3.431 -0.4752  0.3810 -0.1876
10059TIP3    H151668   5.141   2.804   3.351  0.1532  0.1804  0.2354
10059TIP3    H251669   5.030   2.751   3.439 -1.0748  0.8082 -0.9042
10060TIP3   OH251670   2.904   0.790  16.408 -0.2688 -0.1339 -0.1629
10060TIP3    H151671   2.905   0.795  16.312  0.6382 -1.6868 -0.2462
10060TIP3    H251672   2.944   0.872  16.437 -0.4789  0.3119 -1.1070
10061TIP3   OH251673   3.732   1.594  16.197  0.7040  0.0737  0.1799
10061TIP3    H151674   3.692   1.587  16.283  0.4281  0.4534  0.0908
10061TIP3    H251675   3.776   1.510  16.183  0.6902 -0.0140  0.6580
10062TIP3   OH251676   2.162   1.188  15.063 -0.0745  0.6399 -0.1376
10062TIP3    H151677   2.159   1.257  15.129  1.2270  1.3374 -0.7912
10062TIP3    H251678   2.239   1.135  15.087 -0.6576 -0.1791 -0.0404
10063TIP3   OH251679   3.496   0.500   3.814 -0.1614 -0.0665 -0.6141
10063TIP3    H151680   3.578   0.452   3.825 -0.1870 -0.1002 -0.5715
10063TIP3    H251681   3.467   0.520   3.903  0.1532  0.5400 -0.6496
10064TIP3   OH251682   3.670   2.365   0.103  0.1472 -0.2901 -0.1542
10064TIP3    H151683   3.725   2.288   0.092 -0.5293 -0.7348 -0.4462
10064TIP3    H251684   3.625   2.351   0.186 -0.9427 -0.8220 -0.8284
10065TIP3   OH251685   4.438   6.504  12.037  0.2895 -0.0088  0.3030
10065TIP3    H151686   4.510   6.456  11.995 -0.6054  0.5350 -1.8602
10065TIP3    H251687   4.475   6.590  12.055  0.7001 -0.2751  0.7973
10066TIP3   OH251688   5.273   2.371  12.809  0.0855  0.0510 -0.4685
10066TIP3    H151689   5.268   2.275  12.809 -1.3218  0.1027  1.2260
10066TIP3    H251690   5.300   2.394  12.897 -0.5520  1.2474 -0.5774
10067TIP3   OH251691   1.179   1.341  14.876  0.5372  0.3213  0.0049
10067TIP3    H151692   1.210   1.415  14.824  0.5157 -1.5077 -2.6819
10067TIP3    H251693   1.229   1.346  14.957  1.6605  2.3560 -0.7790
10068TIP3   OH251694   5.566   0.257   1.815  0.2508 -0.0735  0.3004
10068TIP3    H151695   5.562   0.225   1.906 -1.8905  0.3669  0.3804
10068TIP3    H251696   5.527   0.187   1.763  1.1488 -0.1710 -0.2577
10069TIP3   OH251697   1.445   3.768   1.183 -0.1668  0.3634 -0.5233
10069TIP3    H151698   1.505   3.701   1.217  1.5319  1.6559 -0.8945
10069TIP3    H251699   1.446   3.837   1.249  0.2202  1.2128 -1.3995
10070TIP3   OH251700   1.840   1.613   3.749 -0.1083 -0.0641 -0.4826
10070TIP3    H151701   1.825   1.522   3.723  1.2446 -1.3973  3.1501
10070TIP3    H251702   1.756   1.642   3.784 -0.5299  0.1049 -1.6064
10071TIP3   OH251703   2.574   4.298  13.692  0.4378  0.5320  0.7668
10071TIP3    H151704   2.579   4.290  13.597  1.6437 -1.1909  0.9479
10071TIP3    H251705   2.622   4.378  13.712 -2.2833  2.5010 -0.2751
10072TIP3   OH251706   0.770   6.223  14.779  0.0694 -0.3591 -0.0281
10072TIP3    H151707   0.760   6.230  14.874 -2.1950  0.1061 -0.2724
10072TIP3    H251708   0.750   6.131  14.760  3.0056 -1.1063  0.1749
10073TIP3   OH251709   4.072   2.577  11.938 -0.0827  0.0132  0.2069
10073TIP3    H151710   4.080   2.670  11.920  0.3844 -0.1480 -0.4580
10073TIP3    H251711   4.110   2.565  12.025  0.1274  0.4020  0.1676
10074TIP3   OH251712   6.478   4.224  15.785  0.9128  1.2827 -0.3049
10074TIP3    H151713   6.559   4.173  15.783  0.9176  1.2345  0.8818
10074TIP3    H251714   6.414   4.166  15.824  0.6037  1.7407 -0.1270
10075TIP3   OH251715   4.563   6.255  17.096  0.2882  0.2305  0.2319
10075TIP3    H151716   4.653   6.287  17.086  0.9089 -1.6542 -0.4441
10075TIP3    H251717   4.510   6.334  17.106  1.7018  1.4907 -1.9684
10076TIP3   OH251718   6.664   0.178   5.016 -0.2402  0.0055 -0.2678
10076TIP3    H151719   6.703   0.115   5.076 -0.2979  0.4684  0.2547
10076TIP3    H251720   6.622   0.242   5.072 -0.6589  0.2098 -0.8110
10077TIP3   OH251721   1.557   2.855   5.346  0.5932 -0.2922  0.4745
10077TIP3    H151722   1.464   2.853   5.369 -0.2013  1.9771 -2.3045
10077TIP3    H251723   1.595   2.923   5.402 -0.1912  1.3270 -0.9307
10078TIP3   OH251724   5.476   6.036  15.638  0.2577 -0.2085  0.4027
10078TIP3    H151725   5.536   6.059  15.567  1.6509 -1.2012  1.2427
10078TIP3    H251726   5.489   6.105  15.703  0.0160 -0.0739  0.3103
10079TIP3   OH251727   5.271   4.862   2.396  0.1863  0.0140 -0.8957
10079TIP3    H151728   5.203   4.886   2.458 -0.7399 -0.5486 -1.6755
10079TIP3    H251729   5.325   4.798   2.442 -0.1079  0.0916 -0.4449
10080TIP3   OH251730   0.706   2.798   0.123  0.3696 -0.5013 -0.1217
10080TIP3    H151731   0.699   2.785   0.218  1.1980 -0.2575 -0.0188
10080TIP3    H251732   0.760   2.876   0.114 -0.1198 -0.2445 -0.7936
10081TIP3   OH251733   5.086   3.688  11.422 -0.2655  0.5478  0.3321
10081TIP3    H151734   5.144   3.761  11.399 -0.8250  1.3019  1.2557
10081TIP3    H251735   5.121   3.655  11.505  0.4506 -0.7478 -0.4785
10082TIP3   OH251736   2.932   1.422  11.642  0.3495 -0.2029 -0.2303
10082TIP3    H151737   2.991   1.375  11.583  0.5079 -0.8391  0.4236
10082TIP3    H251738   2.989   1.483  11.689  0.2836  0.0495 -0.4793
10083TIP3   OH251739   5.848   4.642  15.568 -0.1090  0.4951 -0.3081
10083TIP3    H151740   5.886   4.715  15.617  3.5272 -0.3611 -1.7157
10083TIP3    H251741   5.813   4.683  15.489 -0.4445  1.0546  0.1268
10084TIP3   OH251742   0.169   1.273  14.459 -0.1647 -0.0096 -0.3295
10084TIP3    H151743   0.184   1.367  14.468 -0.0906 -0.0895  0.4386
10084TIP3    H251744   0.144   1.261  14.368 -1.4549  0.9341 -0.1140
10085TIP3   OH251745   0.430   4.433  16.829 -0.3639  0.2200 -0.1808
10085TIP3    H151746   0.375   4.467  16.759 -1.5649  1.1707  1.1938
10085TIP3    H251747   0.371   4.379  16.882  0.5325 -0.5230  0.0815
10086TIP3   OH251748   2.832   1.728   5.077  0.1002 -0.0850 -0.4516
10086TIP3    H151749   2.799   1.815   5.052 -1.8378 -0.9831 -1.0958
10086TIP3    H251750   2.755   1.681   5.109  1.4179 -1.0727  1.3577
10087TIP3   OH251751   2.132   3.809   0.105 -0.1148 -0.1842  0.0615
10087TIP3    H151752   2.166   3.747   0.169  2.8510  0.7069 -0.5455
10087TIP3    H251753   2.142   3.895   0.146  0.7008  0.2914 -1.0693
10088TIP3   OH251754   4.619   2.299  15.413 -0.1601  0.1615 -0.3357
10088TIP3    H151755   4.711   2.290  15.387 -0.0289  2.6495 -0.8474
10088TIP3    H251756   4.570   2.266  15.338  0.2959  1.6364 -1.3030
10089TIP3   OH251757   1.116   6.717   3.454 -0.5089  0.6377 -0.1603
10089TIP3    H151758   1.159   6.797   3.485 -1.4316  1.5550 -1.1650
10089TIP3    H251759   1.057   6.748   3.385 -1.8143 -0.7617  0.3110
10090TIP3   OH251760   5.125   1.031   1.357  0.0717 -0.4639 -0.5651
10090TIP3    H151761   5.048   1.006   1.407 -0.1884  0.9982 -0.2094
10090TIP3    H251762   5.199   0.991   1.403 -0.2934 -0.2457  0.2131
10091TIP3   OH251763   3.803   4.353   1.824 -0.4808  0.4950  0.6396
10091TIP3    H151764   3.755   4.430   1.793 -0.8810 -0.1065 -0.2627
10091TIP3    H251765   3.856   4.326   1.749 -0.3803 -0.1397  0.9368
10092TIP3   OH251766   1.546   3.156  11.486  0.4505 -0.0610  0.2293
10092TIP3    H151767   1.451   3.144  11.483  0.6755 -1.5890 -1.3371
10092TIP3    H251768   1.582   3.068  11.491  1.8763  0.3313 -2.1168
10093TIP3   OH251769   3.382   2.975  12.570 -0.4734 -0.0360  0.4887
10093TIP3    H151770   3.464   2.928  12.557 -0.3593 -0.0629  1.2861
10093TIP3    H251771   3.314   2.908  12.562 -0.2754 -0.4587  2.2469
10094TIP3   OH251772   3.434   2.866   5.479 -0.5275  0.3987  0.2620
10094TIP3    H151773   3.412   2.778   5.509 -0.7716  0.1985 -0.5058
10094TIP3    H251774   3.365   2.922   5.515 -1.9613 -0.1281 -1.5718
10095TIP3   OH251775   5.033   2.394   0.354  0.0990  0.3649 -0.0604
10095TIP3    H151776   5.064   2.471   0.306  1.2072  1.8583  2.8808
10095TIP3    H251777   5.099   2.327   0.339  0.6238  0.9340 -0.2987
10096TIP3   OH251778   0.567   1.185   5.988  0.0537 -0.4771 -0.5505
10096TIP3    H151779   0.606   1.126   6.054 -0.0647  0.4620  0.3747
10096TIP3    H251780   0.477   1.197   6.017  0.4746  1.3236  0.1169
10097TIP3   OH251781   6.735   0.488   4.706  0.2492  0.3961 -0.6641
10097TIP3    H151782   6.829   0.474   4.698  0.4467  1.7910 -0.9014
10097TIP3    H251783   6.726   0.552   4.776 -0.6794 -1.4566  0.9596
10098TIP3   OH251784   3.366   6.187   2.376 -0.1707  0.8031  0.2159
10098TIP3    H151785   3.334   6.132   2.448  0.4600  1.1580  0.7629
10098TIP3    H251786   3.286   6.224   2.338 -0.8050 -2.0392 -1.4423
10099TIP3   OH251787   5.226   1.065   5.960  0.0207 -0.1614 -0.6068
10099TIP3    H151788   5.303   1.037   6.010 -0.9141  0.9925  1.5382
10099TIP3    H251789   5.244   1.158   5.941 -1.5984  0.5875  1.4076
10100TIP3   OH251790   4.802   6.705   2.781  0.0337  0.1762  0.7200
10100TIP3    H151791   4.803   6.609   2.780 -1.2231  0.1564  0.6760
10100TIP3    H251792   4.848   6.730   2.701  1.0884 -0.3791  1.1441
10101TIP3   OH251793   0.373   2.702   4.417  0.9499  0.1142 -0.4224
10101TIP3    H151794   0.382   2.721   4.510  1.9748 -2.0553 -0.0404
10101TIP3    H251795   0.319   2.623   4.414 -0.4817  1.1008 -1.7684
10102TIP3   OH251796   4.524   1.197   2.520  0.1100  0.2363 -0.1785
10102TIP3    H151797   4.610   1.239   2.524  0.2273 -0.1642  2.6868
10102TIP3    H251798   4.463   1.268   2.497  1.0973  0.6729 -1.4737
10103TIP3   OH251799   0.414   0.052  16.224 -0.3523 -0.1400  0.3109
10103TIP3    H151800   0.492   0.066  16.278 -2.1656  4.1638  2.0613
10103TIP3    H251801   0.421   0.116  16.154 -0.6988 -2.0795 -1.5693
10104TIP3   OH251802   3.698   0.181  16.443  0.1405  0.2007  0.2141
10104TIP3    H151803   3.663   0.129  16.516 -2.0551  0.3156 -0.7237
10104TIP3    H251804   3.706   0.118  16.371  0.3911  0.5246 -0.0418
10105TIP3   OH251805   5.359   1.156   5.666 -0.2337  0.1637  0.0892
10105TIP3    H151806   5.313   1.239   5.678 -1.3662 -0.2149 -1.4121
10105TIP3    H251807   5.408   1.167   5.584 -0.6374 -0.7225 -0.2910
10106TIP3   OH251808   4.686   2.572  15.142 -0.1244 -0.3400 -0.4211
10106TIP3    H151809   4.601   2.542  15.172 -0.7282 -0.7010 -2.4335
10106TIP3    H251810   4.726   2.611  15.219 -2.0319 -0.3396  0.5963
10107TIP3   OH251811   4.658   0.689  11.403 -0.0195 -0.3184  0.2547
10107TIP3    H151812   4.609   0.770  11.390  1.1878  0.6058  1.3379
10107TIP3    H251813   4.593   0.626  11.436 -0.9406  0.2082 -0.5252
10108TIP3   OH251814   3.975   1.243  13.741 -0.3659  0.0541  0.0067
10108TIP3    H151815   3.887   1.271  13.768  0.0476  1.0447  0.3486
10108TIP3    H251816   4.031   1.270  13.814 -0.0745 -2.5111  0.7815
10109TIP3   OH251817   2.403   4.512   5.416  0.5155 -0.3062  0.7207
10109TIP3    H151818   2.312   4.514   5.388  0.8754 -1.1100 -0.5538
10109TIP3    H251819   2.407   4.441   5.481  0.4489 -0.9652  0.0034
10110TIP3   OH251820   3.601   1.172   4.551 -0.5684  0.0792  0.1598
10110TIP3    H151821   3.567   1.126   4.628 -3.7308 -0.4182 -1.4642
10110TIP3    H251822   3.623   1.102   4.489  1.3464  0.5067  0.3138
10111TIP3   OH251823   5.514   5.365  15.572  0.6538 -0.6811  0.1899
10111TIP3    H151824   5.530   5.302  15.642  0.3632 -0.6913  0.2455
10111TIP3    H251825   5.601   5.400  15.551  0.8080 -1.0588  0.1946
10112TIP3   OH251826   6.433   5.808  13.915 -0.3272  0.3729 -0.2655
10112TIP3    H151827   6.373   5.777  13.982  0.8148 -1.1494  0.1039
10112TIP3    H251828   6.377   5.826  13.839 -1.5692  1.7101  0.9417
10113TIP3   OH251829   0.438   0.132  15.418 -0.4957 -0.1040  0.5081
10113TIP3    H151830   0.518   0.100  15.461 -0.0433 -0.2758 -0.4448
10113TIP3    H251831   0.448   0.227  15.418  0.8509 -0.1992 -1.7070
10114TIP3   OH251832   3.643   0.717   0.080  0.3281  0.0339  0.1434
10114TIP3    H151833   3.715   0.758   0.033 -0.4269 -0.5009 -1.5442
10114TIP3    H251834   3.636   0.630   0.040 -1.4433  0.2058  0.0459
10115TIP3   OH251835   1.398   5.905  12.617  0.0768  0.0638 -0.1272
10115TIP3    H151836   1.347   5.985  12.624 -1.9575 -1.2972  1.2510
10115TIP3    H251837   1.377   5.856  12.696  1.1601 -1.9052 -1.0118
10116TIP3   OH251838   1.493   2.648  14.245  0.5176  1.0161 -0.1579
10116TIP3    H151839   1.405   2.614  14.258  0.8410  0.1689 -0.1401
10116TIP3    H251840   1.546   2.605  14.312  1.6330 -1.2173 -2.3780
10117TIP3   OH251841   5.625   5.009   2.324  0.2629  0.5828 -0.5634
10117TIP3    H151842   5.620   4.987   2.417  0.0201  0.5177 -0.5916
10117TIP3    H251843   5.677   5.089   2.320  0.1071  0.6918 -0.3570
10118TIP3   OH251844   0.987   4.600   5.610  0.3647  0.3522 -0.5134
10118TIP3    H151845   0.995   4.629   5.701  1.4692 -0.0679 -0.4713
10118TIP3    H251846   0.947   4.674   5.565 -1.1577  0.1786  0.5111
10119TIP3   OH251847   2.969   1.664   5.539  0.0320  0.4534 -0.1170
10119TIP3    H151848   2.930   1.649   5.625  1.4290  0.0196  0.4526
10119TIP3    H251849   2.988   1.758   5.538 -0.6935  0.6014 -0.2600
10120TIP3   OH251850   0.109   3.117   5.517  0.0574  0.1313 -0.0986
10120TIP3    H151851   0.048   3.106   5.590  0.5004  1.6280  0.5201
10120TIP3    H251852   0.118   3.212   5.507 -0.4030 -0.0381 -2.4610
10121TIP3   OH251853   6.164   3.213  15.094 -0.6450 -0.1882  0.1561
10121TIP3    H151854   6.189   3.245  15.008 -0.3565  2.3499  1.1437
10121TIP3    H251855   6.243   3.172  15.129 -0.7829 -1.2733 -0.7947
10122TIP3   OH251856   1.901   6.554   2.727 -0.3031 -0.3614  0.0929
10122TIP3    H151857   1.815   6.581   2.694 -0.5170 -1.0981  0.0393
10122TIP3    H251858   1.948   6.524   2.649  0.4253  1.1296 -0.0579
10123TIP3   OH251859   4.277   6.126  14.639 -0.0792  0.2446 -0.2114
10123TIP3    H151860   4.212   6.129  14.710 -0.1823  1.5138 -0.3415
10123TIP3    H251861   4.315   6.214  14.639  1.3797 -0.3817 -0.3874
10124TIP3   OH251862   1.614   0.279   3.565 -0.3619 -0.0944 -0.2907
10124TIP3    H151863   1.633   0.281   3.471  0.7282 -0.8428 -0.0989
10124TIP3    H251864   1.693   0.243   3.604 -0.3080  1.4555  1.0583
10125TIP3   OH251865   2.414   5.910  14.709  0.3802  0.0399 -0.5848
10125TIP3    H151866   2.483   5.939  14.769  0.0476  1.1914 -0.7417
10125TIP3    H251867   2.461   5.865  14.639  0.7478 -1.5316  0.6552
10126TIP3   OH251868   0.664   2.872   1.194 -0.5235 -0.8475  0.6732
10126TIP3    H151869   0.597   2.935   1.165  0.2207 -0.9877 -1.4637
10126TIP3    H251870   0.746   2.907   1.158  0.3523 -1.4688  2.0185
10127TIP3   OH251871   5.512   2.424   3.885 -0.4004 -0.2058  0.1984
10127TIP3    H151872   5.514   2.481   3.962  1.0927  0.0237  0.0028
10127TIP3    H251873   5.505   2.484   3.811 -1.6303 -0.4186  0.1286
10128TIP3   OH251874   1.829   1.487   2.379  0.2689 -0.5676 -0.3695
10128TIP3    H151875   1.880   1.463   2.302  0.0093 -1.3161 -0.3131
10128TIP3    H251876   1.861   1.574   2.403  1.5011 -1.0162 -0.3507
10129TIP3   OH251877   5.208   6.595  12.977  0.1372  0.3231 -0.5344
10129TIP3    H151878   5.113   6.589  12.967  0.1248 -1.0962  0.2053
10129TIP3    H251879   5.244   6.562  12.894 -0.0253 -0.8817 -0.1451
10130TIP3   OH251880   3.609   5.505   5.091  0.5708 -0.0750  0.0603
10130TIP3    H151881   3.676   5.446   5.055 -1.1024 -1.1711 -1.3875
10130TIP3    H251882   3.633   5.591   5.057 -0.2064 -0.8789 -2.7188
10131TIP3   OH251883   2.500   0.183  14.053  0.3619  0.3356 -0.4860
10131TIP3    H151884   2.515   0.235  14.132  0.4794  0.6609 -0.7199
10131TIP3    H251885   2.577   0.200  13.998  0.7953 -0.7301 -0.2216
10132TIP3   OH251886   3.672   5.772  15.528  0.2176 -0.4742  0.1629
10132TIP3    H151887   3.673   5.867  15.520 -1.6224 -0.5255 -0.7893
10132TIP3    H251888   3.687   5.756  15.621  1.5207  0.6920  0.1844
10133TIP3   OH251889   3.979   6.312  11.460  0.3641  0.2168 -0.2336
10133TIP3    H151890   3.957   6.405  11.466  3.1511  0.8982  0.0704
10133TIP3    H251891   3.949   6.275  11.543 -1.2208  0.7229 -0.5704
10134TIP3   OH251892   5.717   6.649   4.180  0.1004 -0.3654  0.0015
10134TIP3    H151893   5.690   6.570   4.134 -1.3500  1.3513 -2.2052
10134TIP3    H251894   5.813   6.650   4.171 -0.0216 -0.9384 -1.5686
10135TIP3   OH251895   2.670   6.638   4.427  0.2731  0.0843 -0.9481
10135TIP3    H151896   2.763   6.630   4.404  0.7085  1.6581  0.2268
10135TIP3    H251897   2.663   6.721   4.474 -1.4294 -0.8576  0.5422
10136TIP3   OH251898   5.545   6.613  14.332  0.4534 -0.1446  0.0629
10136TIP3    H151899   5.551   6.692  14.279  0.7925 -0.5237 -0.4720
10136TIP3    H251900   5.480   6.634  14.399  0.5527  0.5894 -0.0664
10137TIP3   OH251901   2.991   1.048   0.771 -0.0886 -0.0603  0.7559
10137TIP3    H151902   3.030   0.963   0.791  0.8937  0.5626  1.5694
10137TIP3    H251903   2.983   1.048   0.676  1.4573 -0.4183  0.5976
10138TIP3   OH251904   4.245   5.625   1.162  0.1009 -0.3763 -0.3829
10138TIP3    H151905   4.236   5.632   1.257  0.1855 -0.9242 -0.3350
10138TIP3    H251906   4.329   5.668   1.143 -0.9649  1.7273 -0.4636
10139TIP3   OH251907   2.200   6.508   1.801  0.3175 -0.0238  0.2327
10139TIP3    H151908   2.249   6.583   1.766  1.3839 -0.3422  1.0411
10139TIP3    H251909   2.182   6.531   1.892 -1.7568  0.4432 -0.2630
10140TIP3   OH251910   3.511   4.878   4.009  0.7099 -0.0220  0.0381
10140TIP3    H151911   3.584   4.871   3.948  0.0983  2.2212 -0.9798
10140TIP3    H251912   3.470   4.792   4.008 -0.2591  0.4149 -3.9608
10141TIP3   OH251913   4.133   0.087   1.138  0.3117 -0.5278  0.0928
10141TIP3    H151914   4.068   0.023   1.110  0.0819 -0.5070  0.5738
10141TIP3    H251915   4.086   0.170   1.142 -0.1348 -0.8587  2.3496
10142TIP3   OH251916   0.016   4.273   1.705 -0.3606 -1.1438  0.0445
10142TIP3    H151917   0.016   4.187   1.663  0.9203 -1.2880  0.3085
10142TIP3    H251918   0.105   4.305   1.693  0.0727 -1.2073  2.6928
10143TIP3   OH251919   3.228   4.918   6.919 -0.0679  0.3725 -0.5367
10143TIP3    H151920   3.234   4.911   6.824  2.9671 -2.1320 -0.2457
10143TIP3    H251921   3.154   4.862   6.943 -0.3352  0.3662 -1.3546
10144TIP3   OH251922   5.234   0.861  12.794  0.6386 -0.1322 -0.1149
10144TIP3    H151923   5.219   0.775  12.835 -0.3365  0.6317  1.1526
10144TIP3    H251924   5.232   0.923  12.867  0.2749  1.0912 -1.1513
10145TIP3   OH251925   5.555   3.517  12.561  0.2805  1.0335 -0.9030
10145TIP3    H151926   5.513   3.524  12.476  0.7967 -0.0236 -1.2556
10145TIP3    H251927   5.616   3.444  12.552  0.6346  1.1703  0.2476
10146TIP3   OH251928   1.196   1.004   3.179  0.0856  0.0255  0.0633
10146TIP3    H151929   1.172   0.999   3.272  0.1325 -0.8645  0.0354
10146TIP3    H251930   1.174   1.093   3.153 -1.5813 -0.2435  0.4792
10147TIP3   OH251931   5.410   1.464  13.540  0.2234  0.0127 -0.3074
10147TIP3    H151932   5.340   1.515  13.579 -0.7221 -0.6806 -1.0779
10147TIP3    H251933   5.375   1.434  13.456  0.8624 -1.6300 -0.0104
10148TIP3   OH251934   4.942   6.816   4.329  0.1299  0.1412  0.2149
10148TIP3    H151935   4.952   6.911   4.332  1.1262 -0.0014  2.0712
10148TIP3    H251936   4.862   6.798   4.380  2.1875 -0.2847  3.4183
10149TIP3   OH251937   3.464   6.055  15.132  0.1016  0.3557  0.3447
10149TIP3    H151938   3.380   6.055  15.086  0.0997 -1.4084  0.3107
10149TIP3    H251939   3.465   6.138  15.180 -1.8295  0.2295  0.6484
10150TIP3   OH251940   0.311   1.484   1.843  0.3644  0.3761 -0.5541
10150TIP3    H151941   0.225   1.506   1.878  0.3379 -2.6405  1.4477
10150TIP3    H251942   0.296   1.465   1.750 -1.0500  0.2937 -0.3082
10151TIP3   OH251943   0.203   5.174   4.015 -0.0035  0.1483 -0.0458
10151TIP3    H151944   0.138   5.187   4.085  1.8378  1.9645  1.3797
10151TIP3    H251945   0.186   5.246   3.954  1.9400  1.8336  1.3577
10152TIP3   OH251946   4.299   3.117   3.749  0.0199  0.5109 -0.2338
10152TIP3    H151947   4.311   3.080   3.837 -1.1013  1.2983  0.2626
10152TIP3    H251948   4.273   3.207   3.765 -0.5388  0.5500 -1.3781
10153TIP3   OH251949   1.710   0.907  12.652  0.2245  0.1870 -0.0518
10153TIP3    H151950   1.726   0.842  12.583  1.3600  0.2351  0.1571
10153TIP3    H251951   1.781   0.892  12.715  0.0576  1.1371  0.3616
10154TIP3   OH251952   0.434   4.850   1.979 -0.1814 -0.3694  0.3294
10154TIP3    H151953   0.449   4.868   1.886 -3.1681 -1.0416 -0.3402
10154TIP3    H251954   0.427   4.755   1.985  0.7968 -0.3828  1.3756
10155TIP3   OH251955   5.666   1.962   0.230 -0.4611 -0.0701  0.5150
10155TIP3    H151956   5.762   1.958   0.237 -0.5260  0.4818  1.9053
10155TIP3    H251957   5.649   2.046   0.189 -0.2920 -1.0303 -1.6211
10156TIP3   OH251958   2.372   2.920  12.599  0.2165  0.0780  0.4362
10156TIP3    H151959   2.427   2.871  12.539  1.2208 -0.3186  1.6677
10156TIP3    H251960   2.329   2.985  12.544  0.3985 -0.8842 -0.8683
10157TIP3   OH251961   0.123   3.430  13.531 -0.3707 -0.4604  0.3921
10157TIP3    H151962   0.163   3.517  13.533 -0.2464 -0.4868 -0.7532
10157TIP3    H251963   0.034   3.445  13.500 -0.1226 -0.8159 -0.5232
10158TIP3   OH251964   0.338   2.643  16.948  0.1264 -0.0394 -0.1344
10158TIP3    H151965   0.288   2.669  16.870  1.5881  2.1810 -0.3851
10158TIP3    H251966   0.295   2.689  17.020  0.2320 -0.1900  0.0250
10159TIP3   OH251967   4.884   0.819   1.184 -0.0527 -0.0497 -0.4039
10159TIP3    H151968   4.850   0.851   1.268  0.6524 -0.0639 -0.1138
10159TIP3    H251969   4.842   0.734   1.172  0.8233 -0.6318  0.5556
10160TIP3   OH251970   0.130   3.836  12.903  0.2443 -0.4475  0.1930
10160TIP3    H151971   0.131   3.909  12.965  0.9439 -0.0986 -0.2237
10160TIP3    H251972   0.069   3.863  12.835 -1.7420 -1.4969  1.5052
10161TIP3   OH251973   5.024   6.649  12.062  0.1835  0.4252  0.2496
10161TIP3    H151974   5.002   6.657  11.969 -1.2670  0.1189  0.5554
10161TIP3    H251975   4.985   6.727  12.102  0.4330  0.3374  0.6571
10162TIP3   OH251976   6.411   6.677   5.947 -0.5344  0.1885  0.3807
10162TIP3    H151977   6.320   6.657   5.925 -0.0500 -0.8974 -0.6822
10162TIP3    H251978   6.454   6.592   5.952  0.3589  0.6761  1.2025
10163TIP3   OH251979   5.534   5.008   4.176  0.2624 -0.7487 -0.0976
10163TIP3    H151980   5.564   4.938   4.119  1.2971 -1.0826  0.8487
10163TIP3    H251981   5.468   4.966   4.232 -0.8764 -0.3797 -1.1511
10164TIP3   OH251982   4.099   0.154   5.119 -0.2271 -0.1425 -0.0198
10164TIP3    H151983   4.092   0.137   5.213 -0.3355 -0.6329 -0.1147
10164TIP3    H251984   4.192   0.171   5.104 -0.0969 -0.7802  0.0580
10165TIP3   OH251985   0.888   0.817  15.848 -0.0768 -0.1788  0.7107
10165TIP3    H151986   0.830   0.844  15.920  0.4932  0.3256  0.9901
10165TIP3    H251987   0.960   0.772  15.892 -0.7581 -1.7080  0.2811
10166TIP3   OH251988   4.394   3.338  11.954  0.2787  0.1273  0.3161
10166TIP3    H151989   4.404   3.251  11.994  1.1027  0.0180 -0.1191
10166TIP3    H251990   4.482   3.376  11.958  0.6019 -0.2522 -2.2137
10167TIP3   OH251991   0.641   6.814   6.109 -0.2719  0.6886 -0.4869
10167TIP3    H151992   0.709   6.772   6.162 -2.1257  0.5690  1.9168
10167TIP3    H251993   0.588   6.742   6.075 -0.1578  0.8449 -0.9988
10168TIP3   OH251994   3.513   1.650   1.858  0.1521 -0.1514 -0.3503
10168TIP3    H151995   3.553   1.595   1.925 -0.2153 -0.7694 -0.6398
10168TIP3    H251996   3.495   1.733   1.902 -1.6790 -1.1352  0.7754
10169TIP3   OH251997   3.075   2.519  15.682  0.3603 -0.1224  0.5355
10169TIP3    H151998   3.058   2.497  15.591  1.4591 -1.0059  0.5312
10169TIP3    H251999   2.996   2.565  15.711 -0.4328 -0.7777 -0.5465
10170TIP3   OH252000   4.687   4.605   1.774  0.0471  0.5587 -0.7663
10170TIP3    H152001   4.685   4.659   1.853 -0.7739  1.3008 -1.2861
10170TIP3    H252002   4.769   4.628   1.730 -0.1812  1.1998 -0.8564
10171TIP3   OH252003   6.064   5.074  14.473 -0.3900 -0.1094 -0.7973
10171TIP3    H152004   6.046   5.064  14.380 -1.3468  0.7931 -0.7054
10171TIP3    H252005   6.063   5.168  14.489  0.8154 -0.2000 -0.0743
10172TIP3   OH252006   0.581   1.582   6.089  0.5942  0.0947 -0.3114
10172TIP3    H152007   0.606   1.522   6.020 -1.6577 -1.0021 -0.2142
10172TIP3    H252008   0.576   1.528   6.168 -0.0549  0.6787  0.0594
10173TIP3   OH252009   6.697   0.622  16.661  0.0888  0.1136 -0.3923
10173TIP3    H152010   6.638   0.583  16.725 -0.1126  2.9177  1.2312
10173TIP3    H252011   6.783   0.587  16.681  0.0655  1.1619  1.6341
10174TIP3   OH252012   0.961   5.677  15.555 -0.7827  0.6806  0.3801
10174TIP3    H152013   1.002   5.643  15.635 -0.1107  4.1095  1.6038
10174TIP3    H252014   0.883   5.723  15.586 -0.5675  1.9500 -0.9062
10175TIP3   OH252015   6.174   5.506  12.949 -0.0932 -0.5641  0.0200
10175TIP3    H152016   6.122   5.563  13.006 -1.1807 -2.4597  0.9716
10175TIP3    H252017   6.139   5.521  12.861 -0.0673  0.5530  0.1911
10176TIP3   OH252018   6.193   5.281   1.441 -0.5822 -0.1795 -0.0459
10176TIP3    H152019   6.209   5.322   1.356  0.1965  2.3697  1.2810
10176TIP3    H252020   6.113   5.322   1.473 -1.1934 -1.5544  0.2004
10177TIP3   OH252021   5.097   6.751  16.138  0.1723 -0.5259 -0.6247
10177TIP3    H152022   5.098   6.797  16.222 -0.4220 -0.3759 -0.6969
10177TIP3    H252023   5.025   6.791  16.090  0.2878 -0.8556 -1.0738
10178TIP3   OH252024   3.118   1.517   3.703  0.6226 -0.2181 -0.4049
10178TIP3    H152025   3.099   1.578   3.632  0.8201  1.2563  0.7670
10178TIP3    H252026   3.048   1.532   3.767 -0.9136 -3.1915 -1.2616
10179TIP3   OH252027   3.303   3.458   0.193  0.6319  0.0489 -0.1041
10179TIP3    H152028   3.252   3.439   0.114  2.0731  0.4392 -1.1593
10179TIP3    H252029   3.247   3.515   0.245 -0.5720 -0.6906 -0.5719
10180TIP3   OH252030   4.108   0.376   3.980 -0.0915 -0.3834  0.6300
10180TIP3    H152031   4.033   0.320   3.999  0.7552 -2.2279 -1.3730
10180TIP3    H252032   4.102   0.395   3.887  0.9234  0.9711  0.8177
10181TIP3   OH252033   3.014   3.961  15.470  0.3594  0.2717  0.4890
10181TIP3    H152034   3.096   4.002  15.442 -0.6357  0.9180 -1.6275
10181TIP3    H252035   2.947   4.027  15.451 -0.6384 -0.1640  2.3945
10182TIP3   OH252036   2.285   5.648   2.066  0.7140  0.4295  0.3702
10182TIP3    H152037   2.294   5.679   1.976 -1.9779 -0.8083 -0.3713
10182TIP3    H252038   2.250   5.724   2.114 -2.1050 -0.1868 -0.6101
10183TIP3   OH252039   2.583   5.472  11.823 -0.0767 -0.1661  0.2212
10183TIP3    H152040   2.514   5.475  11.757 -0.9361 -0.1986  1.1114
10183TIP3    H252041   2.572   5.386  11.865  1.5812 -0.8918 -0.7705
10184TIP3   OH252042   6.058   5.612  15.807  0.3563  0.3899 -0.2811
10184TIP3    H152043   6.080   5.548  15.874 -0.9482 -0.1941 -0.4132
10184TIP3    H252044   6.125   5.680  15.817  1.1590 -0.4977  0.5042
10185TIP3   OH252045   1.874   6.688   4.845 -0.3328 -0.2771 -0.1302
10185TIP3    H152046   1.913   6.646   4.922 -0.2652 -2.1480 -1.1535
10185TIP3    H252047   1.949   6.716   4.793 -0.3798  0.9218  0.4210
10186TIP3   OH252048   6.604   4.677  13.359  0.5197 -0.2364 -0.5503
10186TIP3    H152049   6.567   4.760  13.386 -1.2891 -0.5187 -2.0589
10186TIP3    H252050   6.546   4.611  13.398  0.2585 -0.7103 -1.7186
10187TIP3   OH252051   6.804   0.858  11.771  0.6800 -0.3075  0.0314
10187TIP3    H152052   6.718   0.815  11.762  0.1923  0.2615  1.7108
10187TIP3    H252053   6.857   0.795  11.820  0.9159 -0.2537 -0.1554
10188TIP3   OH252054   4.259   4.560   2.296  0.1685 -0.1171  0.1430
10188TIP3    H152055   4.164   4.568   2.282  0.2037  0.2954  0.1585
10188TIP3    H252056   4.270   4.469   2.325 -0.2061 -0.2101  0.0049
10189TIP3   OH252057   6.178   0.898  11.675  0.3457 -0.4080 -0.6579
10189TIP3    H152058   6.132   0.911  11.758 -1.0262 -0.6550 -1.3546
10189TIP3    H252059   6.212   0.984  11.653  0.6486 -0.3222  0.1200
10190TIP3   OH252060   2.148   5.639  10.880 -0.6269 -0.3631  0.2561
10190TIP3    H152061   2.222   5.591  10.843 -1.5542 -0.5931 -1.3575
10190TIP3    H252062   2.100   5.671  10.804 -1.9228  0.2016  1.2919
10191TIP3   OH252063   2.197   3.868   5.600 -0.3585  0.7485  0.4304
10191TIP3    H152064   2.191   3.934   5.531 -0.1636  0.1314 -0.1857
10191TIP3    H252065   2.131   3.802   5.575 -0.2279  0.4836  0.7897
10192TIP3   OH252066   0.480   6.642   2.112  0.3799 -0.6166  0.0930
10192TIP3    H152067   0.443   6.567   2.159 -1.9996  1.1970  1.2470
10192TIP3    H252068   0.536   6.685   2.177 -0.3185  0.0555  0.2516
10193TIP3   OH252069   5.239   4.838  15.486 -0.3522  0.3302 -0.6694
10193TIP3    H152070   5.208   4.829  15.576 -1.6813  0.8561 -1.0710
10193TIP3    H252071   5.295   4.916  15.488  0.9288 -0.5756  0.0304
10194TIP3   OH252072   3.813   2.607   3.913  0.7999  0.5049  0.4474
10194TIP3    H152073   3.806   2.661   3.835  1.8365 -1.0766 -0.7659
10194TIP3    H252074   3.885   2.645   3.963 -0.8559  2.4682  1.4511
10195TIP3   OH252075   6.222   0.857   1.005 -0.4682  0.0435  0.5373
10195TIP3    H152076   6.187   0.945   1.019 -1.0361 -0.3644  1.8202
10195TIP3    H252077   6.263   0.834   1.088  0.6024 -0.4984 -0.1292
10196TIP3   OH252078   3.215   6.466  15.924 -0.1360 -0.1720  0.5014
10196TIP3    H152079   3.177   6.534  15.980 -2.6310  0.1182 -1.4626
10196TIP3    H252080   3.263   6.515  15.857  0.1892 -0.4157  0.5570
10197TIP3   OH252081   5.806   0.833   4.590 -0.7247 -0.1699  0.1398
10197TIP3    H152082   5.822   0.781   4.669 -0.8555  2.9855  2.3534
10197TIP3    H252083   5.894   0.852   4.556 -0.6828 -1.8674 -0.6955
10198TIP3   OH252084   3.722   3.558  11.790  0.3650  0.2322  0.1357
10198TIP3    H152085   3.769   3.595  11.865  1.0475  2.5235 -1.3656
10198TIP3    H252086   3.747   3.615  11.717 -2.1085 -0.5702 -1.3530
10199TIP3   OH252087   3.237   3.233  13.319  0.2367  0.1867 -0.1485
10199TIP3    H152088   3.190   3.313  13.337  1.3216  0.7682  0.1653
10199TIP3    H252089   3.218   3.214  13.227 -0.4288  0.5264 -0.0797
10200TIP3   OH252090   0.454   1.116   4.770 -0.4745  0.0761  0.4002
10200TIP3    H152091   0.415   1.045   4.720  0.0387 -0.2344  0.4358
10200TIP3    H252092   0.514   1.073   4.831  0.5399  0.5840 -0.2115
10201TIP3   OH252093   6.753   0.306   2.491  0.3095 -0.7963  0.5195
10201TIP3    H152094   6.784   0.390   2.525 -0.6659  0.5587 -1.8143
10201TIP3    H252095   6.674   0.287   2.542  0.0340  0.1512  0.4457
10202TIP3   OH252096   4.904   0.319   2.317  0.3717  0.3740 -0.1060
10202TIP3    H152097   4.864   0.369   2.246  0.7328 -1.1714 -1.4308
10202TIP3    H252098   4.848   0.242   2.327  1.7851 -0.7464 -0.5409
10203TIP3   OH252099   6.087   4.090   5.780  0.1778 -0.0341 -0.3807
10203TIP3    H152100   6.004   4.059   5.741  0.5608  0.2926 -1.4800
10203TIP3    H252101   6.142   4.110   5.704  1.1643  0.0226  0.3524
10204TIP3   OH252102   1.776   4.433  11.354  0.2947  0.1761 -0.2760
10204TIP3    H152103   1.864   4.398  11.340  0.9089  1.7228 -0.3232
10204TIP3    H252104   1.729   4.414  11.273  0.7575 -0.1130 -0.4767
10205TIP3   OH252105   6.373   2.520  14.911 -0.3722 -0.2844  0.5241
10205TIP3    H152106   6.407   2.535  14.823  1.0919  0.8979  1.2718
10205TIP3    H252107   6.421   2.444  14.942 -0.6943 -0.5332  0.4256
10206TIP3   OH252108   0.490   6.597   3.387  0.4329 -0.3528  0.1977
10206TIP3    H152109   0.472   6.636   3.473  1.7406  0.9440 -0.1051
10206TIP3    H252110   0.497   6.503   3.404  1.3303 -0.0358  1.6042
10207TIP3   OH252111   1.311   4.602   0.860 -0.0801 -0.0055 -0.3857
10207TIP3    H152112   1.252   4.659   0.810 -1.2674 -0.9563 -0.0689
10207TIP3    H252113   1.256   4.530   0.889  0.8041  0.0719  1.5439
10208TIP3   OH252114   3.328   6.459  10.707 -0.1710  0.3297 -0.2154
10208TIP3    H152115   3.369   6.373  10.703  0.0396  0.3759  0.8769
10208TIP3    H252116   3.273   6.456  10.786 -0.7983  0.9094 -0.6237
10209TIP3   OH252117   6.403   3.783  11.717 -0.7786  0.2650  0.4340
10209TIP3    H152118   6.370   3.856  11.770  0.3222  1.0618  0.0482
10209TIP3    H252119   6.390   3.706  11.771 -3.5012  0.5037  0.1984
10210TIP3   OH252120   0.775   4.442  14.084 -0.1164  0.0810  0.3252
10210TIP3    H152121   0.819   4.381  14.025 -0.5789  0.4244 -0.3769
10210TIP3    H252122   0.736   4.507  14.027  0.8296  1.3523  1.1015
10211TIP3   OH252123   0.366   4.215  15.330  0.3088  0.1376 -0.0047
10211TIP3    H152124   0.313   4.283  15.288 -1.4331 -1.1602  0.0128
10211TIP3    H252125   0.302   4.159  15.373  1.5804 -2.3984 -1.3100
10212TIP3   OH252126   0.394   6.679   1.277 -0.3696 -0.0973  0.3271
10212TIP3    H152127   0.453   6.617   1.321 -0.4857 -0.6599 -0.2937
10212TIP3    H252128   0.439   6.763   1.282  1.1253 -0.7625 -1.2884
10213TIP3   OH252129   5.112   6.001   5.506 -0.7415 -0.1138  0.1492
10213TIP3    H152130   5.185   6.063   5.502  0.4453 -1.5872 -2.5976
10213TIP3    H252131   5.107   5.976   5.598  1.8415  0.4898  0.5151
10214TIP3   OH252132   3.366   4.095   1.370 -0.1503 -0.6057 -0.4434
10214TIP3    H152133   3.317   4.034   1.314 -0.0219 -0.6708 -0.4862
10214TIP3    H252134   3.320   4.092   1.454 -0.7430  0.0024 -0.7467
10215TIP3   OH252135   4.986   1.752   0.124 -0.0579  0.0743 -0.9817
10215TIP3    H152136   4.908   1.806   0.133 -0.5651 -0.7822 -0.0637
10215TIP3    H252137   4.953   1.666   0.096  0.5898 -0.1868 -0.9586
10216TIP3   OH252138   2.886   6.515  16.323 -0.1259 -0.2422 -0.4145
10216TIP3    H152139   2.880   6.475  16.236 -2.6930 -0.5702 -0.1274
10216TIP3    H252140   2.823   6.587  16.320 -0.7792 -0.7210  1.4150
10217TIP3   OH252141   6.756   4.406  11.277 -0.1195  0.1595  0.3578
10217TIP3    H152142   6.691   4.420  11.208 -0.0217 -0.5721  0.1049
10217TIP3    H252143   6.795   4.492  11.292 -1.2367  0.6354  0.6018
10218TIP3   OH252144   6.780   5.961  13.744  0.0251  0.3826  0.1718
10218TIP3    H152145   6.821   5.971  13.830  0.6301  1.0925 -0.1902
10218TIP3    H252146   6.845   5.915  13.692 -0.4538 -0.2916  0.1711
10219TIP3   OH252147   5.297   1.777   0.964  0.5487 -0.0266 -0.7625
10219TIP3    H152148   5.217   1.759   0.915  1.4283 -1.2623 -1.7720
10219TIP3    H252149   5.368   1.748   0.906  1.6934  0.2297  0.4796
10220TIP3   OH252150   5.838   1.440  12.609  0.8224  0.3840  0.2186
10220TIP3    H152151   5.811   1.528  12.634  1.6189  0.3743  1.1144
10220TIP3    H252152   5.919   1.452  12.559 -0.8214  0.4192 -2.5641
10221TIP3   OH252153   2.929   3.788  15.709  0.3449  0.0233 -0.1007
10221TIP3    H152154   2.969   3.837  15.638 -1.3195 -0.2168 -1.2360
10221TIP3    H252155   2.892   3.710  15.667 -1.2621  0.2180  0.8897
10222TIP3   OH252156   5.597   4.674  15.814  0.3583  0.1782 -0.1823
10222TIP3    H152157   5.555   4.695  15.731  3.1152 -0.1414 -1.6849
10222TIP3    H252158   5.617   4.580  15.808  3.0260  0.7277 -0.3000
10223TIP3   OH252159   1.798   1.279   4.783  0.2694  0.5381  0.6364
10223TIP3    H152160   1.803   1.359   4.732 -0.5333 -0.3517 -0.8722
10223TIP3    H252161   1.854   1.217   4.737  0.8186  0.1864  1.7458
10224TIP3   OH252162   2.651   6.728  15.649  0.0277 -0.2678 -0.5283
10224TIP3    H152163   2.744   6.705  15.637 -0.5290 -3.0078  0.1383
10224TIP3    H252164   2.630   6.698  15.737 -1.3563  0.9189 -0.4333
10225TIP3   OH252165   3.258   0.043  13.508 -0.0381 -0.2667 -0.1201
10225TIP3    H152166   3.273  -0.046  13.541  1.4298  0.3918  1.0511
10225TIP3    H252167   3.181   0.074  13.555 -1.5558 -1.4759 -1.7183
10226TIP3   OH252168   4.198   4.294   3.845  0.2562 -0.5050  0.0627
10226TIP3    H152169   4.155   4.214   3.814  1.2732 -0.7454 -0.7323
10226TIP3    H252170   4.164   4.363   3.789 -0.2737 -0.4479  0.4502
10227TIP3   OH252171   4.282   5.246  16.201  0.0856 -0.4516  0.7567
10227TIP3    H152172   4.302   5.331  16.239 -0.2344 -0.4313  0.8807
10227TIP3    H252173   4.334   5.184  16.251 -0.6685 -0.4769  1.5202
10228TIP3   OH252174   3.213   4.596   2.364 -0.0532 -0.3986 -0.1732
10228TIP3    H152175   3.300   4.601   2.404 -0.7129 -3.2841  1.7891
10228TIP3    H252176   3.229   4.569   2.274  1.0702 -1.3170  0.2917
10229TIP3   OH252177   6.532   4.702   6.242 -0.5499  0.2799 -0.6534
10229TIP3    H152178   6.576   4.760   6.180 -1.0213  0.1020 -1.1548
10229TIP3    H252179   6.558   4.614   6.213 -0.7076  0.2004 -0.5488
10230TIP3   OH252180   2.206   6.450  14.736  0.5110 -0.2286  0.8086
10230TIP3    H152181   2.147   6.406  14.797  0.1652  1.1658  1.4795
10230TIP3    H252182   2.289   6.403  14.745 -0.2708 -1.7217  0.3962
10231TIP3   OH252183   0.707   4.734  16.668  0.0624  0.9765  0.0158
10231TIP3    H152184   0.705   4.822  16.707 -0.3329  1.1548 -0.3935
10231TIP3    H252185   0.657   4.680  16.729  0.3266  1.0309  0.2834
10232TIP3   OH252186   5.514   2.458  12.669  0.0503  0.3886 -0.2110
10232TIP3    H152187   5.546   2.374  12.637 -0.6162 -0.0271  0.2160
10232TIP3    H252188   5.436   2.437  12.719  0.8218  1.0697  1.3163
10233TIP3   OH252189   4.440   0.094   0.598 -0.6515  0.3309  0.2443
10233TIP3    H152190   4.484   0.010   0.584 -0.1908  0.9709 -2.4534
10233TIP3    H252191   4.349   0.077   0.572 -0.5138  0.7048 -0.4905
10234TIP3   OH252192   0.799   1.650  16.369 -0.1943  0.3036  0.8250
10234TIP3    H152193   0.809   1.585  16.300  1.4642  1.3254  0.0692
10234TIP3    H252194   0.785   1.598  16.449  0.0352 -0.9352  0.0750
10235TIP3   OH252195   5.326   2.816  15.717  0.0498  0.2489 -0.1208
10235TIP3    H152196   5.305   2.866  15.637 -0.4548  1.9246  1.0305
10235TIP3    H252197   5.259   2.749  15.721 -0.1910  0.4330 -0.8608
10236TIP3   OH252198   5.769   5.357   4.156  0.6974  0.3544 -0.4900
10236TIP3    H152199   5.755   5.339   4.248  0.6084  1.5142 -0.2646
10236TIP3    H252200   5.862   5.381   4.150  0.4647  1.3106 -0.5078
10237TIP3   OH252201   3.638   2.554   2.808 -0.5915 -0.4739  0.3776
10237TIP3    H152202   3.595   2.595   2.733 -0.7716 -1.5651 -0.1233
10237TIP3    H252203   3.698   2.621   2.841 -1.6170  0.5459  0.2022
10238TIP3   OH252204   5.240   6.368   1.503 -0.4990 -0.1202 -0.3408
10238TIP3    H152205   5.244   6.278   1.471 -0.0154 -0.9805  2.0605
10238TIP3    H252206   5.171   6.368   1.568  0.6745  0.8221  0.9305
10239TIP3   OH252207   6.473   1.690  12.410  0.0952  0.5170  0.0724
10239TIP3    H152208   6.506   1.662  12.325  0.5447 -0.9439  0.7024
10239TIP3    H252209   6.502   1.780  12.420  2.9568 -0.3561  0.1274
10240TIP3   OH252210   4.268   4.843   5.793  0.2493  0.3715 -0.3058
10240TIP3    H152211   4.360   4.866   5.802  0.3303 -0.3428  0.8851
10240TIP3    H252212   4.268   4.748   5.781 -0.3584  0.2341  0.6612
10241TIP3   OH252213   3.940   0.292  15.822  0.0895 -0.4399 -0.1328
10241TIP3    H152214   3.955   0.247  15.739  0.4919 -0.4703 -0.0409
10241TIP3    H252215   3.951   0.224  15.888 -1.1872 -0.6390 -0.1081
10242TIP3   OH252216   1.559   0.831   3.475 -0.5491  0.2882  0.0511
10242TIP3    H152217   1.473   0.790   3.463 -0.5040 -0.2284  1.3899
10242TIP3    H252218   1.597   0.786   3.551  1.2823 -0.1019 -1.0693
10243TIP3   OH252219   3.049   5.974  14.307 -0.0342 -0.1331 -0.3709
10243TIP3    H152220   2.971   5.963  14.362 -0.4094 -1.9456 -1.2228
10243TIP3    H252221   3.047   6.065  14.280 -0.6462  0.4066  1.4133
10244TIP3   OH252222   3.461   0.264   5.829 -0.5430 -0.3821 -0.2174
10244TIP3    H152223   3.381   0.271   5.777 -0.6519  0.0512  0.0123
10244TIP3    H252224   3.531   0.286   5.768 -0.6734  0.1631 -0.1745
10245TIP3   OH252225   2.663   6.416   0.623 -0.0164 -0.2916  0.0036
10245TIP3    H152226   2.704   6.329   0.620  1.2521  0.3192 -0.8641
10245TIP3    H252227   2.681   6.453   0.537 -1.9429  0.2201 -0.1853
10246TIP3   OH252228   6.060   1.247  13.757  0.4363  0.3727 -0.1261
10246TIP3    H152229   6.026   1.206  13.837  0.5475 -1.1082 -0.8309
10246TIP3    H252230   6.142   1.202  13.740  1.4862  2.1547  0.1020
10247TIP3   OH252231   0.101   2.517  14.983  0.1550  0.5388  0.1844
10247TIP3    H152232   0.090   2.486  15.073  1.2947 -2.4776 -0.6415
10247TIP3    H252233   0.195   2.525  14.972 -0.0202  1.7665 -0.4865
10248TIP3   OH252234   3.826   0.488  10.661  0.1987 -0.7790  0.2802
10248TIP3    H152235   3.860   0.570  10.624  1.9070 -0.8718  1.5481
10248TIP3    H252236   3.769   0.516  10.732  0.1326 -0.6648  0.1820
10249TIP3   OH252237   0.804   1.967  12.531  0.2881 -0.9269  0.5076
10249TIP3    H152238   0.718   2.010  12.521  0.0414 -0.7213  3.0461
10249TIP3    H252239   0.828   1.940  12.443 -1.7087  0.3515 -0.4700
10250TIP3   OH252240   4.706   6.017  16.780  0.1957 -0.1296  0.0071
10250TIP3    H152241   4.731   6.016  16.872  0.1814  1.8820  0.0650
10250TIP3    H252242   4.777   5.970  16.735 -0.6594 -2.6193  1.2147
10251TIP3   OH252243   3.062   0.338   5.400  0.1400 -0.1824 -0.5635
10251TIP3    H152244   3.084   0.245   5.393  0.4963 -0.2025  0.8105
10251TIP3    H252245   3.035   0.350   5.491 -0.9085  0.8471 -0.9863
10252TIP3   OH252246   3.122   0.015  15.495  0.6359  0.6446  0.1879
10252TIP3    H152247   3.196   0.074  15.481 -0.1837  1.7357  0.3540
10252TIP3    H252248   3.068   0.060  15.561 -1.0940  0.7314 -1.2386
10253TIP3   OH252249   0.157   2.861  15.043 -0.5980 -0.2431  0.4224
10253TIP3    H152250   0.177   2.791  15.106  2.6736  0.5498  0.3822
10253TIP3    H252251   0.128   2.934  15.097  1.4097  0.1628  1.0041
10254TIP3   OH252252   0.071   6.820  15.037  0.4140  0.5822  0.2390
10254TIP3    H152253   0.053   6.726  15.048  1.4750  0.2226 -0.9064
10254TIP3    H252254   0.166   6.827  15.041  0.3093  1.7045  0.9101
10255TIP3   OH252255   2.489   0.417  14.885 -0.2679  0.4964  0.1684
10255TIP3    H152256   2.576   0.409  14.924 -0.3822  1.4715  0.6293
10255TIP3    H252257   2.435   0.355  14.935 -0.3055  1.4007  1.2575
10256TIP3   OH252258   3.419   5.515   1.243 -0.4812 -0.1809 -0.1571
10256TIP3    H152259   3.465   5.532   1.161  2.0175  0.0880  1.2599
10256TIP3    H252260   3.482   5.468   1.297 -1.0601  2.1048  2.6475
10257TIP3   OH252261   6.605   2.480  16.663 -0.0941 -0.2178  0.4048
10257TIP3    H152262   6.622   2.571  16.639  1.3044 -1.0367 -1.8774
10257TIP3    H252263   6.514   2.480  16.695  0.2521  2.1416  1.5295
10258TIP3   OH252264   3.514   1.801  12.850  0.5991  0.7169 -0.2449
10258TIP3    H152265   3.484   1.725  12.899 -0.2835  1.1872 -0.0483
10258TIP3    H252266   3.605   1.812  12.877  0.4755  0.2533  0.3829
10259TIP3   OH252267   1.476   2.459   2.386 -0.0431  0.1533  0.0850
10259TIP3    H152268   1.419   2.422   2.318  0.1736 -1.6492  0.8622
10259TIP3    H252269   1.445   2.419   2.468  0.0712  1.8604  0.9924
10260TIP3   OH252270   5.766   3.573   1.482 -0.3754  0.6959 -0.1797
10260TIP3    H152271   5.777   3.546   1.391  0.5764  2.6011 -0.6686
10260TIP3    H252272   5.855   3.568   1.519 -1.0046 -1.6088  1.1204
10261TIP3   OH252273   2.045   3.228  14.885  0.4835  0.3036  0.3763
10261TIP3    H152274   2.089   3.172  14.949  0.2886 -0.3136 -0.0278
10261TIP3    H252275   2.044   3.176  14.805 -0.9112  0.3589  0.3596
10262TIP3   OH252276   5.909   2.533   0.689 -0.8914 -0.1314  0.1372
10262TIP3    H152277   5.919   2.628   0.681  0.0573 -0.0635  1.8585
10262TIP3    H252278   5.985   2.497   0.645 -0.8291 -0.0792  0.2034
10263TIP3   OH252279   6.760   5.154   4.942  0.1368 -0.1907 -0.1924
10263TIP3    H152280   6.806   5.131   5.023 -0.3571 -0.2924  0.0624
10263TIP3    H252281   6.752   5.249   4.945  1.5138 -0.0413 -0.8828
10264TIP3   OH252282   6.819   0.935   3.419 -0.4015  0.7202 -0.1340
10264TIP3    H152283   6.852   1.024   3.407  1.7782  0.2733  2.2057
10264TIP3    H252284   6.892   0.879   3.393 -1.1159 -0.3701  0.1780
10265TIP3   OH252285   2.258   4.157   0.841  0.2334 -0.4875  0.0460
10265TIP3    H152286   2.240   4.234   0.895  0.0602  0.0804 -0.7993
10265TIP3    H252287   2.304   4.097   0.899 -0.4199 -0.1127  0.9766
10266TIP3   OH252288   4.716   4.720   3.726  0.1102  0.0724 -0.2961
10266TIP3    H152289   4.757   4.802   3.699 -0.7606  0.4944 -0.3502
10266TIP3    H252290   4.735   4.659   3.654  0.1646  0.4174 -0.5741
10267TIP3   OH252291   4.233   3.502  12.076  0.3839  0.1240 -0.3783
10267TIP3    H152292   4.288   3.432  12.042 -0.8218 -0.7960 -0.4613
10267TIP3    H252293   4.275   3.583  12.047  3.0371 -0.4755  1.6045
10268TIP3   OH252294   1.486   0.257   1.568 -0.1866  0.3099 -0.1174
10268TIP3    H152295   1.402   0.239   1.611 -0.6484 -0.1239 -1.1748
10268TIP3    H252296   1.509   0.175   1.525  1.9062 -0.2717  1.9936
10269TIP3   OH252297   3.940   6.604  15.691 -0.2479 -0.2160 -0.1097
10269TIP3    H152298   4.031   6.595  15.718  0.1440 -1.6229 -1.8606
10269TIP3    H252299   3.899   6.520  15.715 -0.3758 -0.7075 -1.9779
10270TIP3   OH252300   5.388   3.300  16.767  0.3363 -0.1932 -0.4468
10270TIP3    H152301   5.303   3.296  16.810  0.1567 -1.7345 -0.9443
10270TIP3    H252302   5.389   3.227  16.706  1.4398  0.6938 -1.5242
10271TIP3   OH252303   1.845   4.980  16.146 -0.3370 -0.1196 -0.4400
10271TIP3    H152304   1.820   5.022  16.063 -1.7547 -0.6777 -0.3091
10271TIP3    H252305   1.762   4.958  16.188  0.3563  1.2197  1.6912
10272TIP3   OH252306   5.548   2.101   3.875 -0.3474 -0.3982  0.2353
10272TIP3    H152307   5.500   2.082   3.956  1.0567  2.6059  1.8795
10272TIP3    H252308   5.480   2.113   3.809 -1.5621 -1.8757  1.1800
10273TIP3   OH252309   2.699   2.144  13.068  0.2036 -0.4379  0.3182
10273TIP3    H152310   2.660   2.061  13.040  0.5041 -0.7273  0.7426
10273TIP3    H252311   2.794   2.127  13.067  0.2673 -0.0827  0.3506
10274TIP3   OH252312   5.283   2.888  11.228 -0.5918 -0.5313  0.7655
10274TIP3    H152313   5.369   2.906  11.192 -0.7462 -1.1964  0.0620
10274TIP3    H252314   5.296   2.814  11.287 -0.6222 -0.4189  0.9143
10275TIP3   OH252315   4.172   3.790  11.109  0.4551 -0.1586 -0.1555
10275TIP3    H152316   4.179   3.877  11.070 -1.6376  0.2492  0.2707
10275TIP3    H252317   4.121   3.739  11.046  1.4198 -0.9809 -0.2678
10276TIP3   OH252318   6.016   5.215  12.434 -0.4170  0.0240 -0.9381
10276TIP3    H152319   6.064   5.288  12.395  1.9236 -1.3002 -0.5924
10276TIP3    H252320   5.927   5.249  12.446  1.0523  3.4916  1.0135
10277TIP3   OH252321   6.216   3.476  13.955  0.0292 -0.0974 -0.8069
10277TIP3    H152322   6.240   3.549  13.898  0.2903 -0.1394 -0.7538
10277TIP3    H252323   6.205   3.515  14.042  0.5332 -0.1776 -0.7045
10278TIP3   OH252324   1.700   4.383   4.238 -0.1967 -0.2224  0.3622
10278TIP3    H152325   1.695   4.290   4.262 -1.0095 -0.8241 -2.0793
10278TIP3    H252326   1.785   4.392   4.196  0.4639  0.4566  1.8089
10279TIP3   OH252327   2.693   3.202  13.269  0.4244 -0.1805  0.1263
10279TIP3    H152328   2.654   3.245  13.192 -0.9870  0.0131  0.9393
10279TIP3    H252329   2.771   3.158  13.235  0.8291  1.4244 -1.0872
10280TIP3   OH252330   2.165   3.008  14.720  0.0272  0.5896 -0.0619
10280TIP3    H152331   2.158   3.015  14.815 -2.8406 -1.6020 -0.0569
10280TIP3    H252332   2.216   2.928  14.705  3.4338  2.7046 -0.4207
10281TIP3   OH252333   6.292   2.359   1.389 -0.1222  0.6134 -0.4761
10281TIP3    H152334   6.207   2.315   1.399  0.1763  0.1712  0.0943
10281TIP3    H252335   6.269   2.451   1.376 -0.6723  0.5913  0.2902
10282TIP3   OH252336   6.804   0.401   0.853  0.1003  0.1927 -0.8465
10282TIP3    H152337   6.833   0.490   0.831  0.4774  0.2878 -0.0155
10282TIP3    H252338   6.777   0.408   0.945 -1.5057 -0.1625 -1.2954
10283TIP3   OH252339   1.004   2.549  13.356  0.1958  0.6364 -0.6618
10283TIP3    H152340   1.032   2.460  13.375  2.2989  2.0354  3.2519
10283TIP3    H252341   1.082   2.593  13.321 -0.2438  1.5351 -0.5326
10284TIP3   OH252342   1.628   3.221   2.024 -0.1600  0.1949 -0.1886
10284TIP3    H152343   1.600   3.153   1.962 -0.3829 -0.1047  0.2398
10284TIP3    H252344   1.655   3.172   2.102 -1.0894  0.6422  0.4200
10285TIP3   OH252345   3.165   5.561  16.135  0.5983 -0.4442 -0.5507
10285TIP3    H152346   3.076   5.526  16.143  1.2226 -2.0426 -0.4326
10285TIP3    H252347   3.153   5.650  16.103 -1.0153 -0.8699 -1.1666
10286TIP3   OH252348   3.400   1.852   0.019 -0.1138  0.2566  0.2105
10286TIP3    H152349   3.418   1.791  -0.052  0.3967  0.8233 -0.1504
10286TIP3    H252350   3.304   1.855   0.024 -0.1603  0.3998 -0.6267
10287TIP3   OH252351   4.138   3.387  12.710 -0.0418 -0.6944 -0.5115
10287TIP3    H152352   4.079   3.403  12.784 -0.7399 -0.7900 -1.0382
10287TIP3    H252353   4.086   3.334  12.649  0.1034  0.3893 -1.6063
10288TIP3   OH252354   4.151   2.814  16.125 -0.3561  0.2370 -0.2745
10288TIP3    H152355   4.091   2.768  16.183 -0.1034  0.0774 -0.1415
10288TIP3    H252356   4.180   2.890  16.175 -0.8373  0.5895 -0.5271
10289TIP3   OH252357   0.632   0.322   0.617 -0.8224  0.0056  0.0428
10289TIP3    H152358   0.640   0.257   0.547  0.1630  0.5727 -0.3816
10289TIP3    H252359   0.582   0.393   0.577  1.6217  1.3050 -0.8202
10290TIP3   OH252360   3.020   6.065  11.684 -0.1758  0.0079  0.0714
10290TIP3    H152361   3.039   6.028  11.598 -3.3325 -1.4022 -0.0917
10290TIP3    H252362   3.056   6.154  11.681  2.2940 -0.9961 -1.6323
10291TIP3   OH252363   2.021   0.675  16.123  0.1018 -0.6426 -0.9533
10291TIP3    H152364   2.107   0.635  16.110  1.1215  1.2915 -0.3274
10291TIP3    H252365   1.966   0.635  16.056  1.4890 -1.9198 -1.3531
10292TIP3   OH252366   3.458   3.347   0.657 -0.1781 -0.2490 -0.5077
10292TIP3    H152367   3.431   3.416   0.719  1.4133 -0.6239  0.6245
10292TIP3    H252368   3.376   3.320   0.615 -1.4277 -0.4390  1.9193
10293TIP3   OH252369   4.424   6.368   1.235 -0.0676 -0.6097  0.2712
10293TIP3    H152370   4.370   6.443   1.259  0.6791  1.0540 -2.9607
10293TIP3    H252371   4.442   6.324   1.317 -1.0905  2.3704  2.1610
10294TIP3   OH252372   5.923   5.182   5.709 -0.5299 -0.1296 -0.4743
10294TIP3    H152373   5.867   5.188   5.786 -0.6034  2.0125 -0.6689
10294TIP3    H252374   5.882   5.116   5.654 -0.0842 -2.2064  1.6265
10295TIP3   OH252375   4.603   2.216  14.936 -0.6567  0.5328 -0.1187
10295TIP3    H152376   4.544   2.141  14.928  1.1038 -0.9080  0.0919
10295TIP3    H252377   4.618   2.224  15.031  2.0904 -1.2142 -0.3730
10296TIP3   OH252378   4.908   6.630   2.077 -0.3385  0.0648  0.2422
10296TIP3    H152379   4.847   6.703   2.078 -0.9400 -0.4341  0.9902
10296TIP3    H252380   4.918   6.608   1.985  1.8228  2.6954 -0.2101
10297TIP3   OH252381   3.969   1.744  10.629 -0.2950  0.0966  0.6059
10297TIP3    H152382   3.915   1.781  10.559 -1.1599  2.3378  2.4048
10297TIP3    H252383   4.016   1.672  10.587 -3.5057 -0.9520 -1.4008
10298TIP3   OH252384   0.335   4.831  17.241  0.1491  0.2610 -0.3466
10298TIP3    H152385   0.410   4.852  17.186  0.4645  0.5379  0.1810
10298TIP3    H252386   0.336   4.897  17.310  1.1559 -1.4621  1.3520
10299TIP3   OH252387   5.405   5.068   0.809  0.0335  0.2210 -0.6112
10299TIP3    H152388   5.391   4.988   0.858  1.9968  0.0216 -0.3107
10299TIP3    H252389   5.335   5.127   0.837  0.5669 -0.2218  1.6936
10300TIP3   OH252390   5.553   4.494   0.114  0.4378  0.5163 -0.4563
10300TIP3    H152391   5.485   4.480   0.180  0.1400  1.2090 -0.6124
10300TIP3    H252392   5.508   4.484   0.030  0.6770  0.2984 -0.5605
10301TIP3   OH252393   0.966   6.810  14.478 -0.0463 -0.1212 -0.3209
10301TIP3    H152394   0.924   6.815  14.564 -0.7371 -0.2235 -0.6536
10301TIP3    H252395   0.931   6.730  14.438  0.2831 -0.0813 -0.6980
10302TIP3   OH252396   2.837   2.719  14.492  0.6904 -0.1679 -0.1937
10302TIP3    H152397   2.742   2.721  14.476  0.5241  2.0970  0.9083
10302TIP3    H252398   2.869   2.800  14.452  1.7131  0.5625  2.0810
10303TIP3   OH252399   3.922   4.789  12.015  0.4122  0.0172 -0.3149
10303TIP3    H152400   3.913   4.873  12.060 -0.1833 -0.9724  1.4659
10303TIP3    H252401   3.866   4.729  12.065  0.1185 -1.2258 -2.1021
10304TIP3   OH252402   1.447   1.147  12.210 -0.4641  0.3781 -0.2739
10304TIP3    H152403   1.442   1.118  12.302  0.7919 -1.5681 -0.7966
10304TIP3    H252404   1.407   1.075  12.160 -2.7432  2.1851 -1.1501
10305TIP3   OH252405   1.124   2.724   0.873 -0.7179 -0.3838  0.7971
10305TIP3    H152406   1.151   2.718   0.965  0.7867  1.5854  0.5222
10305TIP3    H252407   1.160   2.645   0.832 -0.6133 -0.8129  1.7061
10306TIP3   OH252408   5.735   5.226  12.158  0.1815 -0.1496  0.4889
10306TIP3    H152409   5.646   5.220  12.122  0.1154  0.2957  0.5733
10306TIP3    H252410   5.780   5.150  12.122  0.6575  1.2826 -2.0505
10307TIP3   OH252411   0.940   6.552  16.114  0.1027  0.1184 -0.2173
10307TIP3    H152412   1.019   6.567  16.166  0.5428  1.1364 -1.1448
10307TIP3    H252413   0.869   6.585  16.168  0.4261  0.0462  0.2487
10308TIP3   OH252414   1.270   3.983   5.697  0.2615 -0.1436 -0.1425
10308TIP3    H152415   1.207   4.054   5.685 -0.2658 -0.5602  0.1334
10308TIP3    H252416   1.315   4.005   5.779 -1.9278 -1.6300  1.5093
10309TIP3   OH252417   5.288   6.452   2.374 -0.6160 -0.3792 -0.8902
10309TIP3    H152418   5.197   6.473   2.350 -0.5315 -0.2901 -1.1360
10309TIP3    H252419   5.332   6.537   2.377 -0.7372 -0.3396  0.0765
10310TIP3   OH252420   6.390   1.895  13.968  0.2992 -0.6710  0.0761
10310TIP3    H152421   6.480   1.866  13.984  1.6066  2.4450 -1.1951
10310TIP3    H252422   6.387   1.916  13.875 -0.8934  1.9324  0.6454
10311TIP3   OH252423   1.511   3.160  12.293  0.4667  0.0307 -0.5633
10311TIP3    H152424   1.572   3.172  12.220  0.1166 -1.7771 -1.1811
10311TIP3    H252425   1.566   3.140  12.368  0.7015 -0.5119 -0.8793
10312TIP3   OH252426   1.987   2.048   4.343  0.3213 -0.4204  0.2829
10312TIP3    H152427   1.901   2.089   4.332 -0.1262 -1.4255 -0.0186
10312TIP3    H252428   2.014   2.074   4.431 -0.4350 -0.3723  0.5047
10313TIP3   OH252429   3.813   5.464  15.859 -0.2929  0.1996  0.1168
10313TIP3    H152430   3.842   5.544  15.815  1.1983  0.1578  0.9903
10313TIP3    H252431   3.790   5.492  15.948 -3.4325  0.3137 -0.6734
10314TIP3   OH252432   0.186   2.129   5.082  0.1110 -0.0903 -0.0734
10314TIP3    H152433   0.246   2.089   5.020  0.7360  0.3127  0.2622
10314TIP3    H252434   0.219   2.102   5.168 -0.2659  0.0225  0.1077
10315TIP3   OH252435   3.908   6.303   0.211 -0.0426  0.2366  0.2705
10315TIP3    H152436   3.895   6.394   0.234  0.4906  0.0402  1.3637
10315TIP3    H252437   3.821   6.272   0.185 -0.2069  1.0626 -0.1827
10316TIP3   OH252438   1.070   0.943  12.905  0.5624  0.2855  0.5650
10316TIP3    H152439   0.998   0.914  12.961 -1.0391 -1.2228 -2.1625
10316TIP3    H252440   1.125   0.866  12.895  0.0055  0.0936 -1.1424
10317TIP3   OH252441   3.740   2.560  16.443 -0.1607  0.2186 -0.0983
10317TIP3    H152442   3.746   2.480  16.391 -0.0397  0.6999 -0.8369
10317TIP3    H252443   3.772   2.629  16.384  1.2777  0.5783  1.0756
10318TIP3   OH252444   5.042   4.245   1.446 -0.1114 -0.2705  0.1779
10318TIP3    H152445   5.014   4.321   1.395 -0.9708 -0.1907  0.7397
10318TIP3    H252446   4.969   4.229   1.506  1.4429  0.5236  2.3598
10319TIP3   OH252447   3.865   3.581  17.176 -0.1621  0.0460  0.4729
10319TIP3    H152448   3.877   3.637  17.252  1.3353  1.2940 -0.6594
10319TIP3    H252449   3.889   3.494  17.207  1.6179  0.7454  1.1172
10320TIP3   OH252450   2.207   4.630  16.926 -0.0302 -0.0167  0.3405
10320TIP3    H152451   2.183   4.612  16.835  0.8242 -2.0848  0.4864
10320TIP3    H252452   2.134   4.593  16.977  0.5079 -0.7713  0.5664
10321TIP3   OH252453   2.135   6.517  12.052 -0.2493  0.7080  0.3229
10321TIP3    H152454   2.181   6.436  12.028 -0.8708  0.1237  1.0697
10321TIP3    H252455   2.048   6.508  12.012 -0.4533  0.8338  0.7393
10322TIP3   OH252456   2.296   3.871  14.985 -0.5765 -0.5604 -0.5620
10322TIP3    H152457   2.346   3.952  14.989 -0.4801 -0.6369 -0.2439
10322TIP3    H252458   2.255   3.863  15.071 -2.2092  0.1840 -1.2426
10323TIP3   OH252459   3.229   6.117  15.759  0.3315 -0.1586 -0.6958
10323TIP3    H152460   3.154   6.057  15.756  0.5174 -0.4879  0.7753
10323TIP3    H252461   3.235   6.152  15.670 -0.3622 -1.6115 -1.3403
10324TIP3   OH252462   6.272   1.548  12.914  0.1126  0.4928 -0.1604
10324TIP3    H152463   6.367   1.547  12.902  0.1933  1.0755  0.4241
10324TIP3    H252464   6.241   1.616  12.854 -0.1613 -1.1355 -1.9151
10325TIP3   OH252465   2.284   6.001  16.371 -0.1913 -0.2270  0.0305
10325TIP3    H152466   2.345   6.003  16.445 -0.4865  1.2889  0.2464
10325TIP3    H252467   2.280   6.091  16.340 -0.8824 -0.6611 -1.1828
10326TIP3   OH252468   3.449   4.919   2.783 -0.3480  0.1700 -0.3821
10326TIP3    H152469   3.374   4.965   2.747 -1.0009  0.1589  0.9652
10326TIP3    H252470   3.427   4.826   2.772 -0.9323  0.1602  0.8238
10327TIP3   OH252471   5.625   4.932  16.529  0.3906 -0.2022  0.0134
10327TIP3    H152472   5.606   4.986  16.452  0.0085  0.1832  0.3771
10327TIP3    H252473   5.549   4.875  16.538  0.6776 -0.6246 -0.2137
10328TIP3   OH252474   0.031   3.272   5.843  0.5916  0.3768  0.0294
10328TIP3    H152475  -0.020   3.238   5.917  0.9972  1.4939  0.8317
10328TIP3    H252476  -0.016   3.242   5.766  1.0993 -2.2636  0.7041
10329TIP3   OH252477   0.230   4.343  17.037  0.1788  0.7616 -0.1576
10329TIP3    H152478   0.157   4.289  17.068 -0.2069  1.3815  0.0200
10329TIP3    H252479   0.222   4.424  17.087  1.1348  0.7376  0.0298
10330TIP3   OH252480   3.513   0.123   4.565 -1.0287 -0.1743 -0.1084
10330TIP3    H152481   3.466   0.203   4.541 -1.5174 -0.9430 -1.7923
10330TIP3    H252482   3.561   0.147   4.644  0.5666  2.4441 -1.7885
10331TIP3   OH252483   2.293   3.123  11.598 -0.0439  0.2571  0.6935
10331TIP3    H152484   2.279   3.086  11.510  1.6364  2.1019 -0.3966
10331TIP3    H252485   2.347   3.201  11.583  0.8272  0.2433  3.4439
10332TIP3   OH252486   4.343   0.658   4.326 -0.8477  0.0101 -0.5342
10332TIP3    H152487   4.367   0.697   4.410 -0.8934  2.1246 -1.4594
10332TIP3    H252488   4.280   0.590   4.348  0.4196 -0.6039  1.2770
10333TIP3   OH252489   2.765   3.009   0.510  0.0892 -0.5152  0.2424
10333TIP3    H152490   2.828   2.938   0.528  1.6478  1.0341  1.0780
10333TIP3    H252491   2.688   2.986   0.562 -0.8211 -3.4575 -2.3040
10334TIP3   OH252492   4.024   5.431   0.538  0.6049  0.2341  0.1217
10334TIP3    H152493   4.071   5.353   0.508 -2.6146 -1.6002 -0.4016
10334TIP3    H252494   4.025   5.490   0.462  0.1369 -0.7481 -0.6714
10335TIP3   OH252495   3.231   1.622  11.070  0.1652  1.5183 -0.3654
10335TIP3    H152496   3.292   1.665  11.010  1.5021 -0.6334 -0.5660
10335TIP3    H252497   3.286   1.570  11.128 -1.5101 -1.4375 -1.3340
10336TIP3   OH252498   0.234   6.760   5.293 -0.3476  0.0449 -0.2487
10336TIP3    H152499   0.289   6.809   5.354 -1.0854 -1.9892  2.1366
10336TIP3    H252500   0.162   6.819   5.272  1.5415  1.9050 -1.6444
10337TIP3   OH252501   4.782   1.156   4.403  0.8948  0.4721  0.1113
10337TIP3    H152502   4.811   1.247   4.403  0.1549  0.7208  1.5946
10337TIP3    H252503   4.687   1.161   4.391  1.0411 -0.1805 -1.3573
10338TIP3   OH252504   4.738   1.932   1.131 -0.2877  0.1084 -0.1649
10338TIP3    H152505   4.643   1.929   1.119 -0.1580  0.3310 -1.3325
10338TIP3    H252506   4.771   1.860   1.077  0.3859  1.7161 -1.9771
10339TIP3   OH252507   1.353   3.418   4.606 -0.4599 -0.1599  0.2104
10339TIP3    H152508   1.390   3.361   4.674 -1.6266 -1.9484 -0.6050
10339TIP3    H252509   1.337   3.359   4.532 -2.2666  1.1118 -0.4468
10340TIP3   OH252510   4.659   2.916  17.152  0.2146  0.8655 -0.1017
10340TIP3    H152511   4.568   2.887  17.144  0.1253  0.8363  0.9157
10340TIP3    H252512   4.668   2.940  17.244  1.4302  0.2312 -0.0509
10341TIP3   OH252513   0.220   2.716  14.079  0.1932 -0.6421 -0.0900
10341TIP3    H152514   0.265   2.639  14.044 -0.7194 -1.1877 -0.0646
10341TIP3    H252515   0.235   2.710  14.174  1.4032  0.0365 -0.2251
10342TIP3   OH252516   2.919   1.485  14.983  0.2645  0.5985  0.3076
10342TIP3    H152517   3.012   1.467  14.993  0.3464  2.0107  2.2718
10342TIP3    H252518   2.907   1.573  15.019 -1.8371  0.4136  0.1180
10343TIP3   OH252519   1.907   1.134  15.843 -0.0872 -0.2027 -0.0796
10343TIP3    H152520   1.959   1.140  15.763  0.3780 -2.3516  0.0160
10343TIP3    H252521   1.963   1.172  15.911 -0.5027  1.6661 -0.7693
10344TIP3   OH252522   2.034   0.386  15.445 -0.9570 -0.2996 -0.3149
10344TIP3    H152523   2.119   0.396  15.488 -1.3108 -0.1743  0.3746
10344TIP3    H252524   1.973   0.373  15.518 -1.8272  1.6119 -0.6854
10345TIP3   OH252525   5.954   5.283  16.558 -0.0498 -0.6193 -0.9474
10345TIP3    H152526   6.046   5.308  16.546 -0.2299  0.1301 -0.7776
10345TIP3    H252527   5.950   5.254  16.649 -0.5110  1.7125 -0.1963
10346TIP3   OH252528   1.195   1.019   2.485  0.0203 -0.2635  0.2056
10346TIP3    H152529   1.254   1.069   2.540 -0.3059  0.2492  0.0905
10346TIP3    H252530   1.195   0.931   2.523  0.1076 -0.0166  0.7749
10347TIP3   OH252531   2.592   4.863   3.992  0.5124 -0.2861  0.2990
10347TIP3    H152532   2.572   4.770   3.984 -0.0488 -0.1877  0.5145
10347TIP3    H252533   2.623   4.889   3.906  1.5239 -0.8706  0.4820
10348TIP3   OH252534   2.970   2.149  17.281 -0.1336 -0.6204 -0.5109
10348TIP3    H152535   2.902   2.197  17.235  0.5052 -1.2509 -2.1631
10348TIP3    H252536   3.051   2.196  17.262  0.2327 -1.2649 -0.5908
10349TIP3   OH252537   5.745   1.788   6.409 -0.3755  0.2570  0.6108
10349TIP3    H152538   5.693   1.807   6.330  0.4514  0.5655  0.1419
10349TIP3    H252539   5.726   1.696   6.428  0.2776 -0.1233 -0.5797
10350TIP3   OH252540   0.616   5.664  14.649 -0.3765 -0.1444 -0.2674
10350TIP3    H152541   0.561   5.659  14.571  0.6989  0.4578 -1.0668
10350TIP3    H252542   0.589   5.588  14.702 -2.3307  0.4275 -0.4033
10351TIP3   OH252543   0.846   4.247   0.431  0.2332  0.3350 -0.2715
10351TIP3    H152544   0.766   4.291   0.460  1.6204  1.3148  2.2219
10351TIP3    H252545   0.821   4.155   0.421 -1.2776  0.6908  0.1767
10352TIP3   OH252546   0.898   2.439   4.634  0.2058 -0.4486 -0.5496
10352TIP3    H152547   0.845   2.442   4.555 -0.2515  0.7390 -0.2135
10352TIP3    H252548   0.979   2.486   4.610 -0.6077  1.3852  0.1487
10353TIP3   OH252549   0.361   5.286  15.647 -0.4291  0.4254 -0.2085
10353TIP3    H152550   0.414   5.280  15.726  0.5294  1.4195 -0.7667
10353TIP3    H252551   0.373   5.375  15.616 -1.9174  0.4763 -0.7124
10354TIP3   OH252552   6.368   5.742  14.726  0.0083 -0.6208 -1.0193
10354TIP3    H152553   6.416   5.825  14.721 -0.1700 -0.2169  2.4241
10354TIP3    H252554   6.434   5.675  14.711  0.5452  0.0823 -1.8297
10355TIP3   OH252555   2.968   3.462   1.920 -0.3625  0.2296  0.0848
10355TIP3    H152556   3.046   3.438   1.971 -0.0738 -0.1192 -0.5137
10355TIP3    H252557   2.962   3.395   1.852 -1.4542 -0.0084  0.4010
10356TIP3   OH252558   1.050   4.726   2.753 -0.3772 -0.0986 -0.2841
10356TIP3    H152559   1.072   4.634   2.736  2.1260  0.5774 -1.0150
10356TIP3    H252560   1.101   4.774   2.688 -0.0587  1.9049  1.3985
10357TIP3   OH252561   4.399   3.601   3.654 -0.1486 -0.0386  0.6728
10357TIP3    H152562   4.342   3.525   3.662 -1.4594  0.6400 -1.5604
10357TIP3    H252563   4.342   3.676   3.668  1.0333  0.5642  2.3761
10358TIP3   OH252564   5.747   1.233  17.085 -0.2144  0.3893 -0.1943
10358TIP3    H152565   5.813   1.189  17.031  1.3319  1.5356  0.7422
10358TIP3    H252566   5.702   1.292  17.024  1.1215  1.2341 -0.3980
10359TIP3   OH252567   1.186   5.952   1.763 -0.3015  0.4388  0.2890
10359TIP3    H152568   1.129   5.943   1.839 -0.4725  1.2732  0.2649
10359TIP3    H252569   1.267   5.990   1.798  0.5868 -1.5373  0.4713
10360TIP3   OH252570   1.050   0.855  14.158  0.0603 -0.9011  0.1788
10360TIP3    H152571   1.003   0.782  14.117  0.2114 -1.0443  0.2567
10360TIP3    H252572   0.984   0.900  14.210 -0.1375 -0.7040 -0.2408
10361TIP3   OH252573   5.974   2.455  12.024 -0.4737  0.5904 -0.1765
10361TIP3    H152574   5.956   2.450  12.118 -0.1387  1.0063 -0.0907
10361TIP3    H252575   6.060   2.414  12.013 -0.2889  0.9952 -0.2344
10362TIP3   OH252576   5.869   4.400  15.975  0.7109  0.1581  0.2593
10362TIP3    H152577   5.946   4.361  15.933  0.7380  0.3652  0.1178
10362TIP3    H252578   5.879   4.494  15.961 -0.5046  0.0752 -1.3713
10363TIP3   OH252579   2.609   6.035  14.066  0.3589 -0.0647 -0.0557
10363TIP3    H152580   2.537   6.019  14.006  0.3713 -0.2504 -0.0226
10363TIP3    H252581   2.666   6.096  14.020 -1.6129  2.9283  1.3535
10364TIP3   OH252582   4.838   2.343   3.875  0.8703  0.1592 -0.0892
10364TIP3    H152583   4.853   2.297   3.792  1.0850  0.9171 -0.4788
10364TIP3    H252584   4.891   2.295   3.939 -0.0767 -1.0283 -0.1868
10365TIP3   OH252585   5.590   1.113  12.790  0.3470 -0.5434  0.3160
10365TIP3    H152586   5.641   1.079  12.717 -0.3921  0.4071 -0.6593
10365TIP3    H252587   5.499   1.102  12.763  0.0768  0.2683  0.8804
10366TIP3   OH252588   1.500   2.345   0.566 -0.1498 -0.4316 -0.1775
10366TIP3    H152589   1.460   2.431   0.553  2.8809  0.9425 -0.8312
10366TIP3    H252590   1.556   2.333   0.489 -0.2275 -2.8240  0.1041
10367TIP3   OH252591   0.785   5.725  16.448  0.4232 -0.2098 -0.8518
10367TIP3    H152592   0.814   5.793  16.387 -2.1982  2.4722  0.7040
10367TIP3    H252593   0.816   5.755  16.533  0.5508 -1.7751 -0.3407
10368TIP3   OH252594   6.640   2.700  11.022 -0.3286 -0.1411 -0.0714
10368TIP3    H152595   6.643   2.724  11.115  1.1165 -0.1282 -0.1182
10368TIP3    H252596   6.725   2.660  11.004 -0.8235 -0.7122 -1.2490
10369TIP3   OH252597   3.701   0.872  14.543 -0.0682 -0.1407 -0.1620
10369TIP3    H152598   3.707   0.790  14.495 -0.2130 -0.3156  0.1182
10369TIP3    H252599   3.730   0.850  14.632 -0.2854  0.0681 -0.0375
10370TIP3   OH252600   0.399   2.048   3.857  0.3790  0.1752  0.1414
10370TIP3    H152601   0.449   1.970   3.834  0.1618 -0.0265  0.3443
10370TIP3    H252602   0.372   2.085   3.773  0.5456  0.0718  0.0434
10371TIP3   OH252603   0.196   1.077  16.100  0.1982 -0.2043 -0.4265
10371TIP3    H152604   0.188   0.981  16.100 -0.5537 -0.1540 -1.5080
10371TIP3    H252605   0.228   1.097  16.012  0.0527  0.5610 -0.3021
10372TIP3   OH252606   6.513   5.205   5.408  0.1390 -0.2637  0.6220
10372TIP3    H152607   6.542   5.236   5.322 -1.5364  0.8190  0.4171
10372TIP3    H252608   6.576   5.243   5.470  1.1626 -0.7863 -0.0871
10373TIP3   OH252609   4.681   1.904   2.460  1.0748  0.2395  0.4049
10373TIP3    H152610   4.587   1.886   2.458  0.8661  1.2733  0.5402
10373TIP3    H252611   4.721   1.821   2.486  0.2066 -0.2113  0.3346
10374TIP3   OH252612   5.131   2.103   1.179  0.5518 -0.6995  0.3582
10374TIP3    H152613   5.197   2.103   1.109  0.5192 -2.4102  0.2951
10374TIP3    H252614   5.133   2.013   1.213 -0.2906 -0.1988  1.7377
10375TIP3   OH252615   2.913   3.844  12.133 -0.0923  0.2215 -0.1101
10375TIP3    H152616   3.005   3.817  12.137 -0.1819  0.1753  2.0352
10375TIP3    H252617   2.864   3.762  12.124  0.0088  0.1609 -0.1049
10376TIP3   OH252618   2.149   5.583  16.771 -0.5340  0.6272 -0.2276
10376TIP3    H152619   2.103   5.606  16.852  0.6264  0.8777  0.3752
10376TIP3    H252620   2.176   5.668  16.735 -0.6780  0.4901 -0.6630
10377TIP3   OH252621   5.373   3.351   4.676 -0.1342  0.0455  0.3214
10377TIP3    H152622   5.374   3.339   4.581  0.2211 -0.0247  0.3342
10377TIP3    H252623   5.303   3.414   4.691  1.5213  2.0467 -0.2235
10378TIP3   OH252624   0.025   6.654   4.260 -0.0588  0.6751 -0.3862
10378TIP3    H152625   0.107   6.691   4.292 -0.2533  0.9359 -0.1881
10378TIP3    H252626  -0.033   6.729   4.249  0.1173  0.6230 -1.7078
10379TIP3   OH252627   1.952   4.110  13.213 -0.0324 -0.1821  0.2436
10379TIP3    H152628   1.916   4.175  13.153  0.6719 -1.3934 -1.5145
10379TIP3    H252629   2.041   4.141  13.231  0.2253 -0.5486 -0.4122
10380TIP3   OH252630   3.647   3.654   5.497  0.9023  0.1661  0.0456
10380TIP3    H152631   3.683   3.742   5.510 -0.4651  0.8096 -0.5169
10380TIP3    H252632   3.656   3.638   5.403  1.1680 -0.3179  0.1481
10381TIP3   OH252633   1.556   0.145   5.580 -0.0539  0.2321  0.0731
10381TIP3    H152634   1.480   0.194   5.612  0.1777  0.9344 -0.4221
10381TIP3    H252635   1.561   0.168   5.487  0.1192 -0.6615 -0.1407
10382TIP3   OH252636   5.876   6.188   0.006 -0.1497  0.1727 -0.2218
10382TIP3    H152637   5.781   6.198   0.012 -0.1455  1.4920 -2.0465
10382TIP3    H252638   5.892   6.156  -0.082  1.2107  1.5672 -0.5068
10383TIP3   OH252639   2.279   4.703  14.690  0.2114  0.6465  0.5926
10383TIP3    H152640   2.221   4.681  14.763 -0.3486  0.6251  0.1446
10383TIP3    H252641   2.366   4.678  14.720  0.3046  2.7904  2.1546
10384TIP3   OH252642   0.396   4.180  17.236  0.0872 -0.0125  0.6997
10384TIP3    H152643   0.434   4.092  17.229 -0.3381 -0.2251  0.9677
10384TIP3    H252644   0.341   4.188  17.158  2.3662  1.1496 -0.8241
10385TIP3   OH252645   4.850   2.796  16.864 -0.0084  0.5882 -0.2096
10385TIP3    H152646   4.887   2.729  16.805  3.2272  1.8967  0.2131
10385TIP3    H252647   4.912   2.800  16.937 -2.8205  0.5382  2.2676
10386TIP3   OH252648   3.737   6.463   1.545  0.2862  0.2488  0.4283
10386TIP3    H152649   3.740   6.543   1.491 -1.0145  0.0542  0.0626
10386TIP3    H252650   3.705   6.494   1.630  0.0099  0.1641  0.3566
10387TIP3   OH252651   6.727   4.543   2.290  0.0497 -0.6298 -0.6626
10387TIP3    H152652   6.809   4.592   2.295  0.3615 -1.1163 -0.9466
10387TIP3    H252653   6.675   4.574   2.364  0.3681 -0.0911 -0.6686
10388TIP3   OH252654   3.616   2.133  12.764 -0.3461  0.0011 -0.9314
10388TIP3    H152655   3.619   2.095  12.676  0.9161  0.0959 -0.9347
10388TIP3    H252656   3.682   2.084  12.814 -1.1737 -0.1723  0.0242
10389TIP3   OH252657   2.891   0.776   5.883 -0.0821 -0.0234 -0.5666
10389TIP3    H152658   2.866   0.864   5.911 -0.6506  0.2521 -1.9024
10389TIP3    H252659   2.944   0.742   5.955  1.0949  1.8290 -0.5278
10390TIP3   OH252660   4.606   6.402  15.728  0.1566 -0.4335 -0.8780
10390TIP3    H152661   4.633   6.353  15.806  0.7137  1.8558  0.4279
10390TIP3    H252662   4.556   6.339  15.676 -0.9475 -1.8063  1.7293
10391TIP3   OH252663   0.919   4.893  15.109 -0.1411 -0.0935 -0.2840
10391TIP3    H152664   0.900   4.808  15.149 -3.1823  1.1517  1.1011
10391TIP3    H252665   0.856   4.900  15.037 -0.0674  1.0790 -0.2362
10392TIP3   OH252666   0.303   1.437   4.329 -0.8463  0.1230  0.2159
10392TIP3    H152667   0.327   1.355   4.287  1.4415  0.6275  0.4659
10392TIP3    H252668   0.209   1.445   4.314 -1.1300 -2.6018  0.3456
10393TIP3   OH252669   0.387   3.909   4.802 -0.3453  0.1235 -0.6358
10393TIP3    H152670   0.425   3.951   4.725  1.0571 -0.1428 -0.1006
10393TIP3    H252671   0.377   3.980   4.865  0.3300 -0.0197 -0.3705
10394TIP3   OH252672   2.707   3.971   0.324 -1.0410 -0.0668 -0.2192
10394TIP3    H152673   2.700   3.877   0.340 -0.3703 -0.1059 -0.1255
10394TIP3    H252674   2.801   3.986   0.310 -1.5161  0.0594 -3.5577
10395TIP3   OH252675   0.622   0.724  16.424 -0.3402  0.4130 -0.3197
10395TIP3    H152676   0.639   0.649  16.366 -0.9996 -0.0920  0.1298
10395TIP3    H252677   0.709   0.754  16.450 -0.0755 -0.6883  0.1160
10396TIP3   OH252678   6.271   0.321  13.832 -0.0116 -0.1862  0.9748
10396TIP3    H152679   6.269   0.404  13.785 -1.9250  0.0937  1.5099
10396TIP3    H252680   6.211   0.333  13.905  0.1138 -1.8547  1.3786
10397TIP3   OH252681   0.618   3.179  15.172  0.1751  0.3903  0.6357
10397TIP3    H152682   0.591   3.169  15.264  0.7340 -1.3976  0.6310
10397TIP3    H252683   0.536   3.179  15.123 -0.0600 -0.3302  1.0108
10398TIP3   OH252684   1.125   5.769   3.086 -0.0617 -0.1295 -0.6552
10398TIP3    H152685   1.075   5.788   3.007 -0.0002  1.2583 -0.3671
10398TIP3    H252686   1.111   5.845   3.143  0.8529 -0.5718  0.1814
10399TIP3   OH252687   5.105   0.762   0.191  0.5044 -0.4486 -0.0537
10399TIP3    H152688   5.075   0.853   0.198  0.4268 -0.2552 -2.5378
10399TIP3    H252689   5.165   0.752   0.265 -0.9519  1.0193  1.3774
10400TIP3   OH252690   1.676   1.615  13.919  0.1087 -0.2065  0.4289
10400TIP3    H152691   1.652   1.529  13.884  1.1691 -0.8385  1.2194
10400TIP3    H252692   1.769   1.624  13.898  0.2642  0.2855  1.3173
10401TIP3   OH252693   2.302   5.981  13.918 -0.3353 -0.3639 -0.4030
10401TIP3    H152694   2.271   5.934  13.840 -0.3777  0.9884 -1.2044
10401TIP3    H252695   2.312   6.071  13.890 -0.5769  0.1938  1.2315
10402TIP3   OH252696   3.754   3.059  16.644 -0.1621  0.0283 -0.2852
10402TIP3    H152697   3.827   3.037  16.586  1.2626  0.4033  1.3201
10402TIP3    H252698   3.690   3.101  16.587  1.0852  0.1247 -1.6527
10403TIP3   OH252699   2.465   2.676   3.044 -0.3570 -0.2472  0.0460
10403TIP3    H152700   2.379   2.716   3.060  0.4495  0.5982  2.5662
10403TIP3    H252701   2.457   2.589   3.083  0.4761  0.4919  1.9149
10404TIP3   OH252702   0.115   2.686   6.480 -0.2479 -0.1186 -0.1848
10404TIP3    H152703   0.166   2.735   6.545  1.2573  0.4891 -1.8151
10404TIP3    H252704   0.048   2.748   6.451  1.7012  1.0356 -2.3020
10405TIP3   OH252705   0.196   0.241   2.977 -0.1466  0.1655 -0.2913
10405TIP3    H152706   0.216   0.280   2.892  0.0686  0.0185 -0.3063
10405TIP3    H252707   0.117   0.288   3.006  0.0536  0.5453 -0.3530
10406TIP3   OH252708   2.332   0.981   1.546 -0.4402 -0.7424  0.7056
10406TIP3    H152709   2.268   1.042   1.507 -0.3622 -0.9257  0.2943
10406TIP3    H252710   2.403   1.038   1.576  0.1809 -0.7354 -0.7457
10407TIP3   OH252711   1.253   4.539  14.259 -0.6090 -0.1198  0.1354
10407TIP3    H152712   1.167   4.532  14.300 -1.4513  1.5355 -1.2492
10407TIP3    H252713   1.315   4.529  14.331 -2.0142  1.3024  1.6005
10408TIP3   OH252714   4.732   1.634   0.679 -0.1327 -0.0674 -0.2068
10408TIP3    H152715   4.718   1.680   0.596  0.1558  0.7440  0.1993
10408TIP3    H252716   4.683   1.552   0.669 -0.8343  0.4285 -0.8261
10409TIP3   OH252717   1.221   4.633   4.704  0.2645  0.0954  0.4793
10409TIP3    H152718   1.159   4.609   4.636  0.4153  2.4449 -0.5448
10409TIP3    H252719   1.171   4.628   4.785 -0.9505  0.8616 -0.2080
10410TIP3   OH252720   2.453   3.062   1.420  0.3430 -0.3889 -0.6972
10410TIP3    H152721   2.366   3.099   1.434  0.5380 -0.4605  0.8415
10410TIP3    H252722   2.512   3.137   1.424  0.5062 -0.5494 -0.0875
10411TIP3   OH252723   6.117   1.672  13.650  0.7528 -0.3111  0.3369
10411TIP3    H152724   6.031   1.654  13.687 -0.2374  0.3069 -1.5979
10411TIP3    H252725   6.170   1.596  13.674 -0.5805 -1.1030  0.8147
10412TIP3   OH252726   3.463   5.112   5.601 -0.4486 -0.0513  0.2464
10412TIP3    H152727   3.515   5.112   5.681 -1.4904 -0.6474  0.9359
10412TIP3    H252728   3.467   5.021   5.570 -0.5128  0.0539 -0.0763
10413TIP3   OH252729   6.084   4.916   0.814 -0.1100 -0.3209 -0.1528
10413TIP3    H152730   6.146   4.885   0.747  1.3829  3.0238 -0.4096
10413TIP3    H252731   5.999   4.915   0.769  0.3007 -1.5516 -0.9363
10414TIP3   OH252732   1.035   1.225   1.472 -0.0614 -0.7600  0.3796
10414TIP3    H152733   1.045   1.242   1.566 -1.3114 -0.0789  0.3926
10414TIP3    H252734   1.026   1.130   1.465  1.6506 -0.9673  0.7911
10415TIP3   OH252735   5.414   2.125  13.074  0.0304 -0.4812 -0.3052
10415TIP3    H152736   5.346   2.191  13.087  0.9565  0.8651 -2.0798
10415TIP3    H252737   5.390   2.054  13.133 -1.8824  0.7598  0.4559
10416TIP3   OH252738   4.826   4.232  14.336  0.6122  0.0281 -0.6975
10416TIP3    H152739   4.898   4.186  14.294  0.5510  1.4670 -2.4188
10416TIP3    H252740   4.855   4.323  14.341 -0.7914  0.4912 -0.7738
10417TIP3   OH252741   6.784   6.413   3.254  0.0033  0.8573  0.0305
10417TIP3    H152742   6.859   6.472   3.254  0.8070 -0.1373 -0.6882
10417TIP3    H252743   6.770   6.391   3.162  0.7780 -1.3552  0.4127
10418TIP3   OH252744   3.562   6.216   1.033  0.0143  0.0548  0.2936
10418TIP3    H152745   3.483   6.269   1.041  0.8563  1.1660  1.2682
10418TIP3    H252746   3.608   6.228   1.116  0.3648 -1.9723  0.4262
10419TIP3   OH252747   6.510   3.683   5.943  0.0448 -0.3483  0.3532
10419TIP3    H152748   6.476   3.593   5.949 -1.0164  0.0174 -0.0062
10419TIP3    H252749   6.581   3.686   6.007  0.4544 -1.6090 -0.0290
10420TIP3   OH252750   5.509   1.996  12.807  0.8189 -0.6222  0.0494
10420TIP3    H152751   5.562   2.076  12.813 -0.7649  0.5078 -0.5938
10420TIP3    H252752   5.512   1.959  12.895  0.4712  0.8814  0.7170
10421TIP3   OH252753   3.130   3.724   1.081  0.6151 -0.9874 -0.3398
10421TIP3    H152754   3.057   3.779   1.109  0.1173 -1.8426  0.0883
10421TIP3    H252755   3.178   3.777   1.018 -1.9940 -1.4015 -2.7678
10422TIP3   OH252756   1.765   3.590  15.607  0.1311 -0.5259 -0.1872
10422TIP3    H152757   1.793   3.670  15.563  0.3152 -0.4959 -0.0132
10422TIP3    H252758   1.837   3.528  15.591 -0.6508 -1.1023 -1.5609
10423TIP3   OH252759   5.794   0.320  14.083 -0.1969 -0.2810  0.0578
10423TIP3    H152760   5.818   0.243  14.133 -1.2473  1.3899  3.2681
10423TIP3    H252761   5.699   0.312  14.070 -0.5643  1.1667  1.7069
10424TIP3   OH252762   0.528   4.379  11.385  0.2088 -0.5848 -0.2535
10424TIP3    H152763   0.528   4.302  11.329 -1.5062  0.0070 -1.1139
10424TIP3    H252764   0.497   4.450  11.328 -0.2517  0.2969  1.0689
10425TIP3   OH252765   3.685   3.674  16.009  0.5547 -0.1229 -0.0516
10425TIP3    H152766   3.690   3.595  16.063  1.5315  0.4844  0.7679
10425TIP3    H252767   3.684   3.746  16.072  1.4646  0.5825 -0.8207
10426TIP3   OH252768   6.552   4.091   5.138  0.1014 -0.3414 -0.4024
10426TIP3    H152769   6.511   4.116   5.221  1.4060  1.6181 -0.3148
10426TIP3    H252770   6.481   4.095   5.074 -0.2652  1.0961  0.0899
10427TIP3   OH252771   4.626   6.419   0.047 -0.0833  0.0864 -0.3306
10427TIP3    H152772   4.628   6.492  -0.016 -0.0614  1.2366  0.9687
10427TIP3    H252773   4.543   6.374   0.029 -0.0205  0.3221 -1.2632
10428TIP3   OH252774   4.241   4.441  13.425 -0.3537 -0.1462 -0.8714
10428TIP3    H152775   4.260   4.427  13.332 -0.1473  1.8732 -1.1560
10428TIP3    H252776   4.209   4.531  13.429 -2.7621 -1.0442  0.6745
10429TIP3   OH252777   4.206   1.826  12.926  0.1203 -0.3388  0.8007
10429TIP3    H152778   4.213   1.839  12.832 -0.7680  0.4004  0.8301
10429TIP3    H252779   4.251   1.901  12.964  1.6774 -1.3322  0.9818
10430TIP3   OH252780   2.259   0.122   5.999  0.5613 -0.1299  0.2226
10430TIP3    H152781   2.283   0.204   6.042  0.1001 -1.3630  2.9242
10430TIP3    H252782   2.331   0.104   5.939  1.1563  1.7007  0.3657
10431TIP3   OH252783   0.523   1.614  15.005  0.6133  0.1848 -0.0571
10431TIP3    H152784   0.475   1.674  14.947 -1.5115 -0.3397  1.1101
10431TIP3    H252785   0.565   1.552  14.946 -0.4789  0.4193 -1.1076
10432TIP3   OH252786   3.874   1.916  16.476 -0.2285 -0.3542  0.1348
10432TIP3    H152787   3.946   1.977  16.460  0.0600 -0.6468  0.3153
10432TIP3    H252788   3.796   1.971  16.472 -0.1593 -0.3552 -1.9843
10433TIP3   OH252789   2.673   5.105  14.367 -0.1458 -0.0687 -0.1724
10433TIP3    H152790   2.723   5.125  14.287  1.2725 -1.9780  0.1948
10433TIP3    H252791   2.736   5.118  14.438 -0.3093 -1.9657  0.3458
10434TIP3   OH252792   1.507   1.005   0.137  0.1957  0.4527  0.3896
10434TIP3    H152793   1.486   1.028   0.047 -0.5616 -0.6235  0.2808
10434TIP3    H252794   1.425   1.018   0.185  0.1053 -0.6718  0.5711
10435TIP3   OH252795   4.959   3.363  13.230  0.2561 -0.1223 -0.0584
10435TIP3    H152796   4.996   3.359  13.318 -1.6703 -0.8196  0.7453
10435TIP3    H252797   5.012   3.429  13.184 -0.0379  1.7817  2.2461
10436TIP3   OH252798   2.731   0.244  13.945  0.2181  0.2082 -0.0083
10436TIP3    H152799   2.801   0.305  13.922 -0.1058  0.8685  0.7189
10436TIP3    H252800   2.775   0.159  13.951  0.7128  0.3983 -0.8123
10437TIP3   OH252801   4.780   5.098   5.765 -0.6371  0.1552 -0.3546
10437TIP3    H152802   4.854   5.046   5.796  0.3443  0.1689 -2.5663
10437TIP3    H252803   4.735   5.126   5.845  2.5476  1.3282  1.1318
10438TIP3   OH252804   0.755   2.836   3.217  0.1990 -0.1480 -0.6351
10438TIP3    H152805   0.709   2.920   3.221  0.3871 -0.0733 -0.0058
10438TIP3    H252806   0.721   2.794   3.138 -0.1985  0.3432 -0.7291
10439TIP3   OH252807   1.236   1.918   1.522 -0.0619  0.2618  0.1474
10439TIP3    H152808   1.206   1.969   1.446 -0.8060  0.8732  0.8301
10439TIP3    H252809   1.321   1.955   1.544  0.5317 -0.4811 -0.9014
10440TIP3   OH252810   3.335   3.566  13.324 -0.1288  0.1169  0.2126
10440TIP3    H152811   3.329   3.627  13.251 -0.8578 -2.3555 -1.8548
10440TIP3    H252812   3.245   3.537  13.339  0.2269 -0.5843  1.0514
10441TIP3   OH252813   5.964   0.883  11.185  0.7148  0.2768  0.5113
10441TIP3    H152814   5.996   0.917  11.102 -1.4604  1.1309 -0.0052
10441TIP3    H252815   5.892   0.824  11.161  0.2111  0.3533  1.7724
10442TIP3   OH252816   6.560   3.964   0.713  0.0428 -0.0641  0.3252
10442TIP3    H152817   6.617   3.992   0.642 -0.1075 -0.1118  0.1862
10442TIP3    H252818   6.475   3.951   0.672  0.0808 -0.6088  0.4101
10443TIP3   OH252819   1.359   3.411   1.118 -0.5347  0.4318 -0.0206
10443TIP3    H152820   1.342   3.468   1.043  0.4524  0.8170  0.0439
10443TIP3    H252821   1.445   3.438   1.150 -0.4244 -0.5407  0.5202
10444TIP3   OH252822   1.731   4.772   5.575  0.1422  0.2192  0.8249
10444TIP3    H152823   1.646   4.729   5.580  1.0911 -2.0513 -1.5591
10444TIP3    H252824   1.786   4.725   5.637  0.1866  0.4496  0.9627
10445TIP3   OH252825   6.607   2.492   2.526  0.2889 -0.2742  0.1748
10445TIP3    H152826   6.589   2.586   2.525 -0.3030 -0.3809 -2.2098
10445TIP3    H252827   6.521   2.452   2.512  0.2828 -1.2516  2.7553
10446TIP3   OH252828   2.856   5.087   2.576  0.2879  0.3902 -0.1226
10446TIP3    H152829   2.839   5.007   2.627  0.1112  0.1688 -0.5242
10446TIP3    H252830   2.808   5.155   2.623  0.5274  0.2828  0.2841
10447TIP3   OH252831   6.409   4.253  10.758  0.2363  0.3207 -0.0601
10447TIP3    H152832   6.344   4.207  10.704  0.7337 -0.3172 -0.1244
10447TIP3    H252833   6.485   4.195  10.757 -0.2251 -0.4007  2.4619
10448TIP3   OH252834   2.433   5.735   1.079 -0.3984 -0.4975 -0.1053
10448TIP3    H152835   2.427   5.681   1.000 -1.6613 -1.2859  0.5206
10448TIP3    H252836   2.411   5.823   1.049  0.4812 -0.5302 -0.8905
10449TIP3   OH252837   0.408   3.793  14.589 -0.4828 -0.4873 -0.5299
10449TIP3    H152838   0.401   3.732  14.515 -2.1141 -0.8961 -0.0675
10449TIP3    H252839   0.469   3.860  14.559  0.0159 -1.4355 -1.6939
10450TIP3   OH252840   4.002   3.460  15.327 -0.4084 -0.1853 -0.2421
10450TIP3    H152841   3.969   3.421  15.409  0.7848  0.8365  0.7489
10450TIP3    H252842   4.096   3.442  15.328 -0.0851  1.3977 -0.4977
10451TIP3   OH252843   3.287   2.425  16.801  0.7453  0.2853 -0.1952
10451TIP3    H152844   3.318   2.414  16.711  3.7422  1.9890  0.5631
10451TIP3    H252845   3.203   2.469  16.792 -0.1924 -1.7788 -2.2127
10452TIP3   OH252846   1.541   2.201   2.016  0.3839 -0.6585 -0.0727
10452TIP3    H152847   1.483   2.131   2.046  0.3887 -0.2824  0.8203
10452TIP3    H252848   1.575   2.240   2.096  1.6205 -0.6577 -0.5884
10453TIP3   OH252849   1.952   0.851  13.223 -0.7384 -0.1019  0.0877
10453TIP3    H152850   1.870   0.900  13.225 -0.9173 -0.4453  2.6979
10453TIP3    H252851   2.017   0.910  13.261 -0.2258 -0.5994 -0.0065
10454TIP3   OH252852   2.993   4.584   1.934 -0.0959  0.6112  0.3881
10454TIP3    H152853   2.936   4.622   1.867 -0.5458 -0.2297  0.2803
10454TIP3    H252854   2.952   4.608   2.017 -0.8591 -0.3333  0.3045
10455TIP3   OH252855   3.114   6.047  10.803  0.3059 -0.8291  0.2800
10455TIP3    H152856   3.155   6.102  10.871 -2.6157  0.8225  0.8001
10455TIP3    H252857   3.144   6.086  10.721 -0.4007  0.5446  0.6481
10456TIP3   OH252858   0.762   5.984   2.350  0.0012 -0.1873  0.1807
10456TIP3    H152859   0.748   5.935   2.269 -2.5031 -1.5802  1.3851
10456TIP3    H252860   0.719   6.068   2.335 -0.7105 -0.5522  0.1731
10457TIP3   OH252861   1.019   5.453  13.974 -0.0881 -0.0128  0.0272
10457TIP3    H152862   0.933   5.475  14.011  0.1988  1.3327 -0.0851
10457TIP3    H252863   1.081   5.503  14.026  0.4389  0.7885 -1.3362
10458TIP3   OH252864   2.729   1.599  11.288  0.1199 -0.0653 -0.2377
10458TIP3    H152865   2.652   1.548  11.314  0.3802 -0.5480 -0.4014
10458TIP3    H252866   2.727   1.598  11.192 -0.4585  1.1280 -0.2439
10459TIP3   OH252867   0.178   5.850  17.178 -0.3358  0.4053 -0.5491
10459TIP3    H152868   0.190   5.881  17.268  2.2528 -0.5287 -0.5094
10459TIP3    H252869   0.265   5.818  17.153 -1.5519 -1.3546 -2.6204
10460TIP3   OH252870   4.026   1.102   5.006 -0.4057 -0.6181 -0.2937
10460TIP3    H152871   4.106   1.154   4.996 -1.2770  0.4011 -2.1035
10460TIP3    H252872   4.017   1.090   5.101  2.5582 -1.8071 -0.1029
10461TIP3   OH252873   4.625   3.126   1.231 -0.4305  0.5028  0.2297
10461TIP3    H152874   4.605   3.113   1.139  0.7669  1.3986 -0.1687
10461TIP3    H252875   4.568   3.198   1.258 -0.4887  0.5148  0.0745
10462TIP3   OH252876   6.641   2.699  13.084  0.7870 -0.2808 -0.1655
10462TIP3    H152877   6.636   2.606  13.063  1.3603 -0.2480 -0.4572
10462TIP3    H252878   6.595   2.708  13.167 -0.3494 -0.6278 -0.7466
10463TIP3   OH252879   0.681   2.525  17.116 -0.5187  0.3009  0.0463
10463TIP3    H152880   0.773   2.537  17.094 -0.5626  0.6511  0.0494
10463TIP3    H252881   0.633   2.575  17.050 -0.6296  1.9085  1.3100
10464TIP3   OH252882   5.338   5.601   2.976  0.1765  0.1452  0.4282
10464TIP3    H152883   5.316   5.652   2.898  1.6391 -0.3942 -0.3627
10464TIP3    H252884   5.363   5.515   2.942  1.6723  0.1703  1.4056
10465TIP3   OH252885   0.854   5.780  16.942  0.2302 -0.1545 -0.5983
10465TIP3    H152886   0.771   5.733  16.931  0.8577 -1.2889 -0.5776
10465TIP3    H252887   0.913   5.739  16.878  0.2779  1.8466 -1.8763
10466TIP3   OH252888   0.211   3.569  14.181  0.3439  0.3398 -0.3820
10466TIP3    H152889   0.190   3.525  14.099  0.5360  1.0669 -0.8285
10466TIP3    H252890   0.142   3.543  14.241  0.7538 -1.0107 -0.4711
10467TIP3   OH252891   2.928   3.452   4.829  0.1432 -0.5301 -0.0917
10467TIP3    H152892   2.905   3.361   4.849  1.8472 -0.8102  0.7176
10467TIP3    H252893   2.970   3.484   4.909  0.3811  0.6828 -0.6927
10468TIP3   OH252894   1.911   4.958  15.172  0.0991 -0.4186  0.0259
10468TIP3    H152895   1.956   4.939  15.090  0.3199 -1.0172  0.2843
10468TIP3    H252896   1.827   4.994  15.145  0.5603  0.3061 -0.4617
10469TIP3   OH252897   0.577   3.918   5.289  0.5473  0.3091 -0.5043
10469TIP3    H152898   0.623   3.867   5.357 -0.8590 -0.6469 -0.2440
10469TIP3    H252899   0.490   3.934   5.326  0.3085  1.1689 -1.4257
10470TIP3   OH252900   1.094   0.423  15.364  0.2797  0.1187 -0.0596
10470TIP3    H152901   1.023   0.438  15.427 -0.6675  2.0425 -1.5277
10470TIP3    H252902   1.118   0.332  15.376 -1.9942 -0.3773  0.9552
10471TIP3   OH252903   0.458   4.037   1.773  0.2355 -1.0283  0.0147
10471TIP3    H152904   0.526   3.977   1.743  1.4764  0.3802 -0.0128
10471TIP3    H252905   0.424   4.076   1.693  2.9655  2.0976  0.2768
10472TIP3   OH252906   0.486   5.569  11.420  0.0373 -0.3602  0.0147
10472TIP3    H152907   0.556   5.574  11.355 -0.8284  0.4957 -0.8795
10472TIP3    H252908   0.526   5.599  11.502  0.4079  1.2675 -0.7489
10473TIP3   OH252909   2.845   0.339   5.212 -0.4259  0.5210 -0.3952
10473TIP3    H152910   2.917   0.367   5.268 -3.4402  2.4325  2.6970
10473TIP3    H252911   2.819   0.254   5.247 -2.9030  2.1221  1.8443
10474TIP3   OH252912   0.528   6.128  10.928 -0.8540  0.2362  0.0439
10474TIP3    H152913   0.546   6.118  10.835  0.1046  0.8450  0.1513
10474TIP3    H252914   0.516   6.039  10.961  1.9712 -0.2214 -0.0568
10475TIP3   OH252915   5.752   5.260   2.270  0.1241  0.1104  0.4430
10475TIP3    H152916   5.732   5.229   2.182  1.1088  1.3629 -0.2410
10475TIP3    H252917   5.704   5.343   2.278  1.6629  1.0252  0.3301
10476TIP3   OH252918   2.206   6.288   3.404 -0.0604 -0.4283  0.0371
10476TIP3    H152919   2.230   6.260   3.492 -1.4383  1.5721  1.0837
10476TIP3    H252920   2.286   6.276   3.352  1.3947  0.3309  2.0316
10477TIP3   OH252921   3.260   4.128  17.127  0.3575 -0.0842 -0.2706
10477TIP3    H152922   3.295   4.064  17.189 -0.1865 -0.8865 -0.7931
10477TIP3    H252923   3.178   4.090  17.096  0.0098  0.8758 -0.5642
10478TIP3   OH252924   4.427   3.071   5.006 -0.1495 -0.2783  0.6200
10478TIP3    H152925   4.370   3.037   4.936  1.1888 -0.7741 -0.2363
10478TIP3    H252926   4.477   2.995   5.035  2.2387  0.7506 -0.7057
10479TIP3   OH252927   2.458   4.280   1.876  0.2354  0.1361 -0.2825
10479TIP3    H152928   2.484   4.189   1.893 -1.0040  0.0236  1.1704
10479TIP3    H252929   2.422   4.278   1.787  1.3656 -0.5190 -0.7457
10480TIP3   OH252930   1.482   0.568   5.616 -0.1570  0.3007 -0.2066
10480TIP3    H152931   1.510   0.563   5.707 -0.0381 -0.3555 -0.2750
10480TIP3    H252932   1.387   0.558   5.619 -0.1232 -0.0312 -0.1736
10481TIP3   OH252933   0.245   2.189   2.432 -0.2540 -0.6333  0.5905
10481TIP3    H152934   0.204   2.247   2.369  1.2655  0.8042  0.8857
10481TIP3    H252935   0.190   2.194   2.510  0.6314  1.5130  1.0925
10482TIP3   OH252936   0.049   2.571   1.569  0.1192 -0.1291  0.4384
10482TIP3    H152937  -0.035   2.556   1.526 -1.9754  1.4689  3.7031
10482TIP3    H252938   0.067   2.665   1.556  1.4396 -0.4785 -0.3097
10483TIP3   OH252939   6.120   3.607  14.166  0.2981  0.0349  0.1394
10483TIP3    H152940   6.034   3.648  14.174 -0.2431 -1.1690  0.6367
10483TIP3    H252941   6.158   3.614  14.254  0.0943 -0.7556  0.2921
10484TIP3   OH252942   0.817   6.720   3.515  0.2810  0.1734 -0.0607
10484TIP3    H152943   0.829   6.626   3.503 -0.9878  0.0297 -0.1962
10484TIP3    H252944   0.868   6.760   3.445  0.4265 -0.4238 -0.2939
10485TIP3   OH252945   0.064   2.268   1.975 -0.0998 -0.3386  0.0959
10485TIP3    H152946   0.093   2.205   1.909  1.3533 -1.9384  2.1985
10485TIP3    H252947   0.075   2.353   1.932  3.7131 -1.1404 -0.7358
10486TIP3   OH252948   6.648   1.144  11.380 -0.2087  0.4275  0.1470
10486TIP3    H152949   6.686   1.139  11.467 -0.3704 -1.5183  0.1487
10486TIP3    H252950   6.706   1.089  11.326 -1.3308 -0.1653 -0.4766
10487TIP3   OH252951   4.621   4.322   1.830 -0.8851  0.3591  0.1285
10487TIP3    H152952   4.572   4.306   1.910  0.4993  2.5720  1.4599
10487TIP3    H252953   4.619   4.417   1.819  0.7307  0.2504 -1.3078
10488TIP3   OH252954   4.508   6.224   1.453 -0.6026  0.2491  1.0208
10488TIP3    H152955   4.483   6.132   1.454 -1.6294  0.5204  0.7621
10488TIP3    H252956   4.476   6.259   1.537 -0.3306  0.3937  1.0644
10489TIP3   OH252957   5.626   1.860  12.241  0.3683 -0.4058 -0.6197
10489TIP3    H152958   5.594   1.876  12.152  1.1514  1.7019 -0.5338
10489TIP3    H252959   5.556   1.893  12.298  0.3514 -0.7515 -0.4336
10490TIP3   OH252960   0.612   1.089   4.140 -0.1829  0.3029 -0.0808
10490TIP3    H152961   0.578   1.045   4.218  0.9387 -2.1827 -0.9422
10490TIP3    H252962   0.539   1.143   4.109 -2.0859 -1.9684  0.2885
10491TIP3   OH252963   5.062   6.426   0.963 -0.0644  0.1324  0.0165
10491TIP3    H152964   5.123   6.388   1.027  0.2463  0.4133 -0.1142
10491TIP3    H252965   5.110   6.499   0.925  0.3562 -0.9937 -1.6840
10492TIP3   OH252966   4.319   5.375  11.306 -0.0772 -0.2130 -0.2539
10492TIP3    H152967   4.411   5.356  11.325 -0.5495 -1.4226  0.8501
10492TIP3    H252968   4.318   5.395  11.212  1.2046 -0.8427 -0.4111
10493TIP3   OH252969   4.638   2.083  12.353 -0.3833 -0.8381 -0.8113
10493TIP3    H152970   4.614   2.086  12.446  1.7664 -2.0630 -0.1731
10493TIP3    H252971   4.639   2.175  12.326 -0.5625 -0.4272  0.5039
10494TIP3   OH252972   4.289   2.481   1.103 -0.3322 -0.0054  0.0283
10494TIP3    H152973   4.195   2.468   1.108 -0.1104 -2.1290 -0.9763
10494TIP3    H252974   4.306   2.492   1.009  0.3856  0.7203  0.2379
10495TIP3   OH252975   0.859   3.023  14.377  0.6609 -0.1055  0.2900
10495TIP3    H152976   0.807   3.027  14.297  1.8730  0.6781 -0.4785
10495TIP3    H252977   0.943   3.062  14.353  0.9540  0.3923  2.0149
10496TIP3   OH252978   5.215   0.297  16.518  0.0768  0.4337  0.0587
10496TIP3    H152979   5.261   0.352  16.455 -0.5086  0.8326 -0.0306
10496TIP3    H252980   5.279   0.231  16.545  1.0585  1.6971  0.8404
10497TIP3   OH252981   0.817   1.607  15.342 -0.0126  0.0477 -0.1856
10497TIP3    H152982   0.850   1.696  15.357  1.2513 -0.1309 -1.7253
10497TIP3    H252983   0.722   1.618  15.334  0.1079  1.2302 -0.1303
10498TIP3   OH252984   4.047   6.758   5.817  0.3853  1.2212  0.1041
10498TIP3    H152985   4.030   6.852   5.826 -2.3967  0.8934 -1.4478
10498TIP3    H252986   4.064   6.729   5.907 -0.1378  2.9354  0.7815
10499TIP3   OH252987   4.675   3.224  14.261 -0.1802 -0.1994  0.3149
10499TIP3    H152988   4.709   3.160  14.324 -2.0987 -2.1904 -0.6211
10499TIP3    H252989   4.594   3.186  14.229  0.4073  1.0953 -2.8927
10500TIP3   OH252990   4.626   1.295  14.558 -0.1883 -0.2784  0.5364
10500TIP3    H152991   4.710   1.335  14.580 -1.2171  1.8654  0.6515
10500TIP3    H252992   4.639   1.257  14.471  1.0533 -0.4683  0.7940
10501TIP3   OH252993   1.643   0.663   3.700 -0.1485  0.2384 -0.7905
10501TIP3    H152994   1.719   0.681   3.755  1.2420  2.4724 -3.3012
10501TIP3    H252995   1.674   0.601   3.634 -0.9170  0.0172 -0.9511
10502TIP3   OH252996   2.046   5.408  16.540 -0.2160  0.4739  0.3451
10502TIP3    H152997   2.132   5.370  16.521 -0.6793 -1.4917  2.0342
10502TIP3    H252998   2.056   5.447  16.627 -1.3182 -0.7388  1.0337
10503TIP3   OH252999   6.033   4.720  16.274 -0.0283 -0.4468 -0.1017
10503TIP3    H153000   6.045   4.749  16.365 -0.6411 -2.1035  0.5398
10503TIP3    H253001   5.946   4.679  16.274 -0.2593  0.0371 -1.5756
10504TIP3   OH253002   0.725   0.907   1.289 -0.0801 -0.0438  0.6877
10504TIP3    H153003   0.640   0.925   1.330  1.0630 -0.0881  3.1562
10504TIP3    H253004   0.737   0.813   1.300  2.4240  0.6051  4.8240
10505TIP3   OH253005   6.782   6.215  14.058  0.1821  0.0932  0.1243
10505TIP3    H153006   6.696   6.173  14.049  0.7394 -0.5499 -2.6835
10505TIP3    H253007   6.807   6.198  14.148 -2.0891 -0.7888  0.6296
10506TIP3   OH253008   1.582   0.329   2.783 -0.1518  0.0319  0.8903
10506TIP3    H153009   1.489   0.349   2.775  0.3180  1.7499 -0.6905
10506TIP3    H253010   1.596   0.258   2.720 -0.5869 -0.9270  1.8701
10507TIP3   OH253011   0.213   5.356   0.111  0.2761  0.0336  0.3160
10507TIP3    H153012   0.265   5.381   0.035 -0.7946  3.6976  0.6862
10507TIP3    H253013   0.276   5.317   0.171  1.3396 -1.7701 -1.8924
10508TIP3   OH253014   3.138   2.717   5.691 -0.4957  0.2688  0.6780
10508TIP3    H153015   3.213   2.671   5.654 -1.2203 -0.5474  0.2106
10508TIP3    H253016   3.113   2.665   5.767 -1.2214 -0.0296  0.2393
10509TIP3   OH253017   3.893   0.848   0.661  0.0673  0.4149  0.0742
10509TIP3    H153018   3.894   0.943   0.663  2.3701  0.4255  0.0029
10509TIP3    H253019   3.958   0.825   0.593  1.3895 -1.2076  1.8314
10510TIP3   OH253020   2.169   0.514   3.641 -0.1123  0.1193 -0.2752
10510TIP3    H153021   2.160   0.604   3.672 -0.7394  0.2279 -0.7621
10510TIP3    H253022   2.201   0.466   3.718 -0.9644  0.5196  0.3372
10511TIP3   OH253023   0.706   2.714   5.764  0.0629 -0.1926  0.1464
10511TIP3    H153024   0.634   2.748   5.710 -0.1971 -1.7807 -0.5145
10511TIP3    H253025   0.698   2.619   5.758  1.9192 -0.3810  0.4851
10512TIP3   OH253026   5.483   5.962   1.136 -0.0002  0.7013 -0.1513
10512TIP3    H153027   5.450   5.886   1.088 -1.6708  0.8770  0.6834
10512TIP3    H253028   5.440   5.957   1.221  1.8069  1.2169  0.8091
10513TIP3   OH253029   2.060   2.613  14.184 -0.2083 -0.1042 -0.2316
10513TIP3    H153030   2.087   2.664  14.107  1.3168  0.1252  0.4444
10513TIP3    H253031   2.116   2.536  14.183 -0.3932 -0.2545  0.4955
10514TIP3   OH253032   5.962   4.788  13.662  0.1173  0.6783  0.3712
10514TIP3    H153033   5.973   4.762  13.571  1.2121  0.0643  0.6679
10514TIP3    H253034   5.875   4.826  13.666 -0.1483  0.2071 -0.8162
10515TIP3   OH253035   2.862   5.227   4.927 -0.6859 -0.0971  0.2244
10515TIP3    H153036   2.877   5.229   4.832 -2.0202 -1.6694 -0.0483
10515TIP3    H253037   2.918   5.156   4.958  0.0961  0.7192  0.6891
10516TIP3   OH253038   5.545   1.963  12.007 -0.8423 -0.2555 -0.3618
10516TIP3    H153039   5.570   2.051  11.978 -1.0126  0.2137  0.9184
10516TIP3    H253040   5.561   1.908  11.930 -0.8336  0.9062 -1.2059
10517TIP3   OH253041   2.565   4.760   1.994  0.3592  0.4669  0.1553
10517TIP3    H153042   2.504   4.829   1.972 -0.4870 -0.3840 -0.2167
10517TIP3    H253043   2.513   4.696   2.043  1.1107  0.0550  0.4378
10518TIP3   OH253044   4.759   1.801  12.325  0.3881 -0.3742  0.2865
10518TIP3    H153045   4.735   1.891  12.347  0.1415 -1.0162  2.7253
10518TIP3    H253046   4.803   1.809  12.240 -1.2368  1.8069 -0.4030
10519TIP3   OH253047   0.223   6.804   3.682  0.0502  0.3190  0.0399
10519TIP3    H153048   0.215   6.850   3.766 -1.3049  0.4888 -0.1695
10519TIP3    H253049   0.311   6.765   3.684 -0.5188 -0.9622  2.2095
10520TIP3   OH253050   2.297   0.917  12.275  0.2184  0.0084 -0.0810
10520TIP3    H153051   2.221   0.966  12.306  1.2185  1.2414  0.5216
10520TIP3    H253052   2.339   0.884  12.354  0.5580 -0.2698 -0.3734
10521TIP3   OH253053   2.561   2.128  11.527 -0.4020  0.0132 -0.0631
10521TIP3    H153054   2.621   2.183  11.477 -0.1020 -1.6441 -1.6053
10521TIP3    H253055   2.484   2.119  11.470 -0.7106 -0.6157  0.4472
10522TIP3   OH253056   0.318   1.390   3.382  0.3983 -0.4151  0.0349
10522TIP3    H153057   0.311   1.480   3.412  1.9233 -0.3109  0.1293
10522TIP3    H253058   0.286   1.337   3.456  0.5553  0.0007  0.3998
10523TIP3   OH253059   2.436   2.472  16.585  0.2228  0.0273  0.2299
10523TIP3    H153060   2.471   2.515  16.507  0.0368 -2.4736 -1.2978
10523TIP3    H253061   2.346   2.502  16.591  0.6529  1.3459  0.3509
10524TIP3   OH253062   5.812   0.953   0.613 -0.2566 -0.2445 -0.4496
10524TIP3    H153063   5.742   1.005   0.652  1.3137  0.4339  1.5388
10524TIP3    H253064   5.779   0.863   0.618 -2.4084  0.3506 -2.6825
10525TIP3   OH253065   1.204   6.301   3.454 -0.2741  0.4963 -0.1199
10525TIP3    H153066   1.255   6.309   3.535 -2.0818 -0.3917  1.1620
10525TIP3    H253067   1.267   6.270   3.389  0.9193 -0.1816  1.3151
10526TIP3   OH253068   4.896   2.301  15.953  0.0170  0.0821  0.4200
10526TIP3    H153069   4.856   2.296  16.039  2.1316 -0.1740  1.4349
10526TIP3    H253070   4.889   2.393  15.928 -0.4757  0.1772  0.9148
10527TIP3   OH253071   5.934   3.194   5.265  0.8062 -0.0724  0.1953
10527TIP3    H153072   5.874   3.234   5.328 -0.6481 -1.1479 -0.4748
10527TIP3    H253073   5.888   3.115   5.236  2.4950 -0.8310 -0.4474
10528TIP3   OH253074   1.567   6.544  16.308 -0.4874 -0.2202  0.1791
10528TIP3    H153075   1.503   6.614  16.293 -0.3828  0.1387  1.3195
10528TIP3    H253076   1.592   6.514  16.221 -0.9548  0.7862 -0.3037
10529TIP3   OH253077   2.194   2.905  14.275  0.1335 -0.2807 -0.2243
10529TIP3    H153078   2.244   2.962  14.334  0.3473  0.4945 -1.1390
10529TIP3    H253079   2.103   2.922  14.298  0.2634 -1.6327  1.3904
10530TIP3   OH253080   3.702   5.089  13.411  0.1845 -0.8519  0.3704
10530TIP3    H153081   3.617   5.124  13.384  1.1397  0.1983 -1.3929
10530TIP3    H253082   3.729   5.144  13.484  0.6912  0.7648 -0.9961
10531TIP3   OH253083   2.641   6.412   5.083 -0.1161 -0.6160 -0.4343
10531TIP3    H153084   2.718   6.380   5.129  0.2909  0.3110 -0.4465
10531TIP3    H253085   2.581   6.338   5.080  1.4509 -1.8572 -1.9034
10532TIP3   OH253086   2.250   3.370   2.193  0.2877 -0.6955  0.4872
10532TIP3    H153087   2.187   3.423   2.144  0.7903 -1.4779 -1.0410
10532TIP3    H253088   2.196   3.316   2.250 -0.3083  0.3094  0.8880
10533TIP3   OH253089   4.588   2.376  14.088 -0.2131  0.2420 -0.4061
10533TIP3    H153090   4.601   2.353  14.180  0.5714  0.1411 -0.5343
10533TIP3    H253091   4.599   2.471  14.086 -1.7282  0.4347 -0.1584
10534TIP3   OH253092   2.233   3.768  13.181 -0.0785 -0.2615  0.4141
10534TIP3    H153093   2.223   3.672  13.182 -3.0752 -0.0105  1.0094
10534TIP3    H253094   2.187   3.797  13.259  1.5016  1.6502  0.6530
10535TIP3   OH253095   2.643   2.720   2.011  0.2820 -0.7517  0.1694
10535TIP3    H153096   2.663   2.813   2.021 -1.1950 -0.2667 -1.2028
10535TIP3    H253097   2.703   2.676   2.071 -0.1825  1.2008  2.1075
10536TIP3   OH253098   2.068   1.684  15.738 -0.2419  0.4060  0.1658
10536TIP3    H153099   2.048   1.778  15.740 -0.8201  0.3176 -1.1196
10536TIP3    H253100   2.148   1.678  15.687 -1.5409 -0.0086 -1.8774
10537TIP3   OH253101   6.183   2.135   4.500 -0.2464  0.5023 -0.0991
10537TIP3    H153102   6.144   2.107   4.417  1.4923  2.2229 -1.5357
10537TIP3    H253103   6.273   2.102   4.497 -0.7104 -1.1411  2.0235
10538TIP3   OH253104   0.618   2.256   4.196  0.2803 -0.1833 -0.6221
10538TIP3    H153105   0.690   2.317   4.214  0.1508 -0.0029 -0.7101
10538TIP3    H253106   0.595   2.274   4.105 -1.5813  1.5619  0.1522
10539TIP3   OH253107   1.439   2.761   4.533  0.2442  0.1897  0.1513
10539TIP3    H153108   1.386   2.700   4.585  1.2021 -0.3668  0.4879
10539TIP3    H253109   1.464   2.830   4.595 -1.5989  1.4238 -0.4474
10540TIP3   OH253110   5.761   3.648   5.885 -0.1497 -0.1106  0.4711
10540TIP3    H153111   5.676   3.608   5.868 -0.3174  0.5110 -0.1687
10540TIP3    H253112   5.746   3.742   5.874  0.1694  0.1586  2.2679
10541TIP3   OH253113   2.482   2.043   3.932 -0.3335  0.1746 -0.3101
10541TIP3    H153114   2.529   2.051   3.849 -1.9611 -0.8812 -1.3596
10541TIP3    H253115   2.396   2.010   3.908 -0.4472 -1.2543  1.9208
10542TIP3   OH253116   0.684   0.509  16.658  0.4560  0.4411  0.0213
10542TIP3    H153117   0.614   0.574  16.647  1.7075  1.6375 -0.9560
10542TIP3    H253118   0.639   0.432  16.693 -1.8726  0.2114 -3.2476
10543TIP3   OH253119   5.891   6.068  12.462 -0.0826 -0.1712 -0.0778
10543TIP3    H153120   5.909   6.148  12.413 -2.8245 -0.2043 -1.2236
10543TIP3    H253121   5.922   5.998  12.405 -0.7820 -0.0794 -0.5758
10544TIP3   OH253122   5.453   6.250   3.963 -0.3510  0.4755  0.5651
10544TIP3    H153123   5.509   6.250   3.885 -2.2453 -0.1183 -0.8666
10544TIP3    H253124   5.368   6.219   3.930 -1.3975  0.9653  2.7330
10545TIP3   OH253125   4.899   6.579  16.914 -0.1968 -0.0733 -0.4879
10545TIP3    H153126   4.848   6.645  16.867 -0.9414 -0.8181 -0.7293
10545TIP3    H253127   4.989   6.595  16.886 -0.5230  0.0506 -1.5025
10546TIP3   OH253128   3.482   3.621  12.982  0.5430 -0.2173 -0.1100
10546TIP3    H153129   3.512   3.580  12.901 -1.2999  0.3695 -1.1237
10546TIP3    H253130   3.531   3.703  12.988  0.7527 -0.3129 -0.5650
10547TIP3   OH253131   6.090   2.844   6.387 -0.3405  0.2553 -0.2796
10547TIP3    H153132   6.153   2.871   6.454 -0.8436 -0.7851  0.6342
10547TIP3    H253133   6.017   2.906   6.397 -1.8174 -1.7841  2.3039
10548TIP3   OH253134   2.309   6.031  12.953 -0.6033 -0.1319 -0.4410
10548TIP3    H153135   2.275   6.117  12.976 -0.0193 -0.1243  0.4194
10548TIP3    H253136   2.311   5.983  13.036  1.4725 -0.1313 -0.4587
10549TIP3   OH253137   1.980   2.986  16.658 -0.2927 -0.0298 -0.0414
10549TIP3    H153138   1.908   3.034  16.616 -0.1339  0.3364  0.1048
10549TIP3    H253139   1.944   2.960  16.743 -1.2784 -2.4333 -1.1540
10550TIP3   OH253140   2.604   2.142   3.253  0.2646  0.0907 -0.0798
10550TIP3    H153141   2.614   2.188   3.337  1.5164 -0.4318  0.0594
10550TIP3    H253142   2.613   2.211   3.187 -0.6489  0.4923  0.1977
10551TIP3   OH253143   2.918   4.944   0.948 -0.6950  0.5254  0.0034
10551TIP3    H153144   2.955   5.024   0.985  1.9143 -0.2272 -0.9252
10551TIP3    H253145   2.947   4.943   0.857 -0.4060 -1.6362  0.0878
10552TIP3   OH253146   5.503   5.125   5.232  0.0047 -0.3691 -0.0542
10552TIP3    H153147   5.483   5.213   5.201  0.5793 -0.5182 -0.8898
10552TIP3    H253148   5.418   5.087   5.255 -0.3553  0.0467 -0.6787
10553TIP3   OH253149   5.853   6.694  15.121 -0.8423  0.0734 -0.5228
10553TIP3    H153150   5.936   6.712  15.075 -0.1666 -0.0787  0.6134
10553TIP3    H253151   5.795   6.765  15.094 -0.1774  0.4830 -0.9174
10554TIP3   OH253152   5.857   0.754   4.861  0.4247  0.3875  0.3405
10554TIP3    H153153   5.941   0.744   4.905  0.4593  1.2522  0.4771
10554TIP3    H253154   5.793   0.752   4.932  0.3401 -0.0459  0.2559
10555TIP3   OH253155   2.488   2.592  11.096  0.2348 -0.0494 -0.9807
10555TIP3    H153156   2.402   2.581  11.135 -0.5038 -0.7590 -2.7540
10555TIP3    H253157   2.514   2.680  11.120 -1.5558  0.6433 -1.5016
10556TIP3   OH253158   3.935   3.575  14.303 -0.2343  0.0158  0.2087
10556TIP3    H153159   3.927   3.651  14.246 -1.3142 -0.2140  0.0509
10556TIP3    H253160   3.980   3.509  14.250 -0.4034  0.1188 -0.0586
10557TIP3   OH253161   1.539   6.054   1.147  0.3039  0.1433 -0.3657
10557TIP3    H153162   1.506   6.110   1.217 -1.2303 -0.1702 -0.8112
10557TIP3    H253163   1.511   5.966   1.172  1.9962 -0.3387 -0.0788
10558TIP3   OH253164   2.059   4.386   5.604  0.3197  0.1358 -0.6527
10558TIP3    H153165   2.106   4.460   5.565  0.8284 -0.7550 -1.7684
10558TIP3    H253166   2.105   4.309   5.571 -1.1544 -0.7160 -0.7474
10559TIP3   OH253167   2.205   2.594  15.053 -0.4650 -0.1521  0.4854
10559TIP3    H153168   2.133   2.654  15.035  0.3856  1.1353  1.2698
10559TIP3    H253169   2.284   2.649  15.046  0.3355 -1.1996  1.1352
10560TIP3   OH253170   4.595   0.500  15.559 -0.3554 -0.0284 -0.8913
10560TIP3    H153171   4.661   0.448  15.606 -0.4347 -0.1428 -0.9043
10560TIP3    H253172   4.602   0.588  15.596 -0.8442 -0.2651 -0.2201
10561TIP3   OH253173   2.162   1.238   2.101  0.9227  0.5243  0.8451
10561TIP3    H153174   2.232   1.274   2.155  0.8160  0.2561  1.1614
10561TIP3    H253175   2.208   1.198   2.026  1.1869 -0.7009  1.6503
10562TIP3   OH253176   5.860   3.758  11.953  0.1200 -0.3551 -0.0604
10562TIP3    H153177   5.828   3.814  12.024 -1.7688 -1.6809  0.1823
10562TIP3    H253178   5.828   3.801  11.873  0.1025 -0.2021  0.0275
10563TIP3   OH253179   6.813   0.242  14.924  0.3101 -0.1833 -0.2458
10563TIP3    H153180   6.850   0.260  14.837  1.1506  0.0411  0.1599
10563TIP3    H253181   6.806   0.147  14.928 -0.3400 -0.1639 -0.8139
10564TIP3   OH253182   1.192   3.528  16.372 -0.3656  0.2453 -0.2596
10564TIP3    H153183   1.143   3.595  16.420  0.2705  0.8007 -0.3833
10564TIP3    H253184   1.231   3.575  16.299  2.1928  0.2933  1.0740
10565TIP3   OH253185   5.124   1.414   2.433 -0.5258  0.2987 -0.2888
10565TIP3    H153186   5.142   1.326   2.399  0.9566  0.0988  0.9577
10565TIP3    H253187   5.191   1.469   2.393 -1.7938  0.9871 -1.5074
10566TIP3   OH253188   0.899   5.015   4.630 -0.3331 -0.5388  0.5338
10566TIP3    H153189   0.944   5.049   4.553 -0.9373 -0.7145  0.0964
10566TIP3    H253190   0.959   5.032   4.703 -1.0972  2.6183  0.5136
10567TIP3   OH253191   5.391   5.623  11.961 -0.2487 -0.6303  0.1041
10567TIP3    H153192   5.308   5.577  11.958 -1.0848  0.8115  0.8605
10567TIP3    H253193   5.373   5.704  12.008  1.5336 -0.2038  0.1073
10568TIP3   OH253194   5.190   4.770  16.937 -0.1115  0.2618 -0.6278
10568TIP3    H153195   5.105   4.787  16.978 -1.3691 -1.7662 -2.2965
10568TIP3    H253196   5.207   4.848  16.884 -2.0982 -0.3021 -2.1468
10569TIP3   OH253197   4.611   2.199   0.689  0.3469 -0.0469  0.1996
10569TIP3    H153198   4.678   2.135   0.713 -0.5664 -1.3535 -0.6688
10569TIP3    H253199   4.547   2.194   0.761  0.0562 -0.4505 -0.0797
10570TIP3   OH253200   0.277   0.359   5.049 -0.4585 -0.2990 -0.4091
10570TIP3    H153201   0.293   0.453   5.045 -1.4592 -0.1479 -1.0346
10570TIP3    H253202   0.328   0.323   4.977  0.2307 -0.2781  0.0699
10571TIP3   OH253203   5.904   1.011   1.556 -0.0516 -0.3818  0.0828
10571TIP3    H153204   5.941   1.003   1.644 -1.2148  0.7037  0.6835
10571TIP3    H253205   5.942   1.092   1.522  0.5112 -0.8790 -0.4745
10572TIP3   OH253206   2.506   1.625  16.257  0.0858  0.4475 -0.2436
10572TIP3    H153207   2.559   1.546  16.253 -1.1857 -0.5002  1.0952
10572TIP3    H253208   2.432   1.607  16.199 -0.9999  0.0271  1.2480
10573TIP3   OH253209   3.435   0.803   1.854 -0.4721  0.0538  0.0814
10573TIP3    H153210   3.502   0.870   1.838 -0.2674 -0.1393  0.1206
10573TIP3    H253211   3.362   0.851   1.892  0.0066  0.1239  0.9266
10574TIP3   OH253212   2.124   1.140   0.152 -0.0322  0.7300 -0.9273
10574TIP3    H153213   2.040   1.139   0.200 -0.7185 -0.3679 -2.1296
10574TIP3    H253214   2.099   1.131   0.060  1.4044  0.6228 -1.3106
10575TIP3   OH253215   3.216   6.725   0.434 -0.2913  0.0332  0.1067
10575TIP3    H153216   3.293   6.704   0.488 -0.7401  0.0471  0.7640
10575TIP3    H253217   3.169   6.642   0.426  0.6236 -0.3321 -1.6530
10576TIP3   OH253218   0.834   5.751  11.394  0.1402  0.7702 -0.5405
10576TIP3    H153219   0.904   5.812  11.371  2.2183 -1.4899 -0.4177
10576TIP3    H253220   0.774   5.754  11.319  0.6903  2.2344 -0.9399
10577TIP3   OH253221   1.104   1.302  16.283 -0.3221  0.0623  0.1273
10577TIP3    H153222   1.192   1.336  16.270  0.3087 -1.2675  0.7883
10577TIP3    H253223   1.070   1.350  16.359 -0.7445  1.6311 -1.0347
10578TIP3   OH253224   0.461   2.674   4.677  0.1899 -0.1783 -0.6655
10578TIP3    H153225   0.536   2.726   4.706  1.2955 -0.9727 -2.0588
10578TIP3    H253226   0.489   2.583   4.687 -1.3324 -0.5225  0.7185
10579TIP3   OH253227   0.349   2.128  15.686 -0.6935  0.4765  0.0732
10579TIP3    H153228   0.422   2.128  15.748  0.7656 -0.3140 -1.6096
10579TIP3    H253229   0.304   2.211  15.702  2.1982  2.2892 -0.7210
10580TIP3   OH253230   1.022   6.204   2.457  0.3049 -0.2295  0.4476
10580TIP3    H153231   0.983   6.260   2.389  2.6093  1.4763  0.4697
10580TIP3    H253232   0.952   6.191   2.520 -0.7761  1.2952 -0.3866
10581TIP3   OH253233   3.289   4.673   4.302 -0.0570 -0.2704  0.0182
10581TIP3    H153234   3.359   4.725   4.343 -0.1599  0.7347 -1.0602
10581TIP3    H253235   3.218   4.735   4.288 -1.8540 -1.6734  2.6976
10582TIP3   OH253236   0.244   5.338  15.229  0.2980  0.0589 -0.1227
10582TIP3    H153237   0.258   5.388  15.149  0.5722  1.0746  0.5614
10582TIP3    H253238   0.242   5.403  15.298  1.4670 -0.9336  0.8739
10583TIP3   OH253239   4.910   6.256  14.286  0.0517  0.0446 -0.0778
10583TIP3    H153240   4.993   6.259  14.238 -0.2723 -2.8056 -0.9260
10583TIP3    H253241   4.935   6.240  14.377  0.5033  1.8275  0.1430
10584TIP3   OH253242   5.174   3.208  17.008 -0.4392 -0.0079 -0.0007
10584TIP3    H153243   5.178   3.179  16.917  1.2831  1.5492 -0.4585
10584TIP3    H253244   5.253   3.173  17.048 -0.7277  0.0813  0.6451
10585TIP3   OH253245   1.435   1.974  13.226  0.0999  0.2231 -0.3723
10585TIP3    H153246   1.442   1.888  13.269  1.4926  0.0537 -0.9066
10585TIP3    H253247   1.408   2.033  13.296 -0.6093 -0.5998  0.0646
10586TIP3   OH253248   5.641   5.639  16.387  0.0821 -0.1939  0.3338
10586TIP3    H153249   5.656   5.679  16.473  0.6040  0.1597  0.0755
10586TIP3    H253250   5.652   5.710  16.324  0.2048 -0.5625 -0.0644
10587TIP3   OH253251   0.234   5.476  14.184 -0.1220  0.0713 -0.1069
10587TIP3    H153252   0.216   5.560  14.142  1.0280 -0.5176 -1.8665
10587TIP3    H253253   0.318   5.448  14.146  1.0655 -0.4259  2.7444
10588TIP3   OH253254   2.885   0.721  13.283 -0.2141  0.3851  0.4447
10588TIP3    H153255   2.940   0.799  13.270  2.1701 -1.3544 -0.1684
10588TIP3    H253256   2.859   0.695  13.195 -1.0826  0.4924  0.6568
10589TIP3   OH253257   0.702   2.899   5.032  0.1669  0.4274 -0.3081
10589TIP3    H153258   0.630   2.900   5.095 -0.2943 -0.8908 -0.8098
10589TIP3    H253259   0.668   2.947   4.957  0.4052  1.2235  0.0794
10590TIP3   OH253260   5.013   0.123   2.002  0.3700 -0.6375  0.1269
10590TIP3    H153261   4.943   0.188   2.003  1.0195  0.0995 -0.8392
10590TIP3    H253262   5.009   0.082   2.089 -0.2278  0.5016  0.6517
10591TIP3   OH253263   0.130   1.564  13.337  0.2029  0.6728  0.1409
10591TIP3    H153264   0.116   1.643  13.389  0.0594  1.9204 -1.7651
10591TIP3    H253265   0.045   1.520  13.337  0.0019  1.0595  0.3442
10592TIP3   OH253266   4.253   4.878   0.916 -0.0389  0.1142 -0.0632
10592TIP3    H153267   4.252   4.788   0.948 -0.1694  0.7048  1.6403
10592TIP3    H253268   4.346   4.902   0.916  0.1354 -0.4684 -1.8771
10593TIP3   OH253269   1.747   3.363  12.909  0.0075  0.1538  0.6255
10593TIP3    H153270   1.707   3.440  12.870 -0.9563 -0.4738  0.3453
10593TIP3    H253271   1.807   3.397  12.975  2.3537  1.2809 -1.9923
10594TIP3   OH253272   4.344   2.178  12.080 -0.4676 -0.2322  0.0802
10594TIP3    H153273   4.393   2.245  12.127  0.1556 -1.4588  1.2322
10594TIP3    H253274   4.257   2.216  12.066 -0.2126  0.6875  0.9789
10595TIP3   OH253275   2.559   2.926   6.120 -0.2673 -0.1690 -0.0475
10595TIP3    H153276   2.469   2.911   6.089 -0.2383 -0.2836 -0.0746
10595TIP3    H253277   2.548   2.973   6.203 -0.3109  2.6104 -1.5514
10596TIP3   OH253278   1.537   0.048   0.137 -0.2404 -0.0755 -0.2890
10596TIP3    H153279   1.527   0.137   0.105  0.1555 -0.1636 -0.6624
10596TIP3    H253280   1.623   0.021   0.105 -0.1130 -0.3830  0.3165
10597TIP3   OH253281   0.550   2.657  16.169  0.3376  0.0443  0.4923
10597TIP3    H153282   0.516   2.708  16.242 -2.0602  1.3471 -1.4591
10597TIP3    H253283   0.479   2.658  16.104  1.8405 -2.2950 -1.2635
10598TIP3   OH253284   1.497   3.652   2.287 -0.1373  0.0445 -0.3626
10598TIP3    H153285   1.548   3.618   2.213  2.6729  0.4524  1.3196
10598TIP3    H253286   1.476   3.575   2.340  0.5501  0.1241  0.0296
10599TIP3   OH253287   3.964   6.309   1.527  0.1615  0.1697  0.1549
10599TIP3    H153288   3.871   6.333   1.526 -0.2691 -1.4667 -0.4507
10599TIP3    H253289   4.002   6.357   1.454 -0.4140  0.0645 -0.2197
10600TIP3   OH253290   3.585   1.046   5.756  0.3255 -0.1041 -0.8651
10600TIP3    H153291   3.581   1.052   5.660 -0.4062  1.4659 -0.7570
10600TIP3    H253292   3.502   1.084   5.785  0.1968 -1.3414  0.3691
10601TIP3   OH253293   4.865   5.257   1.442  0.2382 -0.3353  0.1777
10601TIP3    H153294   4.830   5.177   1.482  0.9890 -0.5166  0.4811
10601TIP3    H253295   4.797   5.323   1.458 -0.4672 -0.9443 -0.2262
10602TIP3   OH253296   4.459   3.371  14.608 -0.0034  0.3391 -0.3076
10602TIP3    H153297   4.498   3.379  14.522  0.9127  0.1300  0.0857
10602TIP3    H253298   4.532   3.379  14.669 -0.7027  0.9198  0.4637
10603TIP3   OH253299   0.901   1.714  12.947 -0.7961 -0.6452  0.1172
10603TIP3    H153300   0.819   1.689  12.906 -0.3364 -0.1531 -1.1500
10603TIP3    H253301   0.920   1.644  13.008 -0.9084 -2.0304 -1.3960
10604TIP3   OH253302   2.805   1.199   2.768  0.5817 -0.1781  0.0439
10604TIP3    H153303   2.738   1.234   2.827  0.1660 -1.7880  0.5395
10604TIP3    H253304   2.839   1.122   2.812  0.5906 -1.1482 -1.5978
10605TIP3   OH253305   3.655   4.897  11.296 -0.3583  0.1434 -0.4615
10605TIP3    H153306   3.564   4.866  11.293  0.4412 -2.2115 -1.7279
10605TIP3    H253307   3.677   4.897  11.389 -1.3463 -0.2630 -0.2217
10606TIP3   OH253308   2.759   4.484  13.918  0.3999  0.4078  0.6522
10606TIP3    H153309   2.764   4.482  14.013 -0.6522 -0.1033  0.7056
10606TIP3    H253310   2.665   4.475  13.899  0.4226  1.9887 -0.3846
10607TIP3   OH253311   5.448   3.695   1.939  0.6465 -0.4419 -0.0977
10607TIP3    H153312   5.510   3.761   1.908  0.4166 -0.0705  0.2220
10607TIP3    H253313   5.456   3.623   1.876  2.0371 -0.7685  0.4485
10608TIP3   OH253314   6.225   3.238   4.797  0.6142 -0.2322 -0.8670
10608TIP3    H153315   6.289   3.203   4.859  1.0394  1.9236 -0.0164
10608TIP3    H253316   6.259   3.213   4.711  1.8429 -0.3742 -0.3520
10609TIP3   OH253317   3.598   0.497  17.226 -0.4532 -0.0037  0.2643
10609TIP3    H153318   3.664   0.444  17.181 -0.9455 -0.3736 -0.0331
10609TIP3    H253319   3.569   0.441  17.298  0.8313  0.8564  1.4750
10610TIP3   OH253320   0.009   5.491   3.198  0.1427 -0.1260 -0.2398
10610TIP3    H153321  -0.070   5.445   3.226 -1.1609  1.0818 -1.8177
10610TIP3    H253322   0.010   5.481   3.102  1.3101  0.7734 -0.3394
10611TIP3   OH253323   4.419   2.560   1.542  0.2908 -0.1426 -0.0504
10611TIP3    H153324   4.434   2.582   1.450 -2.6615 -1.4468 -0.9314
10611TIP3    H253325   4.376   2.638   1.578  2.7278  0.9186  0.6396
10612TIP3   OH253326   5.097   6.644   5.009  0.3456 -0.1144  0.2186
10612TIP3    H153327   5.102   6.719   4.950  0.4947 -0.1353  0.2048
10612TIP3    H253328   5.183   6.603   5.003 -0.8589 -2.3785 -2.5027
10613TIP3   OH253329   3.515   3.553   1.503  0.4133  0.1772  0.6186
10613TIP3    H153330   3.434   3.520   1.465 -1.1812  0.7476  3.3903
10613TIP3    H253331   3.548   3.617   1.439 -0.9501 -0.5616 -0.8401
10614TIP3   OH253332   3.909   2.542   0.442  0.0983  0.2658  0.2090
10614TIP3    H153333   3.949   2.523   0.527 -1.1437  0.7925  0.9239
10614TIP3    H253334   3.946   2.476   0.383  0.6970 -0.3308  1.2307
10615TIP3   OH253335   0.756   0.639   0.357  0.7033 -0.2560  0.5053
10615TIP3    H153336   0.778   0.666   0.447 -0.4324  1.2958  0.3544
10615TIP3    H253337   0.675   0.686   0.338  1.5574  0.3627 -1.7631
10616TIP3   OH253338   5.788   6.015   3.265 -0.0175  0.4297 -0.0241
10616TIP3    H153339   5.847   6.070   3.212  0.2327  2.9812  2.7637
10616TIP3    H253340   5.729   6.077   3.307 -2.9638 -1.8992 -0.5763
10617TIP3   OH253341   4.601   5.317   3.949  0.3799 -0.6815 -0.6733
10617TIP3    H153342   4.512   5.349   3.960  0.1319 -0.8596 -1.9948
10617TIP3    H253343   4.591   5.222   3.939  0.7378 -0.7280 -0.5804
10618TIP3   OH253344   5.271   1.232  14.686 -0.3239  0.9985  0.0844
10618TIP3    H153345   5.178   1.229  14.710 -0.6309  1.7129 -0.9876
10618TIP3    H253346   5.271   1.247  14.592  0.8758  2.3797  0.2842
10619TIP3   OH253347   1.351   6.472  14.625 -0.5275  0.2248 -0.2028
10619TIP3    H153348   1.264   6.509  14.638 -0.4529  1.1541 -2.2107
10619TIP3    H253349   1.409   6.548  14.614  0.2560 -0.4053 -0.5521
10620TIP3   OH253350   1.291   2.822   3.822 -0.0356 -0.1456 -0.3748
10620TIP3    H153351   1.277   2.911   3.853  2.0584 -0.3764  1.3878
10620TIP3    H253352   1.333   2.831   3.737 -0.5109  0.5599 -0.5282
10621TIP3   OH253353   0.760   6.052  11.958  0.3689 -0.0014 -0.7372
10621TIP3    H153354   0.841   6.103  11.954  0.7124 -0.6112 -1.9796
10621TIP3    H253355   0.789   5.962  11.969  0.0008 -0.5438 -3.7383
10622TIP3   OH253356   1.234   5.753  15.162 -0.4771  0.5606 -0.4281
10622TIP3    H153357   1.149   5.717  15.187 -0.8045  1.3160 -0.4409
10622TIP3    H253358   1.285   5.755  15.243 -1.3026  2.3647  0.0807
10623TIP3   OH253359   4.142   2.649  17.184  0.1561  0.8292 -0.1000
10623TIP3    H153360   4.231   2.615  17.174  0.2973  0.6625  1.6173
10623TIP3    H253361   4.092   2.575  17.219 -1.1787  0.2523 -3.0641
10624TIP3   OH253362   3.920   3.210  10.723  0.6492 -0.2947 -0.1375
10624TIP3    H153363   3.848   3.240  10.668  0.8303 -0.9052 -0.7169
10624TIP3    H253364   3.944   3.287  10.776  1.8132  0.9412 -2.3571
10625TIP3   OH253365   0.681   4.196   3.339  0.0968 -0.0073 -0.2024
10625TIP3    H153366   0.645   4.168   3.424  1.6844 -1.4822  0.0272
10625TIP3    H253367   0.648   4.131   3.277 -0.0487  0.3476 -0.4941
10626TIP3   OH253368   6.766   5.208  12.564 -0.2860  0.0623  0.4095
10626TIP3    H153369   6.827   5.171  12.627 -1.3399 -0.3954  1.1702
10626TIP3    H253370   6.684   5.161  12.579 -1.3282  1.8877  0.6079
10627TIP3   OH253371   0.586   0.292  12.266 -0.0606 -0.7942  0.1768
10627TIP3    H153372   0.654   0.280  12.332 -0.2751 -0.7272  0.4081
10627TIP3    H253373   0.579   0.207  12.222 -0.7892 -1.1939  1.0624
10628TIP3   OH253374   6.753   2.430   3.821 -0.2068  0.4472 -0.1750
10628TIP3    H153375   6.836   2.466   3.791  1.3469 -1.4616  1.6391
10628TIP3    H253376   6.708   2.402   3.741  1.8111 -0.3310 -1.0661
10629TIP3   OH253377   5.784   6.634  17.212  1.3387 -0.0916  0.5863
10629TIP3    H153378   5.823   6.607  17.129  1.2364 -0.2639  0.5938
10629TIP3    H253379   5.825   6.719  17.231 -1.2174  1.6898 -1.4038
10630TIP3   OH253380   4.085   1.281   0.556 -0.0823  0.3466 -0.1023
10630TIP3    H153381   4.049   1.368   0.542 -0.0934  0.2685 -0.6030
10630TIP3    H253382   4.179   1.295   0.571 -0.5203  0.6593  2.5449
10631TIP3   OH253383   2.671   1.247  11.344  0.5078 -0.5182 -0.4710
10631TIP3    H153384   2.650   1.257  11.437  0.6982  1.1013 -0.5880
10631TIP3    H253385   2.728   1.322  11.324 -1.6961  0.6746 -2.5242
10632TIP3   OH253386   2.810   5.703  16.193 -0.4541  0.1055 -0.1238
10632TIP3    H153387   2.853   5.677  16.274 -1.9595 -1.4580  0.2042
10632TIP3    H253388   2.726   5.740  16.221 -0.7343  0.1039 -0.9369
10633TIP3   OH253389   4.555   1.926   4.913 -0.2903  0.1688 -0.5249
10633TIP3    H153390   4.612   1.851   4.931 -1.4704 -1.0228 -1.7278
10633TIP3    H253391   4.607   1.981   4.855  0.5760  0.3011  0.3564
10634TIP3   OH253392   0.669   5.797  15.332 -0.2167 -0.2103  0.3075
10634TIP3    H153393   0.719   5.811  15.252 -1.8125 -0.8601 -0.8395
10634TIP3    H253394   0.694   5.869  15.390 -2.2408  2.8064 -2.3951
10635TIP3   OH253395   5.631   3.070  13.404 -0.0774 -0.1637 -0.0742
10635TIP3    H153396   5.623   3.126  13.481  1.7296 -3.0255  2.3053
10635TIP3    H253397   5.540   3.048  13.381 -0.6511  1.0376  0.9527
10636TIP3   OH253398   6.815   0.769  15.850 -0.6188  0.1053  0.3263
10636TIP3    H153399   6.732   0.776  15.803 -0.4771 -0.0949  0.0423
10636TIP3    H253400   6.866   0.844  15.819 -0.7718  0.3543  0.6664
10637TIP3   OH253401   1.046   3.373   0.607  0.2899 -0.2290  0.1134
10637TIP3    H153402   1.019   3.390   0.698 -0.1604 -2.7745  0.4789
10637TIP3    H253403   1.102   3.296   0.612 -2.4626 -2.4749 -2.1377
10638TIP3   OH253404   1.946   6.216  12.355 -0.2597 -0.4139  0.8307
10638TIP3    H153405   1.949   6.164  12.435  0.2015 -1.7355 -0.0229
10638TIP3    H253406   1.958   6.152  12.285 -0.6612  0.7239 -0.2936
10639TIP3   OH253407   1.611   3.868  14.849 -0.1639  0.5674  0.3283
10639TIP3    H153408   1.591   3.774  14.846 -1.8621  0.8884  1.1356
10639TIP3    H253409   1.703   3.872  14.876 -0.5599 -0.8247  1.9611
10640TIP3   OH253410   0.140   2.926   3.391 -0.4719  0.7674  0.4505
10640TIP3    H153411   0.102   2.862   3.451 -0.5515 -0.7622 -1.1544
10640TIP3    H253412   0.065   2.973   3.355 -0.6960 -0.4609 -0.7536
10641TIP3   OH253413   3.796   4.666  16.424  0.0494 -0.5753 -0.6256
10641TIP3    H153414   3.858   4.632  16.489  2.0899  0.6525 -1.8868
10641TIP3    H253415   3.745   4.589  16.399  0.0374 -1.3168  1.5167
10642TIP3   OH253416   5.398   6.183  12.944  0.1793  0.1075  0.3363
10642TIP3    H153417   5.304   6.202  12.943  0.6260  2.6036 -1.6316
10642TIP3    H253418   5.428   6.214  13.029 -0.8203 -0.9881  1.0968
10643TIP3   OH253419   3.335   6.349   1.131  0.3438 -0.0682 -0.1971
10643TIP3    H153420   3.322   6.442   1.117 -0.1458  0.0037  0.7180
10643TIP3    H253421   3.254   6.308   1.101 -0.2809 -0.0062  1.3546
10644TIP3   OH253422   3.688   4.316  12.871 -0.5041  0.1632 -0.3657
10644TIP3    H153423   3.696   4.411  12.861  1.1178 -0.0556 -1.3863
10644TIP3    H253424   3.676   4.303  12.965  1.7915  1.2285  0.1027
10645TIP3   OH253425   1.700   1.631  15.088 -0.0680 -0.2235 -0.5569
10645TIP3    H153426   1.661   1.658  15.005 -1.0029 -1.6589 -0.6187
10645TIP3    H253427   1.710   1.536  15.079  2.2010 -0.0518 -0.0020
10646TIP3   OH253428   6.269   2.626   5.807  0.1689 -0.6339  0.1823
10646TIP3    H153429   6.241   2.713   5.778  0.7346 -0.6859 -0.5239
10646TIP3    H253430   6.349   2.642   5.858  0.8800 -0.8261 -0.8387
10647TIP3   OH253431   6.402   6.367  16.818 -0.0621  0.2005  0.1694
10647TIP3    H153432   6.380   6.274  16.807  0.0386  0.2405 -0.3837
10647TIP3    H253433   6.414   6.399  16.729  0.7049  0.5579  0.3996
10648TIP3   OH253434   3.011   4.762   2.549 -0.5455  0.4080 -0.1545
10648TIP3    H153435   3.060   4.737   2.471  1.0830 -0.8692  1.2257
10648TIP3    H253436   3.033   4.694   2.613 -2.9729  0.6568  0.9647
10649TIP3   OH253437   2.867   1.514   4.395  0.0555  0.0881 -0.2679
10649TIP3    H153438   2.850   1.429   4.355  0.3746  0.4604 -1.2121
10649TIP3    H253439   2.963   1.521   4.397  0.0291  0.5150 -0.3804
10650TIP3   OH253440   1.593   0.047   5.118 -0.2785  0.0867  0.2952
10650TIP3    H153441   1.556  -0.037   5.147 -0.0606 -0.2580 -0.4125
10650TIP3    H253442   1.613   0.033   5.025  0.0850  0.8116  0.2669
10651TIP3   OH253443   0.835   4.880   2.691 -0.0428  0.1510 -0.5788
10651TIP3    H153444   0.911   4.841   2.735 -1.6040  0.4406  2.5285
10651TIP3    H253445   0.786   4.805   2.657 -0.5564 -0.3448  1.1957
10652TIP3   OH253446   6.202   3.752   2.196  0.7081  0.0795 -0.3808
10652TIP3    H153447   6.134   3.819   2.204  2.4218  1.9131 -0.7427
10652TIP3    H253448   6.284   3.801   2.192  1.9376 -1.9802 -1.8904
10653TIP3   OH253449   2.987   0.175   1.560  0.3911 -0.0738  0.1004
10653TIP3    H153450   2.908   0.183   1.507 -0.5160  1.8214  1.6419
10653TIP3    H253451   2.956   0.183   1.650  2.2681  0.0369  0.7598
10654TIP3   OH253452   6.748   2.143   0.624 -0.4463  0.3875  0.3304
10654TIP3    H153453   6.678   2.080   0.610  0.1366 -0.2548  0.2996
10654TIP3    H253454   6.782   2.161   0.536 -0.7649  0.9204  0.3143
10655TIP3   OH253455   2.660   3.129  12.295  0.0691 -0.3632  0.3104
10655TIP3    H153456   2.616   3.056  12.250  1.0538 -0.2926 -0.7694
10655TIP3    H253457   2.731   3.154  12.237 -0.1396  1.3507  0.7716
10656TIP3   OH253458   3.826   5.231   1.800 -0.4205 -0.2109  0.5235
10656TIP3    H153459   3.788   5.189   1.723 -1.1568 -1.8922  1.7779
10656TIP3    H253460   3.840   5.160   1.863  0.9043  1.0130  1.6634
10657TIP3   OH253461   2.056   6.121   3.929  0.1467 -0.1381  0.4315
10657TIP3    H153462   2.068   6.103   4.022  0.1931 -3.8014 -0.2343
10657TIP3    H253463   1.967   6.090   3.910 -0.2644  1.5852 -0.5368
10658TIP3   OH253464   2.624   0.137   6.523  0.3348 -0.3692  0.2686
10658TIP3    H153465   2.669   0.055   6.501  0.5625 -0.1301 -0.1686
10658TIP3    H253466   2.665   0.165   6.605  2.3526  0.8453 -1.1175
10659TIP3   OH253467   5.103   0.151  13.926  0.2710 -0.0916  0.1668
10659TIP3    H153468   5.150   0.217  13.978  1.2022 -0.0352 -0.7245
10659TIP3    H253469   5.051   0.202  13.864 -2.6047 -0.0935  2.4753
10660TIP3   OH253470   6.702   2.166  12.921 -0.7400 -0.0798  0.2808
10660TIP3    H153471   6.672   2.122  12.842 -2.0072 -1.6966  1.6348
10660TIP3    H253472   6.626   2.166  12.980  1.0361 -1.6911  2.6808
10661TIP3   OH253473   6.320   3.520   0.573  0.9159 -0.0277  0.3209
10661TIP3    H153474   6.395   3.476   0.532 -0.1580 -1.5371 -0.0526
10661TIP3    H253475   6.249   3.508   0.510  0.1157  0.5846  1.1061
10662TIP3   OH253476   2.828   0.514  11.632 -0.2885 -0.4506 -0.3706
10662TIP3    H153477   2.815   0.421  11.615 -1.1105  0.0249 -2.5610
10662TIP3    H253478   2.884   0.544  11.560 -0.1581  0.7685  0.2263
10663TIP3   OH253479   0.409   1.857  11.601  0.2326  0.3500  0.3176
10663TIP3    H153480   0.458   1.780  11.571 -0.6860 -1.1659  2.6076
10663TIP3    H253481   0.324   1.822  11.628 -1.6640  2.7122 -2.1700
10664TIP3   OH253482   3.562   0.771  16.748  0.3344 -0.1907 -0.0521
10664TIP3    H153483   3.537   0.717  16.823  1.0440  0.0088  0.3397
10664TIP3    H253484   3.652   0.744  16.729  0.0171 -0.5289 -1.0929
10665TIP3   OH253485   6.313   3.193  16.822  0.5415 -0.7317 -0.1707
10665TIP3    H153486   6.324   3.232  16.909 -2.5726 -0.2987  0.1020
10665TIP3    H253487   6.333   3.263  16.761 -1.7280  0.3753  0.2942
10666TIP3   OH253488   4.181   5.993   0.011 -0.0397  0.6265  0.5610
10666TIP3    H153489   4.206   6.083   0.033 -0.0543  0.7662  0.0220
10666TIP3    H253490   4.086   5.993   0.016 -0.0207  0.5532  0.9007
10667TIP3   OH253491   0.694   4.276  10.549  0.1477  0.1042 -0.2676
10667TIP3    H153492   0.610   4.253  10.509  0.9788 -2.7571 -0.4290
10667TIP3    H253493   0.696   4.230  10.632  0.2405  2.7070  1.2403
10668TIP3   OH253494   6.137   0.418   6.655  0.0116 -0.1387  0.3864
10668TIP3    H153495   6.179   0.360   6.719 -0.6972 -0.0764  0.9165
10668TIP3    H253496   6.167   0.506   6.679  1.6179 -0.3447 -0.8323
10669TIP3   OH253497   3.378   1.006  16.148  0.0577  0.2558 -0.4268
10669TIP3    H153498   3.391   1.002  16.243  0.0087  1.3252 -0.3629
10669TIP3    H253499   3.287   0.979  16.135  0.2919 -0.6296 -0.2452
10670TIP3   OH253500   2.093   6.317  14.249 -0.3433  0.5323  0.1938
10670TIP3    H153501   2.034   6.244  14.231 -1.7179  1.7606 -0.5027
10670TIP3    H253502   2.080   6.336  14.342 -1.8955  1.4617 -0.1797
10671TIP3   OH253503   3.320   4.128   5.454  0.1410 -0.1752  0.7603
10671TIP3    H153504   3.249   4.065   5.445  0.4906 -0.7607  1.9434
10671TIP3    H253505   3.384   4.102   5.388 -0.1894 -0.4119  0.5351
10672TIP3   OH253506   5.419   0.279   5.245 -0.3716 -0.1540 -0.1187
10672TIP3    H153507   5.336   0.250   5.207 -0.6771  1.0538 -0.3995
10672TIP3    H253508   5.483   0.268   5.174 -0.8624  1.7036 -0.8865
10673TIP3   OH253509   1.889   1.389   0.287  0.4344 -0.2074  0.1781
10673TIP3    H153510   1.868   1.296   0.299 -0.4068 -0.1582 -0.7360
10673TIP3    H253511   1.892   1.425   0.375  0.3032 -1.0112  0.5173
10674TIP3   OH253512   3.432   3.203  12.118 -0.3002  0.4225 -0.2993
10674TIP3    H153513   3.385   3.262  12.177 -1.0354  0.2028 -0.6675
10674TIP3    H253514   3.365   3.166  12.061  0.4962  1.1999 -1.7885
10675TIP3   OH253515   6.394   4.577  11.429 -0.0216 -0.0119  0.1528
10675TIP3    H153516   6.421   4.665  11.454 -1.7496  0.5332  0.1706
10675TIP3    H253517   6.299   4.583  11.417 -0.5010 -2.3584  2.2301
10676TIP3   OH253518   6.714   0.333  12.650 -0.2123  0.3919 -0.1400
10676TIP3    H153519   6.655   0.258  12.649  0.3313 -0.0420  0.4942
10676TIP3    H253520   6.684   0.387  12.577 -0.3391 -0.6420 -0.8629
10677TIP3   OH253521   2.738   6.594   2.168  0.0682 -0.0949  0.4299
10677TIP3    H153522   2.650   6.592   2.131  0.8821  0.6545 -1.6385
10677TIP3    H253523   2.743   6.676   2.216 -0.4333 -0.2431  0.7302
10678TIP3   OH253524   0.757   0.781   3.986  0.1977  0.0187  0.3131
10678TIP3    H153525   0.740   0.726   3.909 -0.1113  0.7502 -0.1433
10678TIP3    H253526   0.679   0.772   4.040  1.3218 -2.2909  1.6494
10679TIP3   OH253527   1.099   1.029   3.841  0.2048 -0.4412 -0.0744
10679TIP3    H153528   1.164   1.013   3.910  0.2825 -0.1956 -0.0880
10679TIP3    H253529   1.075   1.121   3.853  0.2222 -0.3969 -0.3792
10680TIP3   OH253530   2.732   1.926   3.966  0.3827 -0.2541 -0.0045
10680TIP3    H153531   2.669   1.994   3.991  1.0823 -0.0396  1.2327
10680TIP3    H253532   2.783   1.965   3.895  1.2393  0.8022  1.1595
10681TIP3   OH253533   4.045   3.819  13.887 -0.4732 -0.7270  0.5994
10681TIP3    H153534   3.991   3.749  13.924  0.7760 -2.3309 -0.5680
10681TIP3    H253535   4.002   3.840  13.804 -0.2118 -0.8951  0.4218
10682TIP3   OH253536   4.170   3.712  13.634 -0.0263  0.3167 -0.1179
10682TIP3    H153537   4.154   3.743  13.723 -0.8139 -0.8209  0.1622
10682TIP3    H253538   4.083   3.684  13.603  0.8585 -3.1385  0.2871
10683TIP3   OH253539   0.052   1.540  11.023 -0.3065  0.0968 -0.9348
10683TIP3    H153540   0.141   1.505  11.035  0.2567  0.9064 -2.6485
10683TIP3    H253541   0.000   1.465  10.994 -0.3017 -0.4816  0.5139
10684TIP3   OH253542   3.328   5.050  11.627  0.2648 -0.3002  0.1063
10684TIP3    H153543   3.301   5.050  11.535  1.3462  1.1922 -0.2377
10684TIP3    H253544   3.395   4.982  11.633  0.1480 -0.4431 -0.1948
10685TIP3   OH253545   3.271   5.396  11.446  0.1884  0.1550  0.6029
10685TIP3    H153546   3.302   5.436  11.527  0.6536  0.1692  0.4172
10685TIP3    H253547   3.340   5.336  11.420  0.1561  0.3373  0.0827
10686TIP3   OH253548   6.660   2.061   5.517  0.4465  0.0734  0.7155
10686TIP3    H153549   6.571   2.024   5.516  0.5270 -0.1157  0.3032
10686TIP3    H253550   6.717   1.984   5.521  0.6063  0.1717  0.3127
10687TIP3   OH253551   5.729   1.580  14.284 -0.4126  0.2237 -0.2780
10687TIP3    H153552   5.750   1.492  14.252 -1.5987 -0.2566  0.2312
10687TIP3    H253553   5.795   1.637  14.243  0.4897 -0.9203 -0.4521
10688TIP3   OH253554   6.625   0.705   3.440 -0.1615  0.2205  0.0462
10688TIP3    H153555   6.622   0.703   3.344 -0.8631 -0.8519  0.0684
10688TIP3    H253556   6.717   0.720   3.462  0.2769 -1.1629 -0.7978
10689TIP3   OH253557   5.431   0.198  15.305 -0.1458  0.5314  0.1702
10689TIP3    H153558   5.388   0.282  15.291 -1.3148 -0.2777 -1.2032
10689TIP3    H253559   5.457   0.169  15.217  2.4071  0.5719  0.8715
10690TIP3   OH253560   3.094   5.540  13.701 -0.2338  0.3463  0.5049
10690TIP3    H153561   3.182   5.559  13.732 -0.9476  0.1797  2.7071
10690TIP3    H253562   3.096   5.562  13.608  1.5920  2.1742  0.9483
10691TIP3   OH253563   4.607   3.559   5.818  0.7811 -0.4406 -0.1158
10691TIP3    H153564   4.646   3.581   5.902  0.4908 -0.4957  0.0329
10691TIP3    H253565   4.631   3.632   5.760 -1.4299  1.0088  0.7497
10692TIP3   OH253566   4.040   0.122  15.620  0.1746  0.1576 -0.3441
10692TIP3    H153567   4.123   0.168  15.613  0.1540  0.0950 -1.0155
10692TIP3    H253568   4.041   0.059  15.548 -0.7058  0.5655 -0.7271
10693TIP3   OH253569   6.763   0.552   2.602 -0.0974 -0.1406 -0.3868
10693TIP3    H153570   6.809   0.635   2.617 -1.4347  0.4394  0.5850
10693TIP3    H253571   6.692   0.575   2.542 -1.4985 -0.2359  1.2145
10694TIP3   OH253572   2.636   3.475   5.472  0.2017  0.0546  0.7452
10694TIP3    H153573   2.541   3.480   5.473  0.2289  0.5664  1.1494
10694TIP3    H253574   2.660   3.457   5.564  0.5674  1.4213  0.9260
10695TIP3   OH253575   4.999   3.703   0.766 -0.2256  0.2516 -0.7051
10695TIP3    H153576   5.041   3.699   0.852 -0.1967 -0.5799 -0.7550
10695TIP3    H253577   5.068   3.728   0.706 -0.5720  2.3150 -0.2641
10696TIP3   OH253578   6.023   6.025  10.454 -0.1210  0.0254 -0.1440
10696TIP3    H153579   6.017   5.930  10.464 -0.7503  0.0907  0.1876
10696TIP3    H253580   6.079   6.053  10.526  1.1362 -0.2283 -1.0229
10697TIP3   OH253581   6.330   2.165  17.056 -0.3557  0.1463 -0.5436
10697TIP3    H153582   6.397   2.135  16.995  0.2173  0.8734 -0.2819
10697TIP3    H253583   6.343   2.260  17.062 -1.0762  0.2247 -0.0963
10698TIP3   OH253584   2.405   2.207  16.647 -0.1175  0.3212 -0.0323
10698TIP3    H153585   2.479   2.158  16.612 -0.7292 -0.8761  0.3345
10698TIP3    H253586   2.413   2.294  16.608  0.0636 -0.5382 -1.9507
10699TIP3   OH253587   0.902   5.691  13.607  0.0765 -0.8983 -0.5968
10699TIP3    H153588   0.933   5.635  13.536 -0.2222  0.4238 -1.7983
10699TIP3    H253589   0.956   5.770  13.600 -0.3392 -0.5309  0.2866
10700TIP3   OH253590   4.212   3.949  11.388 -0.1708  0.0382  0.0123
10700TIP3    H153591   4.129   3.957  11.339 -1.1921 -0.5102  1.6228
10700TIP3    H253592   4.186   3.917  11.474  1.2896  3.6623  1.9068
10701TIP3   OH253593   2.704   1.705  12.560  0.8907  0.2345 -0.3753
10701TIP3    H153594   2.736   1.768  12.495 -0.0894  0.7934 -0.3215
10701TIP3    H253595   2.651   1.644  12.509  2.1811 -0.8053 -0.4955
10702TIP3   OH253596   6.343   1.126   0.253  0.0444 -0.2560  0.2110
10702TIP3    H153597   6.270   1.150   0.196  0.1436 -1.2637 -0.3485
10702TIP3    H253598   6.309   1.135   0.341 -1.3294 -2.4219 -0.0554
10703TIP3   OH253599   6.694   6.677   1.373 -0.3852 -0.4268 -0.2037
10703TIP3    H153600   6.723   6.659   1.284  0.3753 -0.5915  0.0708
10703TIP3    H253601   6.627   6.745   1.364  0.3829  0.2560 -0.8163
10704TIP3   OH253602   2.517   3.751  16.874 -0.1159 -0.0412  0.1220
10704TIP3    H153603   2.600   3.753  16.827  0.4613 -1.0427  1.0856
10704TIP3    H253604   2.540   3.769  16.965 -1.1732  1.4237  0.1287
10705TIP3   OH253605   3.701   6.581   3.811 -0.1265 -0.1651 -0.2149
10705TIP3    H153606   3.675   6.547   3.726 -0.1464 -0.9958  0.1146
10705TIP3    H253607   3.681   6.675   3.807 -1.9755 -0.5526 -0.4121
10706TIP3   OH253608   0.254   3.938   1.990  0.2941 -0.3060 -0.0921
10706TIP3    H153609   0.180   3.935   1.930  0.8002  0.3065 -0.7692
10706TIP3    H253610   0.330   3.923   1.935  0.6957 -0.6660  0.5518
10707TIP3   OH253611   0.862   1.504  16.158  0.3208  0.7654 -0.5717
10707TIP3    H153612   0.852   1.412  16.137 -0.0909 -0.0249  2.8476
10707TIP3    H253613   0.936   1.533  16.104  1.0418 -1.7811 -1.0248
10708TIP3   OH253614   6.062   4.774   1.293  0.2362  0.2750  0.1998
10708TIP3    H153615   5.985   4.772   1.236  0.9052 -0.0545 -0.7024
10708TIP3    H253616   6.124   4.714   1.252  0.2808 -0.9177  1.9259
10709TIP3   OH253617   0.899   4.944  14.185 -0.4523 -0.5379 -0.5498
10709TIP3    H153618   0.974   4.891  14.158  0.1834 -0.0216  0.1916
10709TIP3    H253619   0.895   5.014  14.120 -0.5480 -0.8052 -0.8316
10710TIP3   OH253620   2.369   5.100  11.954 -0.0703 -0.1151  0.5988
10710TIP3    H153621   2.387   5.011  11.984  1.1813  0.8178  2.7361
10710TIP3    H253622   2.452   5.131  11.917 -0.7735 -0.1550 -1.0783
10711TIP3   OH253623   4.807   2.195  13.855 -0.5435 -0.6550 -0.2627
10711TIP3    H153624   4.827   2.104  13.834  0.9184 -0.7514  1.3910
10711TIP3    H253625   4.781   2.192  13.947 -1.1886  0.5044 -0.4039
10712TIP3   OH253626   3.875   0.236   2.689 -0.9208 -0.5995 -0.0944
10712TIP3    H153627   3.808   0.304   2.690  0.2436  0.5671  0.2443
10712TIP3    H253628   3.955   0.282   2.662 -0.3193 -2.0134 -0.7212
10713TIP3   OH253629   3.497   3.844   1.657 -0.0202  0.5373  0.5116
10713TIP3    H153630   3.510   3.889   1.740 -1.8737  0.6010  0.7842
10713TIP3    H253631   3.535   3.758   1.669  1.4675  1.2161  0.7658
10714TIP3   OH253632   3.395   0.967   3.697 -0.1018 -0.0592  0.4701
10714TIP3    H153633   3.353   0.968   3.783 -1.6912  1.8064 -0.2977
10714TIP3    H253634   3.328   0.935   3.638 -0.2860  2.3235 -0.6661
10715TIP3   OH253635   5.801   4.547   0.890 -0.3467 -0.6039 -0.2564
10715TIP3    H153636   5.793   4.528   0.983 -0.7608  0.8951  0.0327
10715TIP3    H253637   5.736   4.491   0.848 -1.0348 -0.3748  0.4846
10716TIP3   OH253638   6.354   1.417   6.622  0.2839  0.0319 -0.1404
10716TIP3    H153639   6.381   1.412   6.714  4.0951  0.0633 -1.1605
10716TIP3    H253640   6.346   1.511   6.604 -0.1245  0.0352  0.0438
10717TIP3   OH253641   3.355   4.545   2.105  0.1714 -0.4445 -0.4003
10717TIP3    H153642   3.444   4.539   2.072  0.4261 -1.7499  0.5080
10717TIP3    H253643   3.314   4.462   2.080 -1.0295  0.4491 -1.4759
10718TIP3   OH253644   0.504   0.675   0.892 -0.1312  0.3576 -0.3052
10718TIP3    H153645   0.510   0.750   0.952  0.3468  0.0976 -0.0179
10718TIP3    H253646   0.560   0.608   0.933  0.7217  0.4000 -1.3701
10719TIP3   OH253647   5.940   0.989  16.462 -0.0477 -0.5259  0.5156
10719TIP3    H153648   5.930   1.018  16.553 -0.7086 -1.4868  0.7550
10719TIP3    H253649   5.945   0.894  16.468 -0.0137 -0.5884 -0.4586
10720TIP3   OH253650   3.235   0.902   0.361 -0.6927 -0.2872  0.0532
10720TIP3    H153651   3.330   0.910   0.362 -0.7174  0.1567 -0.9865
10720TIP3    H253652   3.214   0.856   0.442  0.5083 -1.6425 -0.3921
10721TIP3   OH253653   0.992   4.357   3.755  0.2686  0.0891  0.9760
10721TIP3    H153654   0.999   4.452   3.755  1.9325  0.0041  1.7713
10721TIP3    H253655   0.933   4.337   3.827 -0.3799  0.5374  0.5675
10722TIP3   OH253656   5.139   4.918  11.549 -0.2074 -0.4747 -0.6286
10722TIP3    H153657   5.121   4.924  11.642 -1.8961 -2.3678 -0.8031
10722TIP3    H253658   5.063   4.957  11.506 -0.6306 -1.9176 -1.2397
10723TIP3   OH253659   3.959   1.677   5.302  0.5276  0.2000  0.0179
10723TIP3    H153660   3.963   1.598   5.248  1.0400  0.4859 -0.3653
10723TIP3    H253661   3.877   1.719   5.277 -0.0726 -0.5456  0.7006
10724TIP3   OH253662   6.354   6.186   5.041 -0.4395  0.2157 -0.1231
10724TIP3    H153663   6.321   6.131   5.113 -1.9095  0.2782 -0.7345
10724TIP3    H253664   6.366   6.272   5.081  2.1837 -0.5664  0.9256
10725TIP3   OH253665   6.750   4.059  13.747  0.1848  0.2066 -0.3100
10725TIP3    H153666   6.683   4.120  13.779  1.9073  2.2638 -0.5522
10725TIP3    H253667   6.780   4.098  13.664  0.7436 -1.4064 -0.8833
10726TIP3   OH253668   0.352   3.579  12.179  0.1439 -0.1387 -0.2566
10726TIP3    H153669   0.378   3.487  12.183 -0.8261 -0.4782 -1.3041
10726TIP3    H253670   0.396   3.613  12.101  0.9302  0.4337  0.4291
10727TIP3   OH253671   0.255   2.697   4.000 -0.0836  0.1722  0.3606
10727TIP3    H153672   0.284   2.605   4.002 -0.6806 -0.0049  3.0134
10727TIP3    H253673   0.161   2.692   3.982 -0.2117  0.2256  1.0056
10728TIP3   OH253674   4.934   3.441  15.107  0.6816  0.6031  0.8258
10728TIP3    H153675   5.004   3.392  15.064 -0.6285 -0.2880 -0.2923
10728TIP3    H253676   4.934   3.408  15.197  0.6164 -0.5655  0.4014
10729TIP3   OH253677   3.496   6.506   2.735  0.1330  0.3920  0.2568
10729TIP3    H153678   3.410   6.468   2.720  0.6165 -0.3496 -0.6964
10729TIP3    H253679   3.534   6.452   2.804  0.0732  0.3434  0.2512
10730TIP3   OH253680   0.108   3.736  11.384  0.3391  0.4454 -0.1046
10730TIP3    H153681   0.179   3.712  11.324  2.0942  2.5639  1.0479
10730TIP3    H253682   0.141   3.711  11.471  0.1896  2.4852  0.5615
10731TIP3   OH253683   1.775   0.013   3.398 -0.0819 -0.1788  0.0953
10731TIP3    H153684   1.816   0.020   3.312  0.7481 -1.6820  0.3657
10731TIP3    H253685   1.699  -0.044   3.384 -0.7805  0.7336  0.0780
10732TIP3   OH253686   0.442   5.237  13.227 -0.1793 -0.2538 -0.0767
10732TIP3    H153687   0.524   5.194  13.204 -0.8779 -1.0342 -1.1432
10732TIP3    H253688   0.462   5.285  13.307  1.1285 -0.9972  0.0543
10733TIP3   OH253689   4.306   1.024  11.223  0.2834 -0.4609 -0.0860
10733TIP3    H153690   4.341   1.051  11.139 -0.0267 -1.3844 -0.5156
10733TIP3    H253691   4.242   1.091  11.246  0.2310 -0.3170 -0.6652
10734TIP3   OH253692   3.734   4.340  15.774 -0.0747  0.1154 -0.2760
10734TIP3    H153693   3.810   4.317  15.720  0.6858  1.3202  0.2465
10734TIP3    H253694   3.720   4.433  15.755 -1.5604 -0.1548 -0.5284
10735TIP3   OH253695   1.743   2.811  14.925  0.0696  0.3599 -0.1762
10735TIP3    H153696   1.661   2.776  14.890 -0.0733 -0.2701  0.7606
10735TIP3    H253697   1.746   2.902  14.894 -0.4490  0.0680 -1.1131
10736TIP3   OH253698   1.890   4.656  13.568  0.2055  0.1810  0.0818
10736TIP3    H153699   1.814   4.656  13.626 -0.2408  0.6100 -0.4972
10736TIP3    H253700   1.956   4.606  13.616 -0.5461 -0.4784  0.4532
10737TIP3   OH253701   4.570   2.769  13.163  0.0921  0.7313  0.4213
10737TIP3    H153702   4.481   2.802  13.163 -0.0319  0.4223  1.5861
10737TIP3    H253703   4.625   2.847  13.155 -0.1984  1.2844  3.1812
10738TIP3   OH253704   3.260   3.514   5.394 -0.0739 -0.1414  0.1390
10738TIP3    H153705   3.334   3.461   5.363  0.3156  0.1323  0.5827
10738TIP3    H253706   3.235   3.566   5.318 -0.6371 -1.1554 -0.3805
10739TIP3   OH253707   2.865   5.197   3.087 -0.0458 -0.2387  0.2881
10739TIP3    H153708   2.919   5.118   3.087 -0.6465 -0.6542 -0.1230
10739TIP3    H253709   2.904   5.253   3.019 -1.1353 -1.2346 -1.1638
10740TIP3   OH253710   3.169   6.678   2.286 -0.0399  0.0088 -0.3014
10740TIP3    H153711   3.156   6.766   2.251 -1.0037  0.3774  0.9629
10740TIP3    H253712   3.237   6.640   2.230  1.4632  2.0742  0.0699
10741TIP3   OH253713   4.525   6.797   4.775  0.2502  0.1588 -0.4256
10741TIP3    H153714   4.482   6.716   4.803 -1.6448  1.1327 -0.4765
10741TIP3    H253715   4.481   6.821   4.693 -0.5010  2.2116  0.5266
10742TIP3   OH253716   1.093   1.406   0.346 -0.3159 -0.4808  0.0964
10742TIP3    H153717   1.020   1.399   0.284  0.0783  0.9224 -0.5651
10742TIP3    H253718   1.144   1.480   0.312 -0.3358  0.5874  2.3467
10743TIP3   OH253719   2.302   1.506   4.011 -0.3372 -0.2478 -0.3223
10743TIP3    H153720   2.356   1.582   4.035  1.2423 -1.2158 -0.7456
10743TIP3    H253721   2.303   1.505   3.916 -0.6681 -0.5947 -0.3221
10744TIP3   OH253722   6.453   1.424  12.698 -0.0722 -0.4721 -0.4290
10744TIP3    H153723   6.539   1.410  12.738 -0.0348  0.8140 -0.0355
10744TIP3    H253724   6.398   1.355  12.734  0.4241 -0.4120  0.4603
10745TIP3   OH253725   1.459   6.661   5.239 -0.3418  0.0621 -0.3456
10745TIP3    H153726   1.457   6.567   5.258  1.4648 -0.1679 -1.2261
10745TIP3    H253727   1.370   6.690   5.256 -0.7565 -1.6729  0.6394
10746TIP3   OH253728   2.182   2.380  15.218  0.6360 -0.7625 -0.7946
10746TIP3    H153729   2.227   2.373  15.134 -0.1568  1.7668 -1.4581
10746TIP3    H253730   2.174   2.474  15.234  1.1801 -1.1964  2.3409
10747TIP3   OH253731   3.464   2.281   4.114  0.2777 -0.0455 -0.4422
10747TIP3    H153732   3.531   2.341   4.146 -0.6938  0.1643  1.2301
10747TIP3    H253733   3.500   2.194   4.132  0.2188  0.0620  0.1941
10748TIP3   OH253734   0.298   6.100  11.915 -0.3902 -0.7042  0.2195
10748TIP3    H153735   0.315   6.014  11.877  0.0980  0.2113 -1.7166
10748TIP3    H253736   0.357   6.106  11.990 -0.9610 -2.3278  0.8207
10749TIP3   OH253737   3.181   0.042   2.726 -0.5567 -0.1266 -0.0970
10749TIP3    H153738   3.143  -0.038   2.688 -0.2826 -0.4086  0.2172
10749TIP3    H253739   3.124   0.062   2.800  0.6045 -1.2514  1.1289
10750TIP3   OH253740   0.671   5.515  13.090  0.9876 -0.2358 -0.2176
10750TIP3    H153741   0.696   5.515  13.182  0.5060 -3.6186 -0.0043
10750TIP3    H253742   0.575   5.513  13.091  0.9854 -0.5879 -0.7724
10751TIP3   OH253743   1.572   0.021   1.501  0.6133  0.0175  0.0621
10751TIP3    H153744   1.635  -0.012   1.565  1.3722 -1.1749 -1.2777
10751TIP3    H253745   1.613   0.005   1.416 -2.5652 -3.2403 -1.0052
10752TIP3   OH253746   6.146   2.283   1.845  0.0210 -0.1961  0.0397
10752TIP3    H153747   6.070   2.235   1.813 -0.4250  1.3115 -1.2159
10752TIP3    H253748   6.221   2.241   1.802 -0.3695  0.2652 -1.1014
10753TIP3   OH253749   4.122   0.477   5.733 -0.0248  0.5982  0.9133
10753TIP3    H153750   4.078   0.523   5.804  0.4395  1.1171  0.8603
10753TIP3    H253751   4.215   0.485   5.753  0.1210  1.0207  0.0770
10754TIP3   OH253752   3.291   1.644  13.564  0.5742  0.1640 -0.0312
10754TIP3    H153753   3.254   1.722  13.604  2.0042 -0.0886  1.8602
10754TIP3    H253754   3.366   1.675  13.514  0.5029  0.1261 -0.1628
10755TIP3   OH253755   5.103   2.477   4.078 -0.1435 -0.4645  0.3920
10755TIP3    H153756   5.188   2.511   4.106  0.6817 -2.4679  0.3457
10755TIP3    H253757   5.123   2.424   4.001 -1.5530 -0.2774 -0.1113
10756TIP3   OH253758   1.308   4.543   0.399 -0.0898  0.3650  0.0493
10756TIP3    H153759   1.367   4.515   0.470  1.3886  1.2551 -0.8014
10756TIP3    H253760   1.242   4.473   0.394  1.0769 -0.8234  0.8083
10757TIP3   OH253761   4.064   3.523   3.951 -0.0671  0.6098 -0.0221
10757TIP3    H153762   4.029   3.587   3.889  0.4643  2.3796  1.4365
10757TIP3    H253763   4.097   3.576   4.023 -0.7405 -1.3818  1.8175
10758TIP3   OH253764   5.326   0.679  15.613 -0.0096 -1.1003 -0.7998
10758TIP3    H153765   5.325   0.642  15.701 -0.1187  1.8078  0.4865
10758TIP3    H253766   5.418   0.685  15.590  0.1726  0.8746  0.3600
10759TIP3   OH253767   0.958   5.759  15.276 -0.5114  0.4779  0.6212
10759TIP3    H153768   0.933   5.852  15.273 -3.0486 -0.2147 -2.0819
10759TIP3    H253769   0.934   5.730  15.364 -0.9736  2.0547  1.0275
10760TIP3   OH253770   6.014   0.369  13.492  0.8765 -0.2718 -0.2539
10760TIP3    H153771   5.959   0.393  13.566 -1.6009 -2.0083 -1.4703
10760TIP3    H253772   5.957   0.376  13.416  3.3746  1.4984 -2.0695
10761TIP3   OH253773   5.470   3.061  16.604  1.2028 -0.4413  0.0453
10761TIP3    H153774   5.539   3.070  16.539  2.0762 -1.0050  0.8919
10761TIP3    H253775   5.414   2.991  16.570  0.3754  0.7898 -1.2137
10762TIP3   OH253776   0.337   0.067   6.312 -0.3432  0.0749  0.3958
10762TIP3    H153777   0.419   0.067   6.359 -0.4889  1.1720  0.6741
10762TIP3    H253778   0.333  -0.018   6.269  0.0366 -0.7106  1.9155
10763TIP3   OH253779   4.186   6.767  17.144 -0.1982 -0.2107  0.0254
10763TIP3    H153780   4.204   6.745  17.235 -0.8344 -0.7368  0.0296
10763TIP3    H253781   4.272   6.772  17.102  0.0212 -1.4440  0.3159
10764TIP3   OH253782   1.975   0.752  16.870 -0.2086  0.2255  0.0195
10764TIP3    H153783   2.004   0.710  16.789  0.1908  0.8784 -0.1797
10764TIP3    H253784   2.055   0.763  16.922 -0.6566 -1.4677  1.1144
10765TIP3   OH253785   2.330   2.187   5.665  0.0205 -0.3368  0.0516
10765TIP3    H153786   2.352   2.105   5.620  0.8266 -0.2309  0.2368
10765TIP3    H253787   2.244   2.171   5.703 -0.3555 -0.6770 -0.9213
10766TIP3   OH253788   1.542   0.029  11.529 -0.3401 -0.0097 -0.1288
10766TIP3    H153789   1.509   0.006  11.616 -0.0643 -0.1745 -0.0685
10766TIP3    H253790   1.550  -0.055  11.483  1.6915 -0.1590  0.4497
10767TIP3   OH253791   5.525   2.704   5.317 -0.1179  0.0616  0.2456
10767TIP3    H153792   5.527   2.778   5.257 -1.3175  1.1160  1.4733
10767TIP3    H253793   5.459   2.645   5.280  0.1555  0.0472 -0.2175
10768TIP3   OH253794   1.628   6.497   3.087 -0.0632  0.5893  0.2006
10768TIP3    H153795   1.711   6.467   3.051 -0.8991 -0.2434 -1.0772
10768TIP3    H253796   1.606   6.432   3.154  0.0633  0.5418  0.1960
10769TIP3   OH253797   1.227   3.628   4.768 -0.1395 -0.2301 -0.2449
10769TIP3    H153798   1.257   3.558   4.710 -2.1039 -1.9337  0.7413
10769TIP3    H253799   1.133   3.634   4.753  0.0064  2.3878 -0.4683
10770TIP3   OH253800   4.629   3.796  12.936 -0.8079  0.8772  0.2258
10770TIP3    H153801   4.568   3.814  12.865  0.9148  0.0301 -1.4954
10770TIP3    H253802   4.691   3.869  12.933 -1.8851  1.9379  2.2109
10771TIP3   OH253803   2.606   3.853  13.998  1.0592 -0.2864 -0.2633
10771TIP3    H153804   2.695   3.886  14.010 -0.1981  2.6735  1.4314
10771TIP3    H253805   2.585   3.876  13.907  0.6725  2.5593  0.5023
10772TIP3   OH253806   3.808   1.176  17.291 -0.0599  0.2014 -0.0354
10772TIP3    H153807   3.777   1.176  17.382  0.0738 -1.0910  0.0127
10772TIP3    H253808   3.901   1.153  17.298 -0.3453 -1.1537 -0.5911
10773TIP3   OH253809   4.324   2.461  14.575  0.2329  0.4987  0.2638
10773TIP3    H153810   4.384   2.407  14.627 -1.8502  0.0047  2.2347
10773TIP3    H253811   4.265   2.399  14.532  1.5198  0.9440 -2.2380
10774TIP3   OH253812   6.583   5.411   3.327  0.6772  0.0934 -0.3464
10774TIP3    H153813   6.503   5.456   3.298  0.8219  1.3547  1.1350
10774TIP3    H253814   6.552   5.346   3.390  0.4996 -1.7473 -2.2683
10775TIP3   OH253815   5.186   4.084   6.225 -0.3336  0.2782  0.3241
10775TIP3    H153816   5.131   4.083   6.304 -1.7145 -1.7893 -0.6222
10775TIP3    H253817   5.267   4.040   6.252 -0.9777 -0.8282  0.4780
10776TIP3   OH253818   4.752   0.355  11.971  0.1383  0.1513  0.4373
10776TIP3    H153819   4.715   0.411  11.904 -0.9523 -0.5656  0.4249
10776TIP3    H253820   4.676   0.314  12.013  0.8798 -0.8419  0.8429
10777TIP3   OH253821   4.188   4.545   0.012  0.0294  0.6830 -0.0386
10777TIP3    H153822   4.135   4.507   0.082  1.0562 -0.3014  0.2205
10777TIP3    H253823   4.153   4.633   0.000  0.1137  1.0241  2.0276
10778TIP3   OH253824   5.268   2.121  14.084  0.7816  0.1503  0.1143
10778TIP3    H153825   5.334   2.191  14.087 -0.6436  1.5255  0.3003
10778TIP3    H253826   5.295   2.060  14.153  1.0897  1.4301  1.1496
10779TIP3   OH253827   6.720   4.340   1.465 -0.5154  0.0406 -0.1085
10779TIP3    H153828   6.763   4.321   1.548 -0.9676 -1.1401 -0.1399
10779TIP3    H253829   6.775   4.406   1.423  0.7325 -0.7577  0.2757
10780TIP3   OH253830   3.483   4.938  16.470 -0.2859 -0.1593 -0.0959
10780TIP3    H153831   3.478   4.849  16.434  0.0879  0.1794 -1.0061
10780TIP3    H253832   3.496   4.926  16.564 -0.2967 -1.0653 -0.2085
10781TIP3   OH253833   2.321   0.103  16.956 -0.1975  0.5990 -0.4967
10781TIP3    H153834   2.270   0.085  16.877  2.1604  0.7421 -2.1009
10781TIP3    H253835   2.357   0.190  16.942  2.3756 -0.4064 -0.4850
10782TIP3   OH253836   5.892   2.280   4.338  0.3092 -1.2004  0.1370
10782TIP3    H153837   5.873   2.314   4.425 -0.5676 -0.8188 -0.2048
10782TIP3    H253838   5.918   2.356   4.287 -0.0988 -1.2832 -0.1959
10783TIP3   OH253839   4.103   5.992  15.169 -0.0288 -0.4048 -0.0868
10783TIP3    H153840   4.105   6.055  15.097 -0.4473 -0.9330 -0.5676
10783TIP3    H253841   4.145   5.914  15.134  3.6339  0.6886  1.6099
10784TIP3   OH253842   6.606   4.077  16.368  0.0635  0.1025  0.8131
10784TIP3    H153843   6.679   4.060  16.309 -1.0584 -0.1200 -0.5209
10784TIP3    H253844   6.568   3.991  16.385 -0.1251  0.2634  1.2222
10785TIP3   OH253845   2.128   5.188  12.019 -0.0407 -0.5128 -0.2798
10785TIP3    H153846   2.095   5.119  12.077 -0.0869 -0.1502  0.1245
10785TIP3    H253847   2.219   5.163  12.003 -0.0112 -0.5848 -0.0110
10786TIP3   OH253848   2.866   4.707  14.434 -0.0847  0.8144  0.3331
10786TIP3    H153849   2.938   4.657  14.395 -0.5914 -0.4623  0.9960
10786TIP3    H253850   2.830   4.758  14.362 -1.2201 -1.7534 -0.9864
10787TIP3   OH253851   1.603   1.695   3.832  0.0698  0.3133  0.5132
10787TIP3    H153852   1.611   1.782   3.870 -2.1491 -0.1935  2.2193
10787TIP3    H253853   1.512   1.688   3.805  0.5532 -0.9981 -0.9024
10788TIP3   OH253854   0.541   6.469  16.056 -0.0873  0.0955  0.0697
10788TIP3    H153855   0.563   6.392  16.003 -0.2348  0.6498 -0.8102
10788TIP3    H253856   0.497   6.434  16.133  0.3988 -0.7444 -0.0293
10789TIP3   OH253857   2.534   2.655   1.767  0.6179 -0.1911  0.4837
10789TIP3    H153858   2.539   2.737   1.718  0.4419 -0.6238 -0.2613
10789TIP3    H253859   2.588   2.670   1.845 -1.0614  1.3597  1.3994
10790TIP3   OH253860   4.210   3.769  15.067  0.3295 -0.4274  0.1734
10790TIP3    H153861   4.302   3.745  15.061  0.0159 -2.0865  1.4484
10790TIP3    H253862   4.163   3.688  15.045 -0.8057  0.2556  0.0403
10791TIP3   OH253863   3.046   2.516  16.810 -0.7283  0.3206  0.0734
10791TIP3    H153864   3.049   2.560  16.895  1.1413 -0.4921  0.4665
10791TIP3    H253865   2.954   2.519  16.783 -0.8413  3.3521  0.6579
10792TIP3   OH253866   6.075   2.976  13.473  0.0577 -0.2139 -0.2117
10792TIP3    H153867   6.053   3.067  13.492  0.7277 -0.1901  0.4685
10792TIP3    H253868   6.159   2.982  13.426  0.6992 -0.5431  0.8727
10793TIP3   OH253869   2.787   1.692   2.441  0.3987  0.3550 -0.6909
10793TIP3    H153870   2.720   1.749   2.478 -0.2900  0.5635 -2.2066
10793TIP3    H253871   2.834   1.657   2.517 -1.8140 -0.2557  0.4473
10794TIP3   OH253872   4.758   1.183   1.058  0.7555  0.0619  0.0139
10794TIP3    H153873   4.764   1.238   1.136  0.1761 -1.3850  1.0847
10794TIP3    H253874   4.669   1.147   1.060  1.0285 -0.6870 -0.8373
10795TIP3   OH253875   2.962   5.170   1.094 -0.1332 -0.5096  0.1416
10795TIP3    H153876   2.880   5.144   1.137  0.1456  1.1116  1.7095
10795TIP3    H253877   2.960   5.266   1.096  2.5808 -0.4414  1.7505
10796TIP3   OH253878   5.630   5.514   0.324 -0.3067  0.4106  0.0953
10796TIP3    H153879   5.637   5.575   0.398 -1.3097  1.1683 -0.4215
10796TIP3    H253880   5.660   5.430   0.359 -2.4465  0.3493  1.8867
10797TIP3   OH253881   0.105   2.071  13.918  0.0875  0.3461  0.0430
10797TIP3    H153882   0.125   1.982  13.889  2.5258  1.3773 -1.6018
10797TIP3    H253883   0.029   2.097  13.866 -0.8460 -0.8552  0.7638
10798TIP3   OH253884   0.861   1.544   4.141 -0.1138  0.0571 -0.5123
10798TIP3    H153885   0.856   1.622   4.197  0.6830 -0.5968  0.4859
10798TIP3    H253886   0.776   1.501   4.152 -0.7498  1.0371 -1.4608
10799TIP3   OH253887   3.772   1.158  14.608 -0.0162 -0.0117  0.1101
10799TIP3    H153888   3.830   1.090  14.572  1.9590  1.1381  1.0339
10799TIP3    H253889   3.698   1.160  14.548  0.0294 -2.7545 -0.1305
10800TIP3   OH253890   6.102   6.046   4.684  0.2487 -0.2712 -0.3535
10800TIP3    H153891   6.175   5.991   4.656  0.7484  0.3682 -0.3484
10800TIP3    H253892   6.145   6.123   4.722 -0.4345  0.2277 -0.5871
10801TIP3   OH253893   5.184   2.667   2.591  0.9199 -0.0542  0.4459
10801TIP3    H153894   5.160   2.760   2.599  2.0714  0.1886  1.0700
10801TIP3    H253895   5.273   2.668   2.556 -0.2801 -0.9750 -2.8852
10802TIP3   OH253896   4.632   3.813   0.546  0.5108 -0.2638 -0.2546
10802TIP3    H153897   4.646   3.858   0.629  1.3637 -0.5972 -0.2101
10802TIP3    H253898   4.548   3.845   0.515  1.5723  2.1603 -0.7240
10803TIP3   OH253899   5.127   6.811   2.247  0.2420  0.3353  0.1107
10803TIP3    H153900   5.081   6.735   2.282 -0.1535  0.3329 -0.4195
10803TIP3    H253901   5.198   6.774   2.194 -2.1192  0.2820 -3.1246
10804TIP3   OH253902   3.078   5.120   1.851  0.3456 -0.0932 -0.2173
10804TIP3    H153903   3.062   5.033   1.815  0.5827  0.0688 -0.7236
10804TIP3    H253904   3.020   5.126   1.927 -0.3482 -0.3418 -0.7229
10805TIP3   OH253905   4.509   0.751   0.958  0.3275  0.5613  0.7382
10805TIP3    H153906   4.564   0.829   0.945  3.3018 -1.6343 -0.3214
10805TIP3    H253907   4.492   0.720   0.869  0.9712 -1.2058  1.2216
10806TIP3   OH253908   5.198   2.432   1.937  0.4806 -0.0019 -0.2375
10806TIP3    H153909   5.277   2.421   1.885  0.1971 -0.3833 -0.5885
10806TIP3    H253910   5.168   2.521   1.918  1.1335  0.3404  0.3246
10807TIP3   OH253911   1.707   3.814   0.344 -0.5802  0.1841 -0.1043
10807TIP3    H153912   1.759   3.847   0.270  1.0029 -1.3122  0.2950
10807TIP3    H253913   1.696   3.890   0.401 -1.8972  1.3717 -1.9029
10808TIP3   OH253914   1.397   5.484  14.686  0.4299 -0.3210 -0.2907
10808TIP3    H153915   1.391   5.393  14.655 -0.1244 -0.2816 -0.3052
10808TIP3    H253916   1.358   5.482  14.773  1.0905 -0.2401  0.0073
10809TIP3   OH253917   3.833   3.406  15.527  0.6664  0.5887  0.3530
10809TIP3    H153918   3.752   3.406  15.476  0.7167  0.5640  0.2728
10809TIP3    H253919   3.806   3.429  15.616  0.3176 -1.2475  0.7360
10810TIP3   OH253920   5.547   2.627   1.401 -0.2675  0.1065 -0.3939
10810TIP3    H153921   5.582   2.704   1.446  1.3339 -0.1976 -1.0700
10810TIP3    H253922   5.484   2.662   1.339 -0.4726  0.7620  0.1764
10811TIP3   OH253923   0.193   1.178  13.066  0.5370 -0.4853  0.4422
10811TIP3    H153924   0.145   1.260  13.084 -0.7446 -0.7932 -1.4152
10811TIP3    H253925   0.280   1.207  13.040 -0.1029  0.3480 -0.8440
10812TIP3   OH253926   2.385   4.342  14.445  0.1341 -0.0470 -0.5858
10812TIP3    H153927   2.400   4.431  14.412  2.2324  0.5342  1.7627
10812TIP3    H253928   2.460   4.324  14.500 -1.2355 -2.5717  0.5519
10813TIP3   OH253929   5.889   2.866  13.709 -0.1930 -0.0004 -0.4104
10813TIP3    H153930   5.872   2.890  13.618 -0.6881  0.1357 -0.2840
10813TIP3    H253931   5.973   2.907  13.729  0.1571 -0.4488 -0.9577
10814TIP3   OH253932   2.178   6.279  13.931  0.3008 -0.2224  0.0273
10814TIP3    H153933   2.149   6.263  13.842  0.3605 -1.0608  0.1584
10814TIP3    H253934   2.098   6.303  13.979 -0.0035 -1.4841  0.1470
10815TIP3   OH253935   5.389   3.485   3.869 -0.2415  0.4116 -0.1252
10815TIP3    H153936   5.417   3.500   3.959  0.2797  0.7312 -0.3419
10815TIP3    H253937   5.463   3.514   3.815  0.3974 -2.0363 -0.5902
10816TIP3   OH253938   5.222   0.371   6.430  0.0724  0.0393 -0.5415
10816TIP3    H153939   5.160   0.324   6.375  0.1655  0.6232 -1.1444
10816TIP3    H253940   5.304   0.324   6.421  0.2981  0.6144 -1.5522
10817TIP3   OH253941   1.932   1.768   5.139 -0.2740 -0.7941 -0.5107
10817TIP3    H153942   1.913   1.811   5.223 -1.7053 -0.4100 -1.0097
10817TIP3    H253943   1.931   1.674   5.160 -1.6751 -0.7469 -0.2783
10818TIP3   OH253944   1.774   2.891  12.750 -0.0235  0.1943 -0.3880
10818TIP3    H153945   1.711   2.916  12.817  2.8510 -1.0298  2.9265
10818TIP3    H253946   1.776   2.796  12.753  1.2152  0.1776 -1.1557
10819TIP3   OH253947   2.729   2.129   5.435  0.1724 -0.7534  0.3907
10819TIP3    H153948   2.660   2.075   5.396 -0.1947 -0.3407  0.4781
10819TIP3    H253949   2.783   2.155   5.360  0.0950 -0.8705  0.2929
10820TIP3   OH253950   2.940   5.438   1.845  0.5786 -0.0808  0.1017
10820TIP3    H153951   2.969   5.394   1.925  2.9071 -2.9716 -2.2216
10820TIP3    H253952   3.021   5.458   1.798 -0.7616  1.0166 -1.7974
10821TIP3   OH253953   4.578   4.570  14.249 -0.3916  0.1874  0.1453
10821TIP3    H153954   4.504   4.630  14.251  0.7282  1.5615  1.5390
10821TIP3    H253955   4.655   4.627  14.244  0.7510 -1.0492  2.8975
10822TIP3   OH253956   2.834   3.447   1.196  0.4121  0.1033 -0.2717
10822TIP3    H153957   2.905   3.471   1.255  0.4921 -0.3171 -0.1954
10822TIP3    H253958   2.754   3.458   1.249  0.4142  0.6964 -0.3977
10823TIP3   OH253959   1.852   3.227   0.678  0.3689  0.1915  0.3159
10823TIP3    H153960   1.918   3.246   0.611 -0.2824  1.9611  0.1508
10823TIP3    H253961   1.770   3.220   0.630 -0.1912  2.0315  0.9683
10824TIP3   OH253962   6.768   4.941  12.272  0.1350 -0.2794 -0.0702
10824TIP3    H153963   6.677   4.928  12.297  0.0664  1.3443  0.5592
10824TIP3    H253964   6.765   4.968  12.180  0.0098 -0.6224 -0.1664
10825TIP3   OH253965   1.698   3.392   3.818  0.0812 -0.4975 -0.0045
10825TIP3    H153966   1.685   3.299   3.797 -0.5113 -0.2181 -0.9048
10825TIP3    H253967   1.642   3.407   3.894  0.9351 -1.1093  0.7582
10826TIP3   OH253968   2.418   4.405   3.108 -0.1681  0.0896 -0.0126
10826TIP3    H153969   2.356   4.424   3.178 -1.2362  0.8430 -1.1381
10826TIP3    H253970   2.406   4.311   3.091  0.1803 -0.1222  0.8832
10827TIP3   OH253971   0.493   1.481   3.688 -0.0512  0.1913  0.4537
10827TIP3    H153972   0.560   1.471   3.756  0.3762  1.2761  0.2005
10827TIP3    H253973   0.429   1.412   3.707  1.0789 -0.7931  0.7552
10828TIP3   OH253974   0.579   0.022   2.271 -0.7966  0.0930  0.5048
10828TIP3    H153975   0.649   0.068   2.226 -1.0533 -0.8661 -0.9119
10828TIP3    H253976   0.553   0.081   2.342 -0.7954  1.8812 -0.9572
10829TIP3   OH253977   3.216   6.698  10.601 -0.1915 -0.2291 -0.0241
10829TIP3    H153978   3.311   6.697  10.612 -0.2171 -3.0532  0.5193
10829TIP3    H253979   3.193   6.606  10.585 -2.8332  0.4031 -0.1530
10830TIP3   OH253980   5.349   6.464   1.855  0.7154  0.1473 -0.0778
10830TIP3    H153981   5.291   6.524   1.809  0.0223  0.8166  1.6214
10830TIP3    H253982   5.437   6.492   1.831  0.3759 -0.7123 -2.4678
10831TIP3   OH253983   0.372   5.579  12.845 -0.2168  1.0516  0.0235
10831TIP3    H153984   0.433   5.509  12.822 -2.7656 -1.3363  0.2984
10831TIP3    H253985   0.389   5.595  12.938 -1.3219 -0.9744  0.5921
10832TIP3   OH253986   2.594   0.554  13.631 -0.1661  0.0701  0.4915
10832TIP3    H153987   2.569   0.465  13.657  0.8790 -0.7747 -1.2886
10832TIP3    H253988   2.687   0.547  13.609 -0.6725  0.9956 -2.1417
10833TIP3   OH253989   3.853   1.194  11.403 -0.0991 -0.4755 -0.8901
10833TIP3    H153990   3.802   1.198  11.322 -0.6360 -1.0355 -0.5862
10833TIP3    H253991   3.794   1.228  11.470 -0.5976 -2.4563 -0.2899
10834TIP3   OH253992   2.415   4.839  15.376 -0.3160  0.7321  0.1517
10834TIP3    H153993   2.347   4.778  15.405 -0.7831  0.1685 -2.1110
10834TIP3    H253994   2.417   4.906  15.445 -2.5746  0.3007  0.6795
10835TIP3   OH253995   3.420   2.022  14.268 -0.5023  0.2793  0.1967
10835TIP3    H153996   3.404   2.026  14.174 -3.2221  0.7499  0.6619
10835TIP3    H253997   3.406   1.931  14.291  2.7183 -0.4135 -0.2202
10836TIP3   OH253998   4.158   3.193  16.478 -0.2585  0.6381  0.0349
10836TIP3    H153999   4.182   3.167  16.567 -0.1861 -1.3493 -0.5414
10836TIP3    H254000   4.101   3.123  16.447 -1.8253  2.2542 -0.8315
10837TIP3   OH254001   6.141   4.201  15.424 -0.0656  0.1800  0.1958
10837TIP3    H154002   6.079   4.263  15.385 -0.3953  0.5170  1.2413
10837TIP3    H254003   6.200   4.256  15.476 -0.0289 -0.3359  0.6987
10838TIP3   OH254004   3.921   5.142  13.662  0.3511 -0.2138  0.0780
10838TIP3    H154005   3.944   5.081  13.732 -2.3034 -1.2303  0.1066
10838TIP3    H254006   3.847   5.192  13.696  0.1419  0.4717 -1.3341
10839TIP3   OH254007   3.618   3.502  13.263  0.4323 -0.5065  0.2624
10839TIP3    H154008   3.596   3.424  13.314  1.3874 -0.3734  0.8898
10839TIP3    H254009   3.552   3.566  13.288  0.8719 -0.4562  1.3252
10840TIP3   OH254010   0.614   0.944  12.647  0.8432  0.2682  0.3393
10840TIP3    H154011   0.608   0.850  12.628  2.3853  0.0384  0.8721
10840TIP3    H254012   0.708   0.959  12.661  0.4638  1.6340  1.5187
10841TIP3   OH254013   5.034   5.755   0.733  0.3175  0.0240  0.5531
10841TIP3    H154014   4.948   5.775   0.696  0.0419  0.1990  1.2906
10841TIP3    H254015   5.046   5.662   0.718  0.8228  0.3563 -1.2716
10842TIP3   OH254016   3.911   6.580   0.232 -0.3023 -0.0325  0.3653
10842TIP3    H154017   3.953   6.629   0.303  0.3474  0.9432 -0.6892
10842TIP3    H254018   3.945   6.620   0.152 -3.0916  0.6192 -0.5162
10843TIP3   OH254019   2.056   3.310   5.510 -0.1337  0.4773  0.2003
10843TIP3    H154020   1.985   3.310   5.575 -2.1932 -2.9556 -1.8660
10843TIP3    H254021   2.112   3.237   5.537 -0.1352  0.0361 -0.9535
10844TIP3   OH254022   3.386   1.030   2.693  0.4607 -0.1090 -0.6934
10844TIP3    H154023   3.447   0.985   2.634 -0.4397 -2.3635  0.0613
10844TIP3    H254024   3.300   1.018   2.654  0.2680  1.5613 -0.8287
10845TIP3   OH254025   2.318   3.734  11.838 -0.5861 -0.4990 -0.1452
10845TIP3    H154026   2.354   3.761  11.923 -0.9449 -0.6902  0.0674
10845TIP3    H254027   2.270   3.654  11.857  1.1123 -1.7288 -0.9112
10846TIP3   OH254028   6.645   5.794   1.175  0.4829  0.3859 -0.3289
10846TIP3    H154029   6.651   5.872   1.120 -2.1908  2.2825  1.9560
10846TIP3    H254030   6.722   5.799   1.233  0.9353  0.6922 -0.9547
10847TIP3   OH254031   6.626   3.056   3.758 -0.2601 -0.4579 -0.2952
10847TIP3    H154032   6.629   3.087   3.848 -1.4467 -1.7096  0.1851
10847TIP3    H254033   6.717   3.062   3.728  0.0713  0.3700  0.8288
10848TIP3   OH254034   6.415   3.190  13.858 -0.0591 -0.3149 -0.4051
10848TIP3    H154035   6.421   3.161  13.949  0.6072  1.5920  0.1776
10848TIP3    H254036   6.491   3.152  13.815 -0.2640 -1.0532 -0.1169
10849TIP3   OH254037   2.526   1.522  16.537  0.3676 -0.3184 -0.0389
10849TIP3    H154038   2.438   1.513  16.501  0.6621  0.3595 -0.9356
10849TIP3    H254039   2.538   1.616  16.548  1.0003 -0.4018  0.0305
10850TIP3   OH254040   5.147   5.720   1.473  0.2880  0.9279  0.2703
10850TIP3    H154041   5.065   5.732   1.520  0.0604  0.8712 -0.1131
10850TIP3    H254042   5.200   5.665   1.531 -0.1955  0.4089  0.2130
10851TIP3   OH254043   0.892   6.760   4.113 -0.1242  0.5883  0.6265
10851TIP3    H154044   0.948   6.715   4.049  0.0180 -0.1306  1.2520
10851TIP3    H254045   0.908   6.853   4.096  1.7118  0.3978  1.1804
10852TIP3   OH254046   2.962   6.529  15.426 -0.5669 -0.1796  0.4491
10852TIP3    H154047   2.999   6.565  15.345 -0.3772 -1.3204  0.0191
10852TIP3    H254048   2.983   6.593  15.493  0.1627  0.2863 -0.2221
10853TIP3   OH254049   4.928   3.607  13.675 -0.0638  0.4988  0.1600
10853TIP3    H154050   4.999   3.641  13.621  0.0374  0.0140 -0.0105
10853TIP3    H254051   4.871   3.562  13.613 -0.2533  0.4449  0.3743
10854TIP3   OH254052   3.428   1.446  15.423 -0.2091 -0.2844  0.0226
10854TIP3    H154053   3.428   1.351  15.420  1.2138 -0.3288  0.8121
10854TIP3    H254054   3.378   1.473  15.346  1.9799 -1.6334 -1.9349
10855TIP3   OH254055   3.509   0.319  13.216 -0.1316  0.2390  0.1780
10855TIP3    H154056   3.455   0.263  13.271 -2.0485 -1.1728 -2.9685
10855TIP3    H254057   3.447   0.357  13.153  2.0832  1.0844 -1.5486
10856TIP3   OH254058   2.777   5.377   6.024  0.1723  0.0378 -0.1666
10856TIP3    H154059   2.747   5.347   5.938 -1.9995  2.9080 -0.4865
10856TIP3    H254060   2.869   5.349   6.028 -0.3112 -2.0492 -2.4954
10857TIP3   OH254061   6.074   1.870   4.838  0.7091  0.1936  0.7838
10857TIP3    H154062   6.052   1.814   4.912  0.0541  1.7302  1.7813
10857TIP3    H254063   5.994   1.919   4.821  0.7354 -0.4163 -1.2110
10858TIP3   OH254064   0.895   5.123   6.586 -0.4611  0.7918  0.1080
10858TIP3    H154065   0.826   5.065   6.618 -0.6636 -0.2034 -2.0628
10858TIP3    H254066   0.961   5.064   6.550  0.1562  1.8539 -0.5210
10859TIP3   OH254067   0.911   1.525  13.161  0.0016 -0.7146 -0.4441
10859TIP3    H154068   0.972   1.452  13.147  0.7810  0.1094 -1.3990
10859TIP3    H254069   0.914   1.541  13.256  0.3511 -1.4705 -0.3251
10860TIP3   OH254070   6.302   5.021  16.105 -0.3103  0.2520 -0.7534
10860TIP3    H154071   6.333   4.977  16.184 -0.3061  0.6282 -0.5432
10860TIP3    H254072   6.379   5.068  16.073  0.0037 -0.8718 -1.6549
10861TIP3   OH254073   1.624   6.261   1.409 -0.3406  1.0232 -0.5535
10861TIP3    H154074   1.664   6.303   1.332  3.6446 -0.8520  0.3678
10861TIP3    H254075   1.655   6.171   1.405 -1.8014  0.3638  2.1728
10862TIP3   OH254076   1.098   4.822  12.867 -0.1040  0.1434 -0.3387
10862TIP3    H154077   1.015   4.835  12.822 -0.4588 -0.9575 -0.0219
10862TIP3    H254078   1.109   4.901  12.920 -0.4714  0.7188 -1.1118
10863TIP3   OH254079   0.538   2.766   2.629 -0.2805  0.1792 -0.4995
10863TIP3    H154080   0.589   2.688   2.606  0.5599  0.7126 -0.4456
10863TIP3    H254081   0.601   2.838   2.626 -1.2903  1.0299 -1.5902
10864TIP3   OH254082   1.295   0.027   1.413 -0.0718 -0.0251 -0.2944
10864TIP3    H154083   1.346  -0.045   1.451  0.7995 -0.1919 -1.7310
10864TIP3    H254084   1.205   0.009   1.439  0.3905 -0.6112  0.9319
10865TIP3   OH254085   2.449   5.895   3.100 -0.1604 -0.4590 -0.4854
10865TIP3    H154086   2.515   5.955   3.136 -0.9513 -0.1684  0.5086
10865TIP3    H254087   2.366   5.926   3.136 -0.9750 -0.2000 -2.5637
10866TIP3   OH254088   6.278   2.894   5.218  0.1945  0.5213  0.0081
10866TIP3    H154089   6.187   2.878   5.192  0.4128  0.2515 -0.6110
10866TIP3    H254090   6.276   2.898   5.313 -0.7961  2.5074 -0.0717
10867TIP3   OH254091   0.903   2.946   4.763  0.1152 -0.3987  0.2849
10867TIP3    H154092   0.971   2.925   4.827 -0.7421 -1.3988  0.8712
10867TIP3    H254093   0.933   3.028   4.723  1.8118 -0.9890  0.3112
10868TIP3   OH254094   4.543   6.002  15.639  0.4332 -0.1522 -0.3360
10868TIP3    H154095   4.585   6.088  15.648  1.2967 -0.5406 -0.5263
10868TIP3    H254096   4.597   5.944  15.693 -0.9515 -0.3130  0.8899
10869TIP3   OH254097   2.508   1.640   3.389 -0.1692 -0.4152  0.0703
10869TIP3    H154098   2.503   1.552   3.427 -0.1579 -0.5666 -0.2699
10869TIP3    H254099   2.427   1.647   3.337 -0.1012 -0.2807 -0.0165
10870TIP3   OH254100   1.398   2.413   5.733  0.4891  0.0324  0.1917
10870TIP3    H154101   1.382   2.400   5.640  1.6501  0.2946 -0.0423
10870TIP3    H254102   1.469   2.352   5.754  0.4046  0.1589  0.8491
10871TIP3   OH254103   3.657   0.335  15.866 -0.7736 -0.2028 -0.1868
10871TIP3    H154104   3.587   0.270  15.860 -1.1609  0.2565 -0.6411
10871TIP3    H254105   3.717   0.312  15.795 -0.6592 -0.3605 -0.0393
10872TIP3   OH254106   4.692   1.840  14.862  0.5270 -0.2413  0.0819
10872TIP3    H154107   4.687   1.744  14.868  0.7706 -0.2919 -0.5292
10872TIP3    H254108   4.612   1.871  14.903  0.7025 -0.6949  0.7760
10873TIP3   OH254109   0.736   2.187  15.726 -0.4356  0.1909 -0.0748
10873TIP3    H154110   0.807   2.218  15.781 -0.9707  0.9330  0.2061
10873TIP3    H254111   0.737   2.245  15.650  1.4992 -1.9821 -1.7942
10874TIP3   OH254112   1.482   5.775  14.541  0.0695 -0.2784 -0.4168
10874TIP3    H154113   1.508   5.866  14.523 -0.3673 -0.4343 -1.9048
10874TIP3    H254114   1.406   5.783  14.599  1.4309  0.2403  1.3535
10875TIP3   OH254115   0.427   3.685  11.694  0.2837 -0.1342 -0.4981
10875TIP3    H154116   0.428   3.758  11.633 -0.0734 -0.9906 -1.5516
10875TIP3    H254117   0.453   3.609  11.641 -0.1810 -0.9126  0.3716
10876TIP3   OH254118   2.408   5.275  12.196 -0.5409 -0.7666 -0.1314
10876TIP3    H154119   2.371   5.205  12.142 -0.9066 -0.9995  0.4262
10876TIP3    H254120   2.341   5.292  12.263  0.2820 -1.0453  0.7577
10877TIP3   OH254121   6.655   6.403   2.387 -0.3150 -0.1530  0.4307
10877TIP3    H154122   6.675   6.460   2.462  0.4741 -0.3707  0.3827
10877TIP3    H254123   6.565   6.428   2.362 -0.2522  0.5487  0.8807
10878TIP3   OH254124   0.652   3.060  12.925 -0.3183 -0.3109  0.0568
10878TIP3    H154125   0.655   3.112  12.844  1.0792 -0.9890 -0.3577
10878TIP3    H254126   0.616   3.119  12.990 -0.4908  0.5900 -0.8395
10879TIP3   OH254127   1.852   3.380   4.346 -0.3476  0.1799  0.1969
10879TIP3    H154128   1.902   3.437   4.405 -0.7410  0.4550  0.2686
10879TIP3    H254129   1.878   3.291   4.369  0.0813  0.3235  0.2599
10880TIP3   OH254130   5.650   2.127  16.652  0.5284  0.1589 -0.3674
10880TIP3    H154131   5.606   2.085  16.578  4.0364  0.6359 -2.9036
10880TIP3    H254132   5.711   2.061  16.685  1.0576  0.9122  0.1923
10881TIP3   OH254133   5.451   2.043   0.020  0.1029 -0.3770  0.4693
10881TIP3    H154134   5.497   2.081  -0.054  1.0368 -1.8241  0.2841
10881TIP3    H254135   5.445   2.114   0.084  1.2112  0.2689 -0.1366
10882TIP3   OH254136   3.608   5.090  11.117 -0.6380  0.5100  0.6032
10882TIP3    H154137   3.568   5.045  11.042 -0.4612 -1.5008  1.7010
10882TIP3    H254138   3.635   5.020  11.176  3.2543  1.8483  0.5734
10883TIP3   OH254139   2.743   6.472   2.869 -0.1360  0.1723 -0.1619
10883TIP3    H154140   2.788   6.464   2.785 -0.8984  0.4191 -0.6040
10883TIP3    H254141   2.808   6.446   2.934  0.2594 -0.6339 -0.8772
10884TIP3   OH254142   2.209   5.579  11.790  0.5004 -0.3935  0.0903
10884TIP3    H154143   2.191   5.579  11.696 -0.3615  0.3523  0.2468
10884TIP3    H254144   2.159   5.505  11.825  1.6466 -1.3025 -0.1878
10885TIP3   OH254145   5.719   3.068  13.152 -0.2337  0.1105  0.4642
10885TIP3    H154146   5.795   3.124  13.171  1.6907 -1.5750 -1.9891
10885TIP3    H254147   5.681   3.050  13.238  1.3455  2.0813  1.6352
10886TIP3   OH254148   2.771   2.676  15.154  0.1591  0.8245 -0.2845
10886TIP3    H154149   2.683   2.710  15.135  0.1008  0.0544 -1.4674
10886TIP3    H254150   2.808   2.739  15.215 -1.5112  0.7249  0.8678
10887TIP3   OH254151   5.775   0.084   3.834 -0.1856  0.4979 -0.0260
10887TIP3    H154152   5.731   0.029   3.769 -2.3534 -0.2768  2.0004
10887TIP3    H254153   5.703   0.130   3.879  1.3036  1.5482  1.3539
10888TIP3   OH254154   1.925   5.834  16.979 -0.2274 -0.2948 -0.3259
10888TIP3    H154155   1.906   5.807  16.889  0.4197 -0.1359 -0.5134
10888TIP3    H254156   1.940   5.929  16.973 -2.1825  0.0649  0.2761
10889TIP3   OH254157   3.358   0.383   4.579  0.0368  0.6711  0.0988
10889TIP3    H154158   3.399   0.469   4.581 -0.5826  0.9880 -0.7108
10889TIP3    H254159   3.273   0.397   4.536 -0.6021 -0.1091  1.0707
10890TIP3   OH254160   1.768   0.413   0.527 -0.3281  0.0370  0.4714
10890TIP3    H154161   1.852   0.372   0.548  0.1728  0.6560 -0.2625
10890TIP3    H254162   1.792   0.501   0.495 -1.1765 -0.1443 -0.7013
10891TIP3   OH254163   6.722   3.389   2.180  0.1332 -0.4222  0.1771
10891TIP3    H154164   6.816   3.374   2.175  0.3622  0.7161  0.9531
10891TIP3    H254165   6.683   3.303   2.164  1.2277 -0.4396 -2.6098
10892TIP3   OH254166   1.003   3.503  11.839 -0.7618 -0.6139 -0.4064
10892TIP3    H154167   1.093   3.516  11.808 -0.8386 -0.1987 -0.4672
10892TIP3    H254168   0.965   3.443  11.775 -0.0533 -2.0703  0.5265
10893TIP3   OH254169   2.758   5.641   5.088 -0.2141  0.4053 -0.1095
10893TIP3    H154170   2.795   5.720   5.050  1.0287  0.9605  2.1708
10893TIP3    H254171   2.833   5.588   5.114 -1.0288 -1.2746 -1.0722
10894TIP3   OH254172   0.214   5.077  12.398 -0.1446  0.8148 -0.3597
10894TIP3    H154173   0.280   5.070  12.329 -0.0468  1.3324 -0.3201
10894TIP3    H254174   0.135   5.038  12.360  0.9192 -2.4100  0.5689
10895TIP3   OH254175   1.708   6.242  16.403 -0.4724  0.0458 -0.2323
10895TIP3    H154176   1.643   6.173  16.418  2.5236 -2.7795  0.4277
10895TIP3    H254177   1.751   6.217  16.322  2.5745 -0.5231  1.4658
10896TIP3   OH254178   3.947   3.933  12.555 -0.0392  0.3790 -0.4780
10896TIP3    H154179   3.927   4.027  12.558  1.5291  0.6876  1.1902
10896TIP3    H254180   4.039   3.929  12.528 -0.4491 -0.7429 -1.7406
10897TIP3   OH254181   2.050   4.773   6.549 -0.6021  0.1338 -0.3071
10897TIP3    H154182   2.047   4.816   6.463 -3.0301  0.6181 -0.0106
10897TIP3    H254183   2.003   4.833   6.607  0.3997 -0.5344  1.2150
10898TIP3   OH254184   2.225   0.790   1.716 -0.5944 -0.2767 -0.6404
10898TIP3    H154185   2.203   0.716   1.660 -1.1592  0.2768 -1.1470
10898TIP3    H254186   2.284   0.844   1.664 -0.8491  0.0641 -0.5762
10899TIP3   OH254187   0.695   3.613  10.666  0.1270 -0.3641 -0.5309
10899TIP3    H154188   0.772   3.647  10.712  0.1770  0.2384 -1.0521
10899TIP3    H254189   0.713   3.631  10.574 -0.4901 -0.5254 -0.6836
10900TIP3   OH254190   5.733   2.289   3.822 -0.1677  1.0275 -0.1446
10900TIP3    H154191   5.693   2.346   3.888  1.2131  2.1008 -0.2185
10900TIP3    H254192   5.680   2.209   3.824 -0.0993  1.0118  2.3099
10901TIP3   OH254193   3.539   3.735  14.767 -0.2935  0.2559 -0.3327
10901TIP3    H154194   3.617   3.782  14.738  0.4302 -1.0506 -0.5352
10901TIP3    H254195   3.566   3.691  14.848 -0.9737  0.2291 -0.1183
10902TIP3   OH254196   2.900   1.037   5.957  0.1084 -0.2203  0.0707
10902TIP3    H154197   2.978   1.066   5.911  1.3838 -2.7793  0.4966
10902TIP3    H254198   2.908   1.074   6.045  0.1083  0.7025 -0.3197
10903TIP3   OH254199   3.269   3.267  17.028 -0.1937  0.1723 -0.0784
10903TIP3    H154200   3.242   3.176  17.016  1.4639  0.0964 -3.6701
10903TIP3    H254201   3.356   3.261  17.067 -0.1813  0.2568 -0.0940
10904TIP3   OH254202   3.234   1.916   3.679  0.4152 -0.0862 -0.3684
10904TIP3    H154203   3.250   1.857   3.753  0.8947  0.2347 -0.2160
10904TIP3    H254204   3.293   1.990   3.693 -1.6639  1.4272  0.5395
10905TIP3   OH254205   2.999   1.978   0.200 -0.1152 -0.4109 -0.0936
10905TIP3    H154206   2.917   1.960   0.246  0.3597  0.0876  0.9597
10905TIP3    H254207   2.975   2.040   0.132 -0.5040  0.2302  0.6183
10906TIP3   OH254208   1.339   1.660  16.024 -0.4759 -0.2406  0.0084
10906TIP3    H154209   1.306   1.604  15.954  0.9803 -0.2846 -0.6694
10906TIP3    H254210   1.289   1.742  16.015 -0.2920 -0.2471 -1.0905
10907TIP3   OH254211   6.034   3.551  11.960  0.2208 -0.2107  0.5187
10907TIP3    H154212   5.971   3.485  11.933 -0.3081 -0.4419  2.2796
10907TIP3    H254213   5.981   3.627  11.984  0.8092  0.8139 -1.2475
10908TIP3   OH254214   2.447   1.357   4.390 -0.0442  0.5174  0.0965
10908TIP3    H154215   2.483   1.439   4.357  0.4728  0.2608  0.0181
10908TIP3    H254216   2.387   1.383   4.460 -0.6803  1.0258 -0.6361
10909TIP3   OH254217   3.446   1.914  12.193 -0.4164  0.3317  0.4050
10909TIP3    H154218   3.506   1.985  12.170  0.8378 -0.4708  1.1402
10909TIP3    H254219   3.483   1.836  12.150 -1.2455 -0.0641  0.3947
10910TIP3   OH254220   3.050   0.344   2.284  0.1022 -0.0866 -0.4592
10910TIP3    H154221   3.071   0.266   2.233 -0.8695 -1.2305  0.8351
10910TIP3    H254222   2.956   0.336   2.302  0.2770  0.6627  0.8727
10911TIP3   OH254223   5.539   4.846  15.287  0.3957  0.1853 -0.7029
10911TIP3    H154224   5.467   4.907  15.303 -0.5282 -1.4225  1.6442
10911TIP3    H254225   5.496   4.760  15.282  1.9543 -0.5789 -1.2269
10912TIP3   OH254226   3.162   0.232   3.698  0.0295  0.2899  0.7484
10912TIP3    H154227   3.184   0.208   3.608 -0.9532 -0.3614  0.6714
10912TIP3    H254228   3.163   0.328   3.698 -0.5153  0.3022 -0.0998
10913TIP3   OH254229   5.129   4.660   1.262 -0.2545  0.0710 -0.2031
10913TIP3    H154230   5.211   4.659   1.310 -0.2080  0.3242 -0.2754
10913TIP3    H254231   5.154   4.674   1.171 -0.4069  0.6893 -0.1544
10914TIP3   OH254232   4.125   3.932   1.674  0.4027 -0.4132  0.1405
10914TIP3    H154233   4.046   3.972   1.638  0.8312  0.4246  0.1281
10914TIP3    H254234   4.197   3.980   1.635  0.9062 -0.5684  0.8585
10915TIP3   OH254235   6.504   5.537  14.270  0.1428 -0.0953  0.8516
10915TIP3    H154236   6.495   5.451  14.310 -2.4265 -1.3993 -2.2985
10915TIP3    H254237   6.424   5.583  14.296  1.0582  1.0506  1.7171
10916TIP3   OH254238   1.669   4.396   4.578  0.3133 -0.0085  0.4996
10916TIP3    H154239   1.692   4.387   4.486  0.3413 -0.4359  0.5475
10916TIP3    H254240   1.594   4.455   4.579  0.3979  0.1004  0.2132
10917TIP3   OH254241   0.433   6.371  13.093 -0.7433 -0.0816  0.2713
10917TIP3    H154242   0.441   6.310  13.019  0.1167 -1.7391  1.6755
10917TIP3    H254243   0.520   6.410  13.101 -1.2396  1.2112 -0.5003
10918TIP3   OH254244   0.558   4.587  11.557  0.0994  0.3509 -0.3436
10918TIP3    H154245   0.623   4.646  11.520  1.5423 -0.3789  0.9507
10918TIP3    H254246   0.568   4.506  11.508  1.7420 -0.4879  1.2923
10919TIP3   OH254247   2.793   5.643   2.813  0.0562  0.3618  0.2727
10919TIP3    H154248   2.700   5.647   2.836  0.6863  0.9143  2.9152
10919TIP3    H254249   2.817   5.733   2.793  0.5870  0.6791  2.1751
10920TIP3   OH254250   3.033   3.421  15.935  0.1965  0.0063 -0.1170
10920TIP3    H154251   2.945   3.444  15.964 -0.1985 -0.8968 -0.5756
10920TIP3    H254252   3.029   3.327  15.917  0.9689  0.1532 -1.1408
10921TIP3   OH254253   6.177   2.701  14.822  0.2585 -0.1830  0.1421
10921TIP3    H154254   6.233   2.678  14.896  1.8971 -1.5529 -1.4539
10921TIP3    H254255   6.208   2.788  14.795  0.7444 -0.3619  0.1072
10922TIP3   OH254256   6.044   3.381  14.820 -0.2743 -0.2654  0.1661
10922TIP3    H154257   5.979   3.341  14.763 -1.4517 -1.2392  2.1038
10922TIP3    H254258   6.024   3.474  14.819 -1.1816 -0.4598  0.0767
10923TIP3   OH254259   0.724   5.242   5.959 -0.3424  0.1481 -0.3343
10923TIP3    H154260   0.630   5.231   5.971 -0.4881 -0.6102 -2.0366
10923TIP3    H254261   0.754   5.280   6.042 -1.8728 -1.0854  0.8231
10924TIP3   OH254262   2.210   2.029  11.816  1.0083  0.1026  0.3128
10924TIP3    H154263   2.183   2.120  11.828  1.0252 -0.0125  1.3009
10924TIP3    H254264   2.286   2.018  11.872  1.5993 -0.2626 -0.5443
10925TIP3   OH254265   0.977   3.518  16.026  0.3471 -0.2194 -0.4178
10925TIP3    H154266   0.918   3.495  15.955  0.8548 -0.8090 -0.6538
10925TIP3    H254267   0.978   3.442  16.084 -0.0913  0.2715  0.2421
10926TIP3   OH254268   0.604   5.147   6.270 -0.3554  0.0799 -0.3227
10926TIP3    H154269   0.558   5.065   6.284 -0.8088  0.2060 -1.0262
10926TIP3    H254270   0.696   5.123   6.261 -0.4575 -0.3203 -0.2683
10927TIP3   OH254271   1.661   6.407   4.476 -0.0713 -0.4628 -0.3374
10927TIP3    H154272   1.682   6.481   4.420  0.4373  1.1806  1.9604
10927TIP3    H254273   1.566   6.397   4.469 -0.0896  0.1395 -0.9644
10928TIP3   OH254274   1.676   4.249   2.229 -0.0375 -0.2443 -0.1700
10928TIP3    H154275   1.671   4.343   2.246  1.4050 -0.3350  0.8537
10928TIP3    H254276   1.586   4.218   2.237 -0.2162  0.6838  1.7131
10929TIP3   OH254277   4.173   2.005   4.984  0.2585 -0.0566 -0.5198
10929TIP3    H154278   4.199   1.939   5.048 -1.1358 -1.1084 -1.0210
10929TIP3    H254279   4.205   1.971   4.900  1.0238  0.7368 -0.5628
10930TIP3   OH254280   2.275   4.593  16.362 -0.2592  0.4274 -0.1212
10930TIP3    H154281   2.219   4.557  16.430  1.5624 -0.2989  1.0480
10930TIP3    H254282   2.218   4.651  16.312 -1.0783  3.0226  3.6126
10931TIP3   OH254283   1.481   1.206  14.033  0.1640 -0.5631  0.2761
10931TIP3    H154284   1.469   1.115  14.061  1.0433 -0.3739  1.2992
10931TIP3    H254285   1.402   1.226  13.982  0.8500 -2.5353 -1.6745
10932TIP3   OH254286   3.790   2.868   1.294  0.2890 -0.4845  0.2380
10932TIP3    H154287   3.799   2.955   1.332  0.4055 -0.8538  1.0657
10932TIP3    H254288   3.698   2.846   1.305  0.1043 -0.1721 -0.6290
10933TIP3   OH254289   5.466   5.656   4.276 -0.4623  0.0050 -0.1708
10933TIP3    H154290   5.446   5.571   4.237  1.0922 -0.3204 -0.2806
10933TIP3    H254291   5.384   5.706   4.267 -1.1190 -1.1767 -0.8869
10934TIP3   OH254292   0.822   0.559   0.639 -0.7344 -0.3282 -0.1621
10934TIP3    H154293   0.836   0.465   0.639 -1.1245 -0.3891  1.0818
10934TIP3    H254294   0.728   0.570   0.652 -0.8729  0.2146 -1.5463
10935TIP3   OH254295   3.653   2.024   3.888  0.0637 -0.0149 -0.1253
10935TIP3    H154296   3.625   2.023   3.979 -1.0661  1.0802 -0.4462
10935TIP3    H254297   3.580   1.986   3.840  0.1579  0.5330 -0.7072
10936TIP3   OH254298   0.126   0.263   4.409 -0.4337 -0.1538 -0.0691
10936TIP3    H154299   0.059   0.246   4.475 -0.6192 -0.0737 -0.2384
10936TIP3    H254300   0.185   0.326   4.451  0.2568 -1.1976  0.5644
10937TIP3   OH254301   6.241   1.734  16.247  0.0079  0.1352  0.4704
10937TIP3    H154302   6.224   1.782  16.328  1.2023  1.9057 -0.3027
10937TIP3    H254303   6.155   1.699  16.221 -0.8889  1.8485  1.0544
10938TIP3   OH254304   6.226   5.330   4.169 -0.2526 -0.3860 -0.0513
10938TIP3    H154305   6.160   5.291   4.225 -0.8299  0.1109 -0.3766
10938TIP3    H254306   6.303   5.275   4.180 -0.1748  0.0460  1.6845
10939TIP3   OH254307   0.880   1.758   5.281  0.1925  0.0523  0.7321
10939TIP3    H154308   0.903   1.746   5.188  0.7025  0.8092  0.7568
10939TIP3    H254309   0.918   1.842   5.304 -1.4120  0.6683  1.1766
10940TIP3   OH254310   2.721   3.331   5.208  0.8522 -0.4332  0.3208
10940TIP3    H154311   2.725   3.235   5.211 -0.3245 -0.5023 -0.1088
10940TIP3    H254312   2.786   3.359   5.273  3.2041 -1.4688 -1.4890
10941TIP3   OH254313   0.317   6.297  11.730  0.2798 -0.4979 -0.1384
10941TIP3    H154314   0.399   6.330  11.765  0.0890  0.9592 -1.0415
10941TIP3    H254315   0.297   6.221  11.785  0.4437  1.1860  2.3626
10942TIP3   OH254316   6.133   2.486   2.316 -0.1293 -0.0557  0.0555
10942TIP3    H154317   6.131   2.497   2.221 -0.5949  1.7561  0.2656
10942TIP3    H254318   6.050   2.525   2.346  0.5060  0.3496  1.3013
10943TIP3   OH254319   5.199   4.546  16.502  0.0949  0.1375  0.1068
10943TIP3    H154320   5.284   4.522  16.466  0.7002 -0.9486  2.2229
10943TIP3    H254321   5.180   4.631  16.461  2.0773  0.2923 -0.5668
10944TIP3   OH254322   5.688   5.495  13.752  0.1052  0.1749 -0.3930
10944TIP3    H154323   5.615   5.447  13.789  1.0310  1.3187  3.1178
10944TIP3    H254324   5.762   5.435  13.759  0.3413  0.4921 -0.1584
10945TIP3   OH254325   4.186   5.848  14.372  0.1294 -0.4806 -0.1573
10945TIP3    H154326   4.215   5.932  14.335  1.4549 -1.5504 -1.6127
10945TIP3    H254327   4.131   5.810  14.303  1.3725 -1.8088 -0.4407
10946TIP3   OH254328   0.779   0.287  17.260 -0.1056 -0.2878  0.4862
10946TIP3    H154329   0.793   0.257  17.350 -1.2799 -0.6007  0.5808
10946TIP3    H254330   0.719   0.222  17.223 -0.7615  0.6252 -0.0753
10947TIP3   OH254331   5.523   1.921  14.310  0.7498  0.1364 -0.3054
10947TIP3    H154332   5.444   1.874  14.283  1.2936 -0.6105 -0.6029
10947TIP3    H254333   5.582   1.914  14.235  1.4844 -0.1791  0.2985
10948TIP3   OH254334   4.884   5.347  15.473 -0.1845 -0.2088 -0.3486
10948TIP3    H154335   4.903   5.256  15.496 -1.0518 -0.3125 -0.0047
10948TIP3    H254336   4.948   5.399  15.523  0.1870 -0.6169 -0.4007
10949TIP3   OH254337   2.537   3.121   0.876  0.5374 -0.2223  0.5099
10949TIP3    H154338   2.446   3.114   0.845  0.8269 -2.8821  0.1705
10949TIP3    H254339   2.530   3.132   0.970 -0.1453 -1.8978  0.6797
10950TIP3   OH254340   0.768   5.550   2.180 -0.1245 -0.1992 -0.4289
10950TIP3    H154341   0.698   5.487   2.197 -1.0841  0.6149 -1.3318
10950TIP3    H254342   0.842   5.518   2.232 -1.3713 -0.6902  1.0804
10951TIP3   OH254343   6.209   3.060   1.266 -0.0502  0.4138 -0.3580
10951TIP3    H154344   6.189   3.077   1.175 -0.1181  0.0634 -0.4119
10951TIP3    H254345   6.143   3.108   1.315 -0.8444 -0.4778 -0.5294
10952TIP3   OH254346   3.830   0.629  16.702 -0.2512 -0.0068 -0.3061
10952TIP3    H154347   3.833   0.555  16.641 -0.7342  0.8494 -1.3854
10952TIP3    H254348   3.912   0.676  16.686 -0.7403  0.6660 -0.8845
10953TIP3   OH254349   0.165   0.915  13.055 -0.7899 -0.1490  0.9295
10953TIP3    H154350   0.169   0.927  12.961 -1.0919  0.3968  0.9858
10953TIP3    H254351   0.156   1.003  13.091 -0.0787 -0.3040  1.5031
10954TIP3   OH254352   5.267   2.802  13.471  0.1553 -0.1747  0.4885
10954TIP3    H154353   5.244   2.711  13.453  0.6914 -0.0070 -1.1915
10954TIP3    H254354   5.283   2.805  13.565 -0.1074 -1.7605  0.5989
10955TIP3   OH254355   6.603   3.411   5.714  0.2859 -0.3314 -0.4950
10955TIP3    H154356   6.651   3.440   5.637  0.9445 -0.5200 -0.1596
10955TIP3    H254357   6.661   3.430   5.787 -0.9840  1.3035  0.1221
10956TIP3   OH254358   0.363   5.746  12.545  0.1529 -0.2051  0.2509
10956TIP3    H154359   0.297   5.769  12.611 -1.1475  0.2819 -1.1888
10956TIP3    H254360   0.375   5.826  12.494  1.1479 -0.5838 -0.1185
10957TIP3   OH254361   3.648   4.093   1.410  0.4745 -0.4796  0.3781
10957TIP3    H154362   3.681   4.176   1.375 -0.0215 -0.0626  0.8909
10957TIP3    H254363   3.554   4.096   1.395  0.7787 -2.2075 -2.1908
10958TIP3   OH254364   6.779   2.125   1.682 -0.6231  0.1419  0.5283
10958TIP3    H154365   6.728   2.062   1.733 -0.0100 -0.2988  0.6024
10958TIP3    H254366   6.868   2.116   1.715 -0.5568  1.1749  0.6660
10959TIP3   OH254367   5.452   0.361   1.437  0.5770 -0.5726  0.5891
10959TIP3    H154368   5.521   0.299   1.413 -0.4172 -2.6712  2.9469
10959TIP3    H254369   5.499   0.435   1.476  1.6841 -0.4859 -0.8659
10960TIP3   OH254370   5.884   0.914  11.714 -0.2533 -0.1249  0.0794
10960TIP3    H154371   5.897   0.897  11.621 -1.9955 -0.2079 -0.1754
10960TIP3    H254372   5.852   0.831  11.749 -2.8708  0.8125  0.0488
10961TIP3   OH254373   2.137   4.757   4.544  0.2235 -0.3894 -0.0363
10961TIP3    H154374   2.047   4.735   4.568 -0.2097 -2.0313 -2.9415
10961TIP3    H254375   2.165   4.685   4.488  2.5302  1.2789 -1.0864
10962TIP3   OH254376   3.831   1.028   3.407 -0.1580  0.2977  0.0174
10962TIP3    H154377   3.771   1.036   3.482  0.0215  0.8420  0.1131
10962TIP3    H254378   3.800   0.952   3.359  1.2159 -1.5900  1.9996
10963TIP3   OH254379   3.828   0.144   1.307  0.2169 -1.0180  0.4595
10963TIP3    H154380   3.838   0.153   1.402 -0.7179  0.3540  0.4279
10963TIP3    H254381   3.891   0.207   1.270 -0.0089 -0.9601  0.1714
10964TIP3   OH254382   4.078   0.544  15.828  0.4619 -0.2492 -0.1949
10964TIP3    H154383   4.150   0.590  15.786 -0.2044  0.9288 -0.0473
10964TIP3    H254384   4.097   0.451  15.812  1.6438  0.0753 -0.7402
10965TIP3   OH254385   5.602   0.466   2.853 -1.0970 -0.2966 -0.0045
10965TIP3    H154386   5.651   0.445   2.933 -0.1785  0.1359 -0.4535
10965TIP3    H254387   5.526   0.408   2.856  0.4418 -2.4073 -0.2913
10966TIP3   OH254388   2.334   4.723  12.281 -0.3308 -0.2289 -0.1650
10966TIP3    H154389   2.276   4.667  12.230 -0.6039  1.1776 -1.4071
10966TIP3    H254390   2.399   4.663  12.317 -0.7814 -1.3900 -1.2628
10967TIP3   OH254391   0.247   5.232  16.188 -0.0449 -0.1656 -0.6211
10967TIP3    H154392   0.213   5.142  16.196  0.5947 -0.4039 -0.5388
10967TIP3    H254393   0.171   5.288  16.203 -0.4061 -0.6946 -0.4657
10968TIP3   OH254394   2.357   3.665  10.862 -0.3539 -0.5199 -0.5612
10968TIP3    H154395   2.288   3.639  10.924  0.7503 -0.4372  0.7278
10968TIP3    H254396   2.410   3.728  10.911  0.7948 -0.7867 -1.4534
10969TIP3   OH254397   1.930   1.398  15.523  0.2175 -0.4839  0.3643
10969TIP3    H154398   1.943   1.316  15.570 -1.1191 -0.6231  0.5046
10969TIP3    H254399   1.856   1.381  15.465 -0.1429  0.6557  0.4766
10970TIP3   OH254400   1.232   3.311  14.212 -0.3027  0.2227 -0.2469
10970TIP3    H154401   1.162   3.319  14.146 -1.0676  1.0165  0.6535
10970TIP3    H254402   1.289   3.242  14.177 -2.5990 -1.8567 -0.0250
10971TIP3   OH254403   4.003   5.487  11.705  0.4112 -0.3164  0.1809
10971TIP3    H154404   4.033   5.452  11.622  1.7809  0.4540  0.3477
10971TIP3    H254405   4.044   5.431  11.772 -0.5437 -0.8249  0.3545
10972TIP3   OH254406   6.245   6.814  16.754  0.3299  0.9968 -0.5290
10972TIP3    H154407   6.279   6.770  16.832 -0.5454  1.5126  0.1422
10972TIP3    H254408   6.249   6.747  16.685 -0.0485  0.1731  0.2489
10973TIP3   OH254409   5.627   2.482   5.111 -0.3270 -0.4064 -0.1722
10973TIP3    H154410   5.614   2.399   5.157 -0.4933 -0.2338  0.0970
10973TIP3    H254411   5.539   2.515   5.097 -0.2511 -0.1734 -0.0933
10974TIP3   OH254412   3.435   1.058   0.574  0.1213  0.4949  0.3642
10974TIP3    H154413   3.504   1.102   0.525 -0.5576 -0.3986 -1.4515
10974TIP3    H254414   3.474   0.975   0.602 -0.6078 -0.6101 -1.8219
10975TIP3   OH254415   4.085   5.712  16.135  0.4339 -0.2204 -0.4174
10975TIP3    H154416   4.136   5.648  16.085  0.4073 -1.3855  1.0291
10975TIP3    H254417   4.002   5.669  16.152  1.0929 -0.5577  2.1715
10976TIP3   OH254418   1.156   3.993   5.426 -0.3752  0.6612  0.0906
10976TIP3    H154419   1.151   4.007   5.520  0.1638 -0.5347  0.3051
10976TIP3    H254420   1.172   4.080   5.389 -1.7331  1.3203  1.0008
10977TIP3   OH254421   1.924   3.591   6.216  0.7377  0.1959  0.8211
10977TIP3    H154422   1.961   3.554   6.136  0.9911 -0.9950  1.4886
10977TIP3    H254423   1.829   3.583   6.204  0.7665  0.2651  0.5340
10978TIP3   OH254424   2.592   4.988   0.203  0.5363  0.2861  0.3616
10978TIP3    H154425   2.672   5.015   0.249  0.5292  0.2685  0.3844
10978TIP3    H254426   2.617   4.985   0.110  0.6478 -0.0244  0.4001
10979TIP3   OH254427   1.707   0.530  12.053 -0.6890  0.8266  0.0436
10979TIP3    H154428   1.661   0.614  12.058 -0.4998  0.9187  0.2447
10979TIP3    H254429   1.762   0.538  11.975  0.2034  1.3318  0.7159
10980TIP3   OH254430   1.848   1.125  12.503 -0.7461  0.1595 -0.1292
10980TIP3    H154431   1.805   1.165  12.428 -0.2874  0.2978 -0.3247
10980TIP3    H254432   1.788   1.056  12.533 -1.6764  1.1815  0.3889
10981TIP3   OH254433   5.214   0.011  15.262 -0.0577  0.6034  0.0369
10981TIP3    H154434   5.202   0.102  15.234  0.3931  0.1745 -1.6180
10981TIP3    H254435   5.281  -0.023  15.203 -0.3539 -0.8669  0.5312
10982TIP3   OH254436   6.224   4.467   1.493 -0.1502  0.2011 -0.1684
10982TIP3    H154437   6.286   4.430   1.431 -1.5844 -2.4575 -0.0623
10982TIP3    H254438   6.240   4.418   1.574 -0.4952  1.4183  0.6449
10983TIP3   OH254439   2.064   4.000   5.301  0.7896 -0.0217 -0.6931
10983TIP3    H154440   1.986   3.990   5.246  2.4970 -0.4602 -3.0815
10983TIP3    H254441   2.125   3.935   5.268  3.3122  2.3350 -0.8472
10984TIP3   OH254442   6.144   2.154  16.304 -0.5248 -0.1864 -0.0467
10984TIP3    H154443   6.086   2.222  16.273  0.3371  0.4366 -0.3129
10984TIP3    H254444   6.169   2.106  16.225  0.3151  0.3347 -0.1025
10985TIP3   OH254445   5.883   0.258  13.762 -0.4609 -0.3877  0.4464
10985TIP3    H154446   5.877   0.354  13.768 -0.7341 -0.1904 -2.2682
10985TIP3    H254447   5.895   0.229  13.852  0.0452  2.2393  1.2676
10986TIP3   OH254448   1.227   0.622  10.396  1.0418  0.0534  0.7373
10986TIP3    H154449   1.146   0.665  10.423  1.4722  1.4024 -0.0635
10986TIP3    H254450   1.288   0.640  10.467  0.8560 -0.3153  0.9894
10987TIP3   OH254451   0.781   5.367   1.968 -0.0343 -0.1465 -0.0305
10987TIP3    H154452   0.793   5.435   2.034  0.7590  0.9533 -1.3035
10987TIP3    H254453   0.699   5.324   1.993 -0.1505  0.7698  1.2092
10988TIP3   OH254454   0.765   1.443  11.922  0.0734 -0.0162  0.6215
10988TIP3    H154455   0.696   1.509  11.924 -0.4004 -0.5175  1.7049
10988TIP3    H254456   0.756   1.401  11.837 -0.5068  0.3890  0.4758
10989TIP3   OH254457   5.124   3.449  15.775 -0.6746 -0.4654  0.0084
10989TIP3    H154458   5.043   3.447  15.724 -0.6688 -1.5208  0.0412
10989TIP3    H254459   5.193   3.464  15.711 -0.9554  1.2115  0.0623
10990TIP3   OH254460   6.012   3.428  12.683  0.5104  0.2974  0.3421
10990TIP3    H154461   5.976   3.422  12.594  0.2433 -0.2707  0.4840
10990TIP3    H254462   6.098   3.468  12.671  0.7094 -0.2910 -0.2381
10991TIP3   OH254463   4.853   6.779  14.735 -0.5179  0.1256  0.1217
10991TIP3    H154464   4.922   6.796  14.671  1.7370 -1.7417  1.9387
10991TIP3    H254465   4.793   6.720  14.690  0.4588 -0.2985 -0.6662
10992TIP3   OH254466   4.393   4.370   1.154  0.3036 -0.6159  0.3421
10992TIP3    H154467   4.451   4.369   1.077 -0.2199 -1.0379 -0.0518
10992TIP3    H254468   4.364   4.279   1.163  0.6067 -0.6327  1.2374
10993TIP3   OH254469   4.717   5.678  15.117  0.2417  0.7637  0.1146
10993TIP3    H154470   4.745   5.651  15.030 -0.6133  2.0558 -0.5716
10993TIP3    H254471   4.713   5.774  15.113 -1.7358  0.7396  0.9633
10994TIP3   OH254472   4.618   5.818  13.046 -0.0626  0.1955 -0.2319
10994TIP3    H154473   4.632   5.894  12.989 -1.0979  0.1004 -0.6343
10994TIP3    H254474   4.693   5.817  13.105 -0.4536  2.0068  0.3054
10995TIP3   OH254475   1.902   5.602  12.844 -0.0338 -0.0656  0.9519
10995TIP3    H154476   1.970   5.543  12.876  0.2841  0.3245  1.0016
10995TIP3    H254477   1.897   5.672  12.909  0.3399  0.5211  0.3680
10996TIP3   OH254478   2.914   5.844   3.426  0.0057  0.0988 -0.1076
10996TIP3    H154479   2.867   5.774   3.471 -0.4068 -0.1114 -0.8694
10996TIP3    H254480   3.003   5.812   3.417 -0.3016 -0.5292 -0.8999
10997TIP3   OH254481   6.764   0.098  15.243 -0.8227  0.7351 -0.7030
10997TIP3    H154482   6.813   0.046  15.180 -0.5012 -1.8376  1.5411
10997TIP3    H254483   6.826   0.116  15.314 -2.5344 -1.0625  1.3574
10998TIP3   OH254484   2.789   6.076   1.929  0.6318 -0.6044  0.4758
10998TIP3    H154485   2.796   5.994   1.879 -0.7083 -0.9736  0.8701
10998TIP3    H254486   2.837   6.140   1.876  0.6096 -1.3536 -0.4787
10999TIP3   OH254487   0.054   6.591  16.416  0.2413 -0.1420 -0.2506
10999TIP3    H154488  -0.010   6.598  16.345 -0.5910 -0.7747  0.4213
10999TIP3    H254489   0.087   6.680  16.427 -0.5601  0.2057 -0.5823
11000TIP3   OH254490   4.112   3.445  15.592 -0.3141 -0.3535  0.5696
11000TIP3    H154491   4.017   3.456  15.591  0.0081  3.5283 -3.2187
11000TIP3    H254492   4.141   3.499  15.665 -0.8521  1.2141 -0.3384
11001TIP3   OH254493   3.443   4.451  16.205 -0.0407  0.0017 -0.7595
11001TIP3    H154494   3.428   4.451  16.110  0.1146 -1.5682 -0.8025
11001TIP3    H254495   3.415   4.363  16.233 -0.3908  0.5707  0.6985
11002TIP3   OH254496   2.006   3.971   3.439  0.1565  0.5511 -0.3986
11002TIP3    H154497   2.079   3.915   3.411 -0.3940 -2.0159  2.9621
11002TIP3    H254498   2.042   4.022   3.511 -0.8616  0.5600  0.1015
11003TIP3   OH254499   3.629   0.560  16.019 -0.4603  0.1377  0.3014
11003TIP3    H154500   3.632   0.482  15.963  1.2665 -0.2933  0.9578
11003TIP3    H254501   3.718   0.594  16.017 -0.7225  0.9162  1.6572
11004TIP3   OH254502   2.490   3.493  16.094  0.2187  0.1950  0.1419
11004TIP3    H154503   2.464   3.585  16.091  1.0063  0.4440  0.9491
11004TIP3    H254504   2.440   3.453  16.023 -0.5368  1.1362  0.1190
11005TIP3   OH254505   4.983   2.853   4.743 -0.0418  0.1530  0.0408
11005TIP3    H154506   4.927   2.894   4.810  0.8450 -1.2078  1.6546
11005TIP3    H254507   4.928   2.851   4.665 -1.0301  1.9948  0.6355
11006TIP3   OH254508   2.160   2.382  16.327  0.1434 -0.5209 -0.4889
11006TIP3    H154509   2.177   2.288  16.335  1.7048 -0.0542  2.0512
11006TIP3    H254510   2.233   2.416  16.276  0.2254 -0.4804 -0.3430
11007TIP3   OH254511   5.207   3.028   1.451  0.1781 -0.3727  0.0211
11007TIP3    H154512   5.219   3.107   1.397 -0.7329 -0.5250 -0.4278
11007TIP3    H254513   5.140   2.978   1.404 -0.4225 -0.6441  1.1511
11008TIP3   OH254514   2.072   1.125  11.105 -0.1446 -0.2017 -0.3123
11008TIP3    H154515   2.092   1.102  11.014 -0.8048  0.5216 -0.6479
11008TIP3    H254516   2.043   1.216  11.100 -0.9691 -0.4148  0.5201
11009TIP3   OH254517   4.667   2.654  12.291  0.6063 -0.3601  0.6733
11009TIP3    H154518   4.632   2.644  12.380 -1.9799  0.3866 -0.2263
11009TIP3    H254519   4.724   2.731  12.297  1.7004 -1.2451  2.0251
11010TIP3   OH254520   4.833   0.420  15.685 -0.5695  0.5700  0.4017
11010TIP3    H154521   4.847   0.514  15.696  0.6362  0.4638 -0.1273
11010TIP3    H254522   4.889   0.379  15.750 -0.4088  0.1989  0.0363
11011TIP3   OH254523   0.202   0.547   4.127  0.5512 -0.4503 -0.1467
11011TIP3    H154524   0.166   0.523   4.213 -1.1373 -3.1186 -1.5520
11011TIP3    H254525   0.293   0.520   4.131  1.4179  2.4667  1.9294
11012TIP3   OH254526   6.209   3.991  17.190  0.5284  0.1691  0.2668
11012TIP3    H154527   6.262   3.976  17.268 -0.4135  2.3838  1.4056
11012TIP3    H254528   6.160   4.071  17.210 -1.3904 -0.4528 -1.7188
11013TIP3   OH254529   3.206   2.828   3.804 -0.0898  0.3768  0.1130
11013TIP3    H154530   3.186   2.869   3.888 -0.3621  1.2725 -0.3833
11013TIP3    H254531   3.228   2.738   3.826  0.3156  0.7294  1.2011
11014TIP3   OH254532   0.310   4.168   4.892  0.1274  0.0623 -0.2059
11014TIP3    H154533   0.246   4.218   4.842  1.3467  0.3559 -1.5322
11014TIP3    H254534   0.386   4.162   4.833  0.2119 -2.8564  0.1367
11015TIP3   OH254535   5.733   3.106   4.871 -0.2156 -0.1603  0.4444
11015TIP3    H154536   5.642   3.077   4.859 -0.5419  1.2434 -0.6715
11015TIP3    H254537   5.728   3.170   4.942 -0.0249 -0.3898  0.6660
11016TIP3   OH254538   5.210   4.667  13.724  0.0393  0.2154 -0.1538
11016TIP3    H154539   5.300   4.687  13.696  0.1168 -1.4150 -1.1829
11016TIP3    H254540   5.163   4.654  13.642 -0.8199 -0.2426  0.4139
11017TIP3   OH254541   1.010   6.035  13.346 -0.4314  0.3943 -0.5138
11017TIP3    H154542   0.976   5.979  13.277 -0.0779 -0.1950 -0.2221
11017TIP3    H254543   0.940   6.038  13.412 -0.2986 -0.0241 -0.3533
11018TIP3   OH254544   0.119   5.935   5.574 -0.1062 -0.6253  0.1995
11018TIP3    H154545   0.178   5.903   5.642 -0.4484  2.6140  2.0873
11018TIP3    H254546   0.070   6.006   5.616 -1.5593  0.2818 -2.9120
11019TIP3   OH254547   0.580   5.456  14.877  0.2448 -0.0322  0.1216
11019TIP3    H154548   0.553   5.405  14.953  0.0356  0.6726  0.5343
11019TIP3    H254549   0.640   5.399  14.829  0.9992 -0.1991  1.2373
11020TIP3   OH254550   0.216   1.242  17.258 -0.2313 -0.1593  0.6068
11020TIP3    H154551   0.279   1.314  17.258 -0.5796  0.2062 -2.2652
11020TIP3    H254552   0.269   1.164  17.241 -0.3857 -0.0204 -0.5209
11021TIP3   OH254553   0.952   1.024   1.162 -0.4964  0.0084 -0.3562
11021TIP3    H154554   0.968   1.008   1.255 -1.1680 -0.4209 -0.3054
11021TIP3    H254555   0.859   1.002   1.150 -0.5276  0.4850 -1.0339
11022TIP3   OH254556   4.257   5.899  12.575 -0.1499 -0.5756 -0.4265
11022TIP3    H154557   4.224   5.810  12.582  0.6525 -0.8598 -0.2176
11022TIP3    H254558   4.248   5.936  12.663  1.2946 -1.0858 -0.0560
11023TIP3   OH254559   4.203   4.227  15.872 -0.6727  0.8397 -0.0146
11023TIP3    H154560   4.202   4.320  15.846  0.6815  0.5686 -1.1137
11023TIP3    H254561   4.224   4.180  15.791  2.0346 -0.1630  1.1868
11024TIP3   OH254562   4.938   5.699   0.030 -0.0652 -0.2128 -0.3452
11024TIP3    H154563   4.917   5.689  -0.063  1.1409  0.2768 -0.6782
11024TIP3    H254564   5.031   5.720   0.031  0.4883 -2.6242  1.1196
11025TIP3   OH254565   5.436   3.403   1.018 -0.8150  0.5581 -0.1416
11025TIP3    H154566   5.363   3.345   0.996 -0.4469  0.5678 -1.3773
11025TIP3    H254567   5.399   3.491   1.012 -0.8622  0.5374 -0.1555
11026TIP3   OH254568   2.274   2.762  14.769 -0.3339 -0.1817 -0.3944
11026TIP3    H154569   2.326   2.709  14.829  0.0802 -0.4957 -1.0278
11026TIP3    H254570   2.223   2.698  14.719 -0.8801  0.0922 -0.1898
11027TIP3   OH254571   3.045   6.285   4.731  0.2602 -0.1945  0.3905
11027TIP3    H154572   2.991   6.337   4.790  0.1813 -1.0590  1.0903
11027TIP3    H254573   3.124   6.338   4.718  0.9249 -0.6439  2.4599
11028TIP3   OH254574   5.399   4.960  11.656 -0.0700  0.8089 -0.1701
11028TIP3    H154575   5.319   4.951  11.605 -0.8720  1.1742  1.0026
11028TIP3    H254576   5.377   4.926  11.742  0.8179  1.5948  0.3862
11029TIP3   OH254577   2.076   0.949   0.832  0.6904 -0.0887  0.5733
11029TIP3    H154578   2.122   0.866   0.827  2.1709  0.6509  1.4185
11029TIP3    H254579   1.994   0.935   0.785  1.9303 -1.3530 -1.2760
11030TIP3   OH254580   5.909   2.129   5.265 -0.3814 -0.2896  0.4222
11030TIP3    H154581   5.984   2.083   5.305  0.5021  0.5939 -0.1884
11030TIP3    H254582   5.834   2.074   5.286  0.8450 -2.8821 -1.6619
11031TIP3   OH254583   1.735   2.170   3.787  0.2721  0.2399 -0.8630
11031TIP3    H154584   1.744   2.262   3.810 -0.3963 -0.0262  0.5168
11031TIP3    H254585   1.649   2.164   3.744 -0.3059  0.0268  0.3073
11032TIP3   OH254586   6.459   3.307  17.267  0.0567  0.0526 -0.1041
11032TIP3    H154587   6.408   3.358  17.330  2.8856  3.8598 -0.6726
11032TIP3    H254588   6.401   3.296  17.192 -1.3483  0.6026  0.8902
11033TIP3   OH254589   0.087   0.063   4.891  0.2457  0.4895 -0.0561
11033TIP3    H154590   0.011   0.005   4.895  2.2336 -2.0835  2.0015
11033TIP3    H254591   0.056   0.145   4.930 -1.8235 -0.1143 -0.3648
11034TIP3   OH254592   2.941   3.013  15.586  0.2873  0.1095 -0.3662
11034TIP3    H154593   3.031   3.007  15.618  0.4609 -0.5361 -0.9743
11034TIP3    H254594   2.916   3.104  15.603  0.6296 -0.0326  0.9153
11035TIP3   OH254595   1.360   0.878   4.254 -0.0886  0.2885  0.1890
11035TIP3    H154596   1.310   0.804   4.220  1.2559 -0.3420 -0.4558
11035TIP3    H254597   1.311   0.908   4.330  0.9319 -3.1305  2.2521
11036TIP3   OH254598   2.862   5.642   0.030 -0.4334 -0.6364  0.1839
11036TIP3    H154599   2.810   5.578   0.078  0.8829 -1.7216  0.2112
11036TIP3    H254600   2.906   5.693   0.099  2.3382 -2.9247  0.2227
11037TIP3   OH254601   5.102   1.201  17.146 -0.4149  0.6006 -1.3764
11037TIP3    H154602   5.107   1.281  17.198  0.4212 -0.1933 -0.2148
11037TIP3    H254603   5.193   1.179  17.127 -0.4022 -1.7938  1.0198
11038TIP3   OH254604   2.694   2.664  14.775 -0.2229  0.0060  0.2925
11038TIP3    H154605   2.671   2.752  14.745 -2.5446 -0.4869  0.5016
11038TIP3    H254606   2.767   2.677  14.836 -0.5364  1.7858  0.2984
11039TIP3   OH254607   2.519   2.003  13.537  0.2165  0.3393 -0.2293
11039TIP3    H154608   2.438   2.051  13.520  0.6704  1.3212  0.3588
11039TIP3    H254609   2.492   1.931  13.594 -0.6584 -0.7896 -2.0215
11040TIP3   OH254610   1.414   4.706   2.032 -0.0721 -0.2427 -0.4281
11040TIP3    H154611   1.383   4.760   2.105  0.4902 -1.1922  0.5250
11040TIP3    H254612   1.454   4.769   1.971 -1.2549  0.6437 -0.3040
11041TIP3   OH254613   6.061   0.806   5.972  0.4283 -0.7332 -0.0206
11041TIP3    H154614   5.985   0.749   5.966 -2.0221  2.2739  1.0458
11041TIP3    H254615   6.077   0.813   6.067 -0.1580  1.3364 -0.0456
11042TIP3   OH254616   6.192   3.728  12.144  0.2723  0.6392  0.1648
11042TIP3    H154617   6.264   3.702  12.086 -0.4396  0.9329 -0.8656
11042TIP3    H254618   6.186   3.657  12.208  0.0081 -0.5143 -1.1110
11043TIP3   OH254619   5.219   2.562  15.641  0.3837 -0.3667  0.0067
11043TIP3    H154620   5.225   2.508  15.720  0.9118  0.3413  0.4522
11043TIP3    H254621   5.128   2.553  15.613  0.0630 -0.2243  0.9778
11044TIP3   OH254622   1.975   5.193  17.238  0.6114 -0.4315  0.3258
11044TIP3    H154623   2.043   5.130  17.215 -0.1443  0.0251 -3.4851
11044TIP3    H254624   1.896   5.141  17.246  0.4476 -0.2999 -0.4000
11045TIP3   OH254625   2.230   3.224  16.224 -0.2906  0.2394 -0.1299
11045TIP3    H154626   2.268   3.164  16.289 -0.2942  0.3023 -0.0696
11045TIP3    H254627   2.148   3.254  16.264 -0.9071 -0.6790 -0.6925
11046TIP3   OH254628   1.340   5.557  16.329 -1.1814  0.2088  0.1020
11046TIP3    H154629   1.420   5.583  16.283 -0.9586  0.6341  0.7255
11046TIP3    H254630   1.299   5.640  16.353 -1.5779 -0.0125  0.1868
11047TIP3   OH254631   0.752   4.235  14.972 -0.8583 -0.1575 -0.3018
11047TIP3    H154632   0.722   4.145  14.982 -0.4449 -0.3652 -0.9266
11047TIP3    H254633   0.796   4.237  14.887  2.0228 -0.1835  1.1222
11048TIP3   OH254634   3.156   3.441  17.212  0.7439  0.0213  0.1468
11048TIP3    H154635   3.190   3.365  17.166 -1.4195 -0.8664 -0.0521
11048TIP3    H254636   3.089   3.476  17.153 -0.5566  0.1409  1.6674
11049TIP3   OH254637   3.081   1.979   2.436  0.3530  0.4101  0.7425
11049TIP3    H154638   3.118   1.994   2.523  1.6197 -1.7709  0.6058
11049TIP3    H254639   3.157   1.965   2.379 -0.5422 -0.8002 -0.1854
11050TIP3   OH254640   1.721   0.860   6.280  0.3685  0.0876  0.3366
11050TIP3    H154641   1.695   0.770   6.262 -0.6097  0.2360  0.9541
11050TIP3    H254642   1.694   0.910   6.203  0.1155  0.0012  0.3713
11051TIP3   OH254643   0.966   5.709  12.426 -0.1034  0.4020 -0.0856
11051TIP3    H154644   0.909   5.681  12.498  1.2871  1.2522  1.3692
11051TIP3    H254645   0.908   5.711  12.349 -1.7848  0.2208  1.1498
11052TIP3   OH254646   6.762   2.682   0.451  0.2686  0.4591 -0.1375
11052TIP3    H154647   6.843   2.647   0.414 -1.1320 -3.2657  0.1205
11052TIP3    H254648   6.700   2.680   0.379 -0.7007 -0.6766  0.7032
11053TIP3   OH254649   4.383   0.504   1.521  0.1874 -1.1213  0.1821
11053TIP3    H154650   4.421   0.552   1.448  0.8362 -4.1817 -1.5941
11053TIP3    H254651   4.451   0.442   1.548 -1.4729 -2.7953  0.6884
11054TIP3   OH254652   1.253   5.124   5.374  0.6571  0.8758 -0.8340
11054TIP3    H154653   1.190   5.148   5.443  1.1840 -0.3335  0.0906
11054TIP3    H254654   1.298   5.206   5.354 -0.7493  1.6180 -1.0343
11055TIP3   OH254655   4.489   1.148   6.134  0.1083  0.1840  0.1065
11055TIP3    H154656   4.439   1.227   6.112 -1.4418 -1.6874 -3.3719
11055TIP3    H254657   4.575   1.181   6.160 -1.1837  3.1343  0.8461
11056TIP3   OH254658   5.161   4.567  13.345  1.2147 -1.2397  0.5328
11056TIP3    H154659   5.196   4.642  13.296 -0.8091 -1.7596 -1.8208
11056TIP3    H254660   5.229   4.500  13.339  1.7192 -0.6773 -0.0720
11057TIP3   OH254661   4.017   3.013   4.213 -0.1912  0.2443  0.0718
11057TIP3    H154662   4.083   2.972   4.268  1.6595  2.6651 -0.3124
11057TIP3    H254663   4.064   3.080   4.164 -2.7789  1.5127 -0.7653
11058TIP3   OH254664   1.400   5.415  14.115 -0.1262 -0.2061 -0.4999
11058TIP3    H154665   1.413   5.491  14.058 -0.7955  0.9899  0.8931
11058TIP3    H254666   1.476   5.359  14.098  0.6319  1.0060 -1.1966
11059TIP3   OH254667   0.390   2.095   4.323 -0.0603  0.7748 -0.0316
11059TIP3    H154668   0.323   2.093   4.254  0.4026  0.4481 -0.4729
11059TIP3    H254669   0.465   2.138   4.283  0.3941  0.1171  0.0955
11060TIP3   OH254670   0.926   0.709  15.318  0.1769 -0.3820 -0.6389
11060TIP3    H154671   0.946   0.729  15.410  0.5470  0.4407 -0.8933
11060TIP3    H254672   0.934   0.793  15.273  3.7537 -1.4461 -2.1180
11061TIP3   OH254673   5.064   4.576  15.959 -0.5575 -0.8370  0.4884
11061TIP3    H154674   4.991   4.530  15.916 -2.1767  0.0271  2.2321
11061TIP3    H254675   5.127   4.507  15.980 -1.2346 -1.7103 -0.3154
11062TIP3   OH254676   1.245   4.299  15.320 -0.5130  0.2991 -0.1435
11062TIP3    H154677   1.289   4.218  15.294  0.5251  1.1959 -1.2663
11062TIP3    H254678   1.235   4.348  15.239 -1.8479  0.9673  0.4088
11063TIP3   OH254679   1.741   1.722  12.435 -0.0584 -0.0047 -0.3056
11063TIP3    H154680   1.786   1.646  12.471  0.2866 -0.3520 -1.4505
11063TIP3    H254681   1.763   1.794  12.494 -2.1561 -1.2297  2.0191
11064TIP3   OH254682   6.289   3.221  12.638 -0.3110 -0.1563 -0.1258
11064TIP3    H154683   6.289   3.154  12.570 -1.2161  0.9232 -1.2051
11064TIP3    H254684   6.318   3.175  12.717 -0.7142 -1.7631 -0.8970
11065TIP3   OH254685   4.485   4.280   5.590  0.1304 -0.7047  0.1157
11065TIP3    H154686   4.414   4.267   5.527  1.2451 -0.8735 -1.1353
11065TIP3    H254687   4.528   4.361   5.561  1.0225 -1.1076  0.2856
11066TIP3   OH254688   0.790   4.066  13.986 -0.7261  0.3697 -0.0171
11066TIP3    H154689   0.878   4.038  13.958 -0.4585  2.0132 -0.8682
11066TIP3    H254690   0.735   4.048  13.910 -0.8059  0.8867 -0.0814
11067TIP3   OH254691   5.584   1.576   0.284  0.1554  0.0995 -0.7865
11067TIP3    H154692   5.672   1.579   0.322 -0.2426 -1.6615  0.3468
11067TIP3    H254693   5.534   1.639   0.336 -0.6823 -3.1508  2.5082
11068TIP3   OH254694   5.124   0.522  12.304  0.7087  0.4659 -0.4385
11068TIP3    H154695   5.079   0.560  12.380  0.4463  0.5202 -0.6212
11068TIP3    H254696   5.061   0.461  12.268  0.9878  0.1403 -0.3730
11069TIP3   OH254697   1.720   3.334   6.021 -0.6790  0.1069 -0.1615
11069TIP3    H154698   1.687   3.375   6.101  0.2677 -1.4690  1.0635
11069TIP3    H254699   1.643   3.293   5.981 -0.7599 -1.0257  1.1323
11070TIP3   OH254700   0.955   5.838   4.517  0.1511 -0.4371 -0.2377
11070TIP3    H154701   0.926   5.895   4.445  0.6439  1.3216  0.9101
11070TIP3    H254702   1.026   5.786   4.479 -1.3370 -1.3970 -1.7412
11071TIP3   OH254703   5.375   4.405   5.922  0.1638 -0.4051 -0.5827
11071TIP3    H154704   5.354   4.446   5.838 -0.3664 -0.1028 -0.2999
11071TIP3    H254705   5.403   4.478   5.978 -1.1747 -0.3622  0.0464
11072TIP3   OH254706   3.473   5.044   4.212 -0.4801  0.1881  0.4085
11072TIP3    H154707   3.556   5.093   4.212 -1.0989  1.2602  0.6234
11072TIP3    H254708   3.481   4.983   4.139  0.4266  0.4219  0.3019
11073TIP3   OH254709   1.074   4.959   3.240  0.2414 -0.5837  0.0074
11073TIP3    H154710   1.085   5.050   3.212  0.8966 -0.9291 -0.8637
11073TIP3    H254711   1.073   4.908   3.159 -1.9144 -1.1964  0.3770
11074TIP3   OH254712   5.594   6.599   3.348  0.1482  0.0055 -0.3944
11074TIP3    H154713   5.624   6.637   3.265  0.0087 -1.0704 -0.9395
11074TIP3    H254714   5.586   6.505   3.331  1.9099 -0.4958  1.3741
11075TIP3   OH254715   3.262   4.532   3.402 -0.4543 -0.2435 -0.2369
11075TIP3    H154716   3.185   4.492   3.442 -1.2539  0.9031 -0.6079
11075TIP3    H254717   3.299   4.588   3.470 -0.6464  0.1369 -0.4438
11076TIP3   OH254718   6.097   1.266  12.063  0.6976 -0.3316 -0.5211
11076TIP3    H154719   6.018   1.301  12.102 -2.0396 -0.9459 -5.0635
11076TIP3    H254720   6.080   1.172  12.055  2.7352 -0.7849  0.3088
11077TIP3   OH254721   6.358   6.260  12.535  0.2206  0.2229 -0.0295
11077TIP3    H154722   6.397   6.347  12.537  3.9583 -1.3585  1.5357
11077TIP3    H254723   6.339   6.239  12.626  0.0682 -0.8657 -0.2977
11078TIP3   OH254724   1.602   1.557   5.685 -0.1623  0.3320  0.3650
11078TIP3    H154725   1.555   1.637   5.706 -2.0857 -0.9172  0.9594
11078TIP3    H254726   1.552   1.487   5.727  0.2588 -1.4197 -1.9059
11079TIP3   OH254727   3.388   0.685   1.426 -0.1997 -0.3010  0.4831
11079TIP3    H154728   3.462   0.708   1.484  0.8994 -1.5220 -0.4049
11079TIP3    H254729   3.429   0.668   1.341 -1.8308  1.6873 -0.7279
11080TIP3   OH254730   6.392   0.307   2.984  0.0925 -0.0893  0.1487
11080TIP3    H154731   6.322   0.337   3.042 -0.0293  0.4271 -0.2678
11080TIP3    H254732   6.470   0.304   3.040  0.0914  0.9245  0.2185
11081TIP3   OH254733   1.972   0.613   2.856 -0.8548  0.2626 -0.3825
11081TIP3    H154734   1.940   0.564   2.780 -1.3334  0.0413 -0.0335
11081TIP3    H254735   1.911   0.593   2.926  0.7538 -1.1924  0.6519
11082TIP3   OH254736   3.059   3.192  12.632  0.1653  0.2866  0.1584
11082TIP3    H154737   3.135   3.133  12.633  0.7461  1.0343  0.3646
11082TIP3    H254738   3.059   3.232  12.719 -0.7811 -0.1142  0.3447
11083TIP3   OH254739   3.067   0.152   2.988  0.5965  0.3152  0.1174
11083TIP3    H154740   3.080   0.072   3.039  0.0079 -1.1216 -1.9184
11083TIP3    H254741   2.983   0.186   3.018 -0.3963 -1.2472 -0.7877
11084TIP3   OH254742   4.288   1.252  13.202 -0.1795 -0.3791 -0.1970
11084TIP3    H154743   4.312   1.300  13.123  2.7006 -0.0499  0.7947
11084TIP3    H254744   4.290   1.318  13.272  1.6118 -1.4460  0.8148
11085TIP3   OH254745   2.920   5.712   2.538 -0.7273  0.0149 -0.6212
11085TIP3    H154746   2.891   5.683   2.451 -0.6288  0.1562 -0.7011
11085TIP3    H254747   2.839   5.734   2.584 -0.9736 -2.3388  0.1430
11086TIP3   OH254748   4.849   1.682  12.650  0.3189  0.1215 -0.0169
11086TIP3    H154749   4.825   1.619  12.582  0.5313  0.2006 -0.1650
11086TIP3    H254750   4.901   1.632  12.712 -0.1595 -0.0330  0.2676
11087TIP3   OH254751   0.733   6.236  15.047  0.0491  0.0539 -0.2985
11087TIP3    H154752   0.710   6.302  15.113  0.7814  0.4307 -0.4125
11087TIP3    H254753   0.752   6.157  15.098 -1.5743 -0.2985 -0.2074
11088TIP3   OH254754   5.418   1.305   0.569 -0.1305 -0.5445  0.2991
11088TIP3    H154755   5.403   1.332   0.660  1.0166  2.4964 -0.3568
11088TIP3    H254756   5.342   1.340   0.522 -1.5456 -3.4856  0.2603
11089TIP3   OH254757   1.570   2.532  14.479 -0.5350 -0.4106  0.5254
11089TIP3    H154758   1.610   2.536  14.566 -1.4412  1.0915  0.9031
11089TIP3    H254759   1.479   2.560  14.494 -0.4021  0.8913 -1.0640
11090TIP3   OH254760   3.108   0.500   4.506 -0.1831  0.3623 -0.3429
11090TIP3    H154761   3.074   0.523   4.592  0.2461  0.1653 -0.1188
11090TIP3    H254762   3.031   0.466   4.459  0.0652 -1.8919  0.8088
11091TIP3   OH254763   1.023   5.379  12.759 -0.6981  0.2194  0.0263
11091TIP3    H154764   1.008   5.449  12.696  0.9756  1.8716  1.4120
11091TIP3    H254765   0.994   5.414  12.842  0.1633 -0.7417  0.7472
11092TIP3   OH254766   1.439   5.354   5.391 -0.4293  0.0248  0.0332
11092TIP3    H154767   1.409   5.423   5.332  2.3283  0.0392 -1.4216
11092TIP3    H254768   1.446   5.397   5.476  0.3719  1.3405 -0.6696
11093TIP3   OH254769   1.138   2.285  11.916 -0.5105  0.4112  0.2596
11093TIP3    H154770   1.157   2.335  11.995 -0.3639 -0.7175  0.9500
11093TIP3    H254771   1.195   2.323  11.849  0.3847  0.4743  1.0399
11094TIP3   OH254772   1.856   4.494  15.284  0.6058 -0.4498  0.3849
11094TIP3    H154773   1.781   4.473  15.229  1.3923 -0.7387 -0.6023
11094TIP3    H254774   1.845   4.440  15.362 -0.8386  0.4148  0.7916
11095TIP3   OH254775   3.587   3.826   1.397  0.1660 -0.2882  0.0086
11095TIP3    H154776   3.620   3.915   1.397 -0.5852 -0.0108 -0.6388
11095TIP3    H254777   3.544   3.816   1.482 -1.9391  0.7852 -0.9035
11096TIP3   OH254778   0.800   6.688   1.244 -0.5743  0.5172  0.2417
11096TIP3    H154779   0.745   6.625   1.198 -0.5254 -0.6379  1.7127
11096TIP3    H254780   0.871   6.707   1.182 -1.0550 -0.2121 -0.5534
11097TIP3   OH254781   0.467   0.624  13.444 -0.0860 -0.1750  0.2395
11097TIP3    H154782   0.384   0.672  13.447 -0.7197 -1.3310  2.0130
11097TIP3    H254783   0.499   0.636  13.354 -1.2994  1.7261  0.0416
11098TIP3   OH254784   6.428   0.050   6.717 -0.7094 -0.6658  0.5894
11098TIP3    H154785   6.400  -0.042   6.718 -1.9302 -0.2974  0.2869
11098TIP3    H254786   6.504   0.051   6.659  0.2295 -1.7482  1.7657
11099TIP3   OH254787   3.093   5.856   0.616  0.6904  0.0401  0.0061
11099TIP3    H154788   3.081   5.945   0.582 -0.3544  0.1617  0.6774
11099TIP3    H254789   3.110   5.803   0.538  1.8837  0.9117 -0.3516
11100TIP3   OH254790   3.385   6.777   5.605 -0.4331  0.1864  0.8252
11100TIP3    H154791   3.316   6.712   5.593  0.8793 -1.2834  1.1112
11100TIP3    H254792   3.338   6.860   5.611 -1.9728 -0.3847 -2.2019
11101TIP3   OH254793   5.399   4.863  14.140 -0.1089  0.0175  0.5601
11101TIP3    H154794   5.467   4.798  14.121  0.9219  1.9969 -2.9563
11101TIP3    H254795   5.447   4.944  14.158 -1.4593  0.4620  2.3554
11102TIP3   OH254796   3.496   1.109   4.246 -0.2101  0.1596  0.2424
11102TIP3    H154797   3.423   1.136   4.303  0.6046  2.3561  0.2869
11102TIP3    H254798   3.510   1.184   4.189  2.2383 -0.1075  0.4578
11103TIP3   OH254799   5.794   4.935  14.466 -0.7904  0.3879 -0.7483
11103TIP3    H154800   5.799   4.927  14.371 -0.5936  0.8224 -0.7787
11103TIP3    H254801   5.876   4.979  14.490 -1.5005  1.6117 -0.5316
11104TIP3   OH254802   6.369   2.683   1.900  0.0200  0.8504  0.5016
11104TIP3    H154803   6.360   2.684   1.995  2.1552 -0.5347  0.7553
11104TIP3    H254804   6.462   2.692   1.884  0.1239 -2.4603 -1.3182
11105TIP3   OH254805   5.116   5.549   3.142  0.0030  0.2557 -0.4869
11105TIP3    H154806   5.195   5.587   3.103 -0.4263  0.6958 -0.9312
11105TIP3    H254807   5.122   5.456   3.121 -1.1461  0.7578 -3.2614
11106TIP3   OH254808   4.419   3.776  16.887 -0.1645 -0.5523 -0.3453
11106TIP3    H154809   4.344   3.805  16.836 -1.8764 -0.1329  2.2809
11106TIP3    H254810   4.394   3.795  16.978  2.4728 -1.8639  0.6926
11107TIP3   OH254811   3.156   5.810  16.027  0.3002 -0.2956 -0.1279
11107TIP3    H154812   3.093   5.761  15.974 -1.6404  1.0763  0.8566
11107TIP3    H254813   3.229   5.827  15.968 -1.6192  0.8088 -2.2377
11108TIP3   OH254814   6.100   5.719   0.344  0.0772 -0.4951  0.3182
11108TIP3    H154815   6.024   5.770   0.372  0.8013 -0.0544  1.4774
11108TIP3    H254816   6.138   5.770   0.273  0.0402 -0.0753  0.5987
11109TIP3   OH254817   3.338   5.528  14.785 -0.5670 -0.0692  0.3200
11109TIP3    H154818   3.330   5.448  14.838 -0.1593 -0.2540  0.1070
11109TIP3    H254819   3.372   5.593  14.845  0.5767 -0.4664  0.1172
11110TIP3   OH254820   1.959   4.570  13.893 -0.5844  0.3469 -0.8842
11110TIP3    H154821   1.996   4.651  13.929 -2.5353  1.1842 -0.6846
11110TIP3    H254822   2.007   4.557  13.811  1.9854 -0.0849  0.6159
11111TIP3   OH254823   2.855   0.079   2.683  0.4720 -0.7107  0.2425
11111TIP3    H154824   2.814   0.050   2.765  0.2823  1.1575  0.8383
11111TIP3    H254825   2.942   0.109   2.710  0.8514 -1.2011 -0.4348
11112TIP3   OH254826   0.992   5.548   2.553 -0.3322  0.1679  0.1645
11112TIP3    H154827   1.074   5.538   2.602 -0.4566  0.3020  0.4027
11112TIP3    H254828   0.980   5.643   2.546 -0.8776  0.1563  0.8262
11113TIP3   OH254829   0.909   0.758  16.481  0.8011 -0.5142 -0.2825
11113TIP3    H154830   0.923   0.727  16.570  0.4828 -1.6509 -0.6246
11113TIP3    H254831   0.948   0.691  16.425 -0.7285 -0.7958 -1.0469
11114TIP3   OH254832   0.920   0.650  16.736  0.8279 -0.6205  0.2511
11114TIP3    H154833   0.980   0.585  16.773 -0.6328 -1.7436  0.7058
11114TIP3    H254834   0.837   0.602  16.726  0.3650  0.5493 -1.5671
11115TIP3   OH254835   3.132   4.367   5.770 -0.0250 -0.6371  0.1129
11115TIP3    H154836   3.208   4.339   5.718 -0.9978 -0.6072 -1.3695
11115TIP3    H254837   3.141   4.463   5.775  0.5084 -0.7160  0.7033
11116TIP3   OH254838   0.820   4.135  15.793  0.0380  0.0175 -0.1204
11116TIP3    H154839   0.764   4.196  15.746 -0.0677  1.9698  2.4336
11116TIP3    H254840   0.909   4.157  15.764 -0.0454  1.0539  0.3658
11117TIP3   OH254841   6.433   0.277  16.276 -0.2936 -0.4361 -0.2064
11117TIP3    H154842   6.477   0.327  16.207 -0.2738  1.5810  1.2186
11117TIP3    H254843   6.504   0.248  16.333 -0.5574  0.6669  0.7109
11118TIP3   OH254844   2.075   6.299  14.537  0.1850  0.2086 -0.5430
11118TIP3    H154845   1.982   6.298  14.560  0.1455 -1.4088 -0.6742
11118TIP3    H254846   2.109   6.379  14.576 -1.2686  0.8124 -0.4932
11119TIP3   OH254847   0.911   4.882   4.918 -0.0251  0.4372 -0.0985
11119TIP3    H154848   0.900   4.885   5.014  1.2153  1.1863  0.0214
11119TIP3    H254849   0.842   4.940   4.885  0.0697  0.8394  0.3931
11120TIP3   OH254850   2.972   0.418  16.293  0.2548 -0.6249 -0.2114
11120TIP3    H154851   3.056   0.418  16.338  1.5538  1.7136 -2.4783
11120TIP3    H254852   2.925   0.494  16.330  0.9033  0.6648 -1.9924
11121TIP3   OH254853   6.611   4.909   4.919  0.3045 -0.0366  0.0679
11121TIP3    H154854   6.679   4.977   4.913 -0.2225  0.5840  0.9116
11121TIP3    H254855   6.548   4.945   4.981  0.2989 -1.5450  0.9503
11122TIP3   OH254856   0.478   1.066   4.395 -0.3222  0.0311 -0.4020
11122TIP3    H154857   0.408   1.086   4.333  0.3376 -2.7728 -2.1635
11122TIP3    H254858   0.433   1.023   4.468 -0.6511 -0.3216 -0.8037
11123TIP3   OH254859   0.758   6.070   0.915 -0.1447 -0.5331  0.2583
11123TIP3    H154860   0.736   6.114   0.833 -2.1776 -0.0691  1.0197
11123TIP3    H254861   0.760   5.977   0.893 -0.0495 -0.3636 -0.4581
11124TIP3   OH254862   4.127   1.875  11.177 -0.4361 -0.2195 -0.5119
11124TIP3    H154863   4.110   1.802  11.117  0.3699 -1.2395  0.4715
11124TIP3    H254864   4.076   1.854  11.255 -0.1811  0.2523 -0.2219
11125TIP3   OH254865   4.246   2.071   6.230  0.5679  0.0081 -0.2746
11125TIP3    H154866   4.271   2.150   6.182  1.5968 -0.0607  0.1444
11125TIP3    H254867   4.153   2.059   6.209  0.5493  1.0038 -0.7948
11126TIP3   OH254868   4.600   2.768   2.040 -0.3023  0.5568  0.8908
11126TIP3    H154869   4.542   2.696   2.016 -0.2596  0.4606  1.0775
11126TIP3    H254870   4.546   2.846   2.033  0.2794  0.7775 -1.6780
11127TIP3   OH254871   3.309   5.908   0.237  0.6250 -0.0467  0.5167
11127TIP3    H154872   3.334   5.926   0.147  0.7775 -3.6993 -0.2384
11127TIP3    H254873   3.391   5.883   0.280  0.0848 -1.1481  0.9140
11128TIP3   OH254874   3.601   0.120  13.689  0.1746 -0.0507  0.1191
11128TIP3    H154875   3.522   0.161  13.724  0.0055  2.0605 -2.5397
11128TIP3    H254876   3.668   0.133  13.756 -0.5436  2.3274  0.4134
11129TIP3   OH254877   6.572   3.528  14.587 -0.4492  0.6052 -0.5857
11129TIP3    H154878   6.602   3.562  14.672  0.0535  0.0847 -0.5499
11129TIP3    H254879   6.551   3.436  14.605 -0.2814  0.4796 -1.0434
11130TIP3   OH254880   2.173   1.571  13.191  0.2388 -0.5642  0.1124
11130TIP3    H154881   2.218   1.594  13.110 -1.3768  2.1213 -0.0722
11130TIP3    H254882   2.085   1.545  13.164  0.1610 -1.1565  0.9031
11131TIP3   OH254883   1.590   1.674   4.857 -0.3942 -0.4903  0.7159
11131TIP3    H154884   1.598   1.741   4.925 -2.8223  1.2042 -0.5669
11131TIP3    H254885   1.598   1.591   4.903  0.5186  0.6513  2.6735
11132TIP3   OH254886   2.912   1.176  17.033  0.5299 -0.0018 -0.2554
11132TIP3    H154887   2.829   1.210  16.998  1.0140  0.8405 -0.6087
11132TIP3    H254888   2.921   1.090  16.994  0.3853  0.3720 -1.1287
11133TIP3   OH254889   3.125   4.923   5.507 -0.1214 -0.0823  0.3522
11133TIP3    H154890   3.138   4.831   5.485  3.3953  0.7191 -1.2503
11133TIP3    H254891   3.144   4.970   5.426 -0.6729  2.1393  1.4723
11134TIP3   OH254892   6.685   0.949  13.120 -0.5640  0.4280  0.2112
11134TIP3    H154893   6.734   0.871  13.147  0.8167  0.8849 -0.8864
11134TIP3    H254894   6.617   0.915  13.062  0.2979  0.0608 -0.6025
11135TIP3   OH254895   5.063   4.902  12.498  0.1510 -0.0982 -0.0865
11135TIP3    H154896   5.057   4.911  12.593 -0.4219 -0.0509 -0.1302
11135TIP3    H254897   5.157   4.894  12.482  0.3382  1.0570  0.3815
11136TIP3   OH254898   6.387   3.671   0.067 -0.1753  0.0006 -0.2176
11136TIP3    H154899   6.306   3.652   0.113  0.3776 -3.0140 -0.3999
11136TIP3    H254900   6.453   3.616   0.110  1.6979  2.0002 -0.4109
11137TIP3   OH254901   0.408   3.551  16.550  0.0102  0.2388 -0.2126
11137TIP3    H154902   0.377   3.546  16.459 -1.6360 -0.5294  0.3745
11137TIP3    H254903   0.455   3.634  16.555 -2.6958  1.8706 -0.9205
11138TIP3   OH254904   6.442   3.059  12.809  0.7087  0.5001  0.4931
11138TIP3    H154905   6.505   2.987  12.818 -0.8064 -1.0098 -0.4792
11138TIP3    H254906   6.466   3.121  12.878  2.1450 -0.8638  1.2676
11139TIP3   OH254907   1.100   6.041   5.482 -0.3575  0.3726  0.0627
11139TIP3    H154908   1.088   5.951   5.512 -0.3507  0.3619  0.0341
11139TIP3    H254909   1.165   6.078   5.542  2.9691 -0.9633 -2.5101
11140TIP3   OH254910   2.648   4.290  11.187  0.2716 -0.2942  0.0093
11140TIP3    H154911   2.712   4.304  11.117  1.2021 -0.0766  0.8912
11140TIP3    H254912   2.606   4.207  11.165 -1.7018  1.3378 -2.5141
11141TIP3   OH254913   5.246   3.540   4.449  0.2489  0.4898  0.2471
11141TIP3    H154914   5.331   3.579   4.470  1.0633 -0.9989 -0.1829
11141TIP3    H254915   5.204   3.525   4.533  2.4222 -3.1220  0.7844
11142TIP3   OH254916   2.258   6.416  13.411 -0.3045 -0.0342  0.7591
11142TIP3    H154917   2.207   6.377  13.482 -1.7029  0.3237 -0.0332
11142TIP3    H254918   2.256   6.352  13.341 -0.7930  0.5524  0.2340
11143TIP3   OH254919   6.008   5.982   4.419 -0.1149  0.1408  0.4193
11143TIP3    H154920   6.011   6.030   4.502  2.2798  0.2702  0.3016
11143TIP3    H254921   6.013   6.050   4.352  2.7646 -0.1753  0.2487
11144TIP3   OH254922   0.885   4.824   5.459 -0.4568  0.3059  0.3974
11144TIP3    H154923   0.856   4.769   5.386  1.1788 -0.0093 -0.0321
11144TIP3    H254924   0.895   4.911   5.421  0.1443  0.1984  0.3154
11145TIP3   OH254925   4.645   2.606  16.585 -0.3536  0.2558  0.5261
11145TIP3    H154926   4.616   2.577  16.671 -1.3976 -0.9255 -0.1939
11145TIP3    H254927   4.571   2.586  16.527  1.2288 -1.2175 -1.0613
11146TIP3   OH254928   4.094   5.492   2.282 -0.4582 -0.0679  0.4313
11146TIP3    H154929   4.186   5.496   2.309 -0.3740 -1.2834  0.3376
11146TIP3    H254930   4.063   5.582   2.290  0.7848  0.3807  0.3279
11147TIP3   OH254931   1.204   2.312   3.414  0.8104  0.1790  0.3677
11147TIP3    H154932   1.168   2.316   3.502  2.8307  1.1369  1.1857
11147TIP3    H254933   1.219   2.219   3.398 -0.8012 -0.1067  0.5120
11148TIP3   OH254934   0.415   6.656   4.052  0.2439 -0.2993 -0.2891
11148TIP3    H154935   0.351   6.622   3.989 -0.6611 -2.2004  1.6265
11148TIP3    H254936   0.384   6.626   4.137  2.9958 -0.1562  0.8075
11149TIP3   OH254937   5.827   2.590   3.890  0.2217  0.2201 -0.0366
11149TIP3    H154938   5.825   2.500   3.858  0.2502  0.1463  0.1625
11149TIP3    H254939   5.776   2.640   3.827 -0.7462 -0.1349  0.4614
11150TIP3   OH254940   5.119   0.094  16.348 -0.4296 -0.8628 -0.1409
11150TIP3    H154941   5.177   0.066  16.419 -1.4461 -0.3349  0.9158
11150TIP3    H254942   5.066   0.164  16.386 -0.1000  0.3350 -1.8156
11151TIP3   OH254943   2.765   2.911  11.955 -0.4153 -0.3262  0.6745
11151TIP3    H154944   2.756   2.861  12.036 -2.0584 -0.3704  0.4786
11151TIP3    H254945   2.855   2.896  11.927 -0.4405 -1.9310  1.4334
11152TIP3   OH254946   0.318   3.111   3.529  0.4678  0.2654  0.2433
11152TIP3    H154947   0.363   3.052   3.589 -0.9107 -0.0985  0.9271
11152TIP3    H254948   0.243   3.062   3.498 -1.2821  1.9940  1.6197
11153TIP3   OH254949   5.895   1.344  16.307  0.7063 -0.0340 -0.3428
11153TIP3    H154950   5.979   1.389  16.313  0.6271  0.0819 -0.1131
11153TIP3    H254951   5.831   1.410  16.335  0.6323 -0.4494  0.4717
11154TIP3   OH254952   6.037   6.413  12.756 -0.1783  0.1109  0.8065
11154TIP3    H154953   5.963   6.359  12.727 -0.5128 -0.0596  1.9368
11154TIP3    H254954   6.112   6.353  12.756 -0.5168 -0.3309  1.9079
11155TIP3   OH254955   6.506   0.567   6.610 -0.1949  0.3900  0.1895
11155TIP3    H154956   6.442   0.598   6.675 -0.8470 -0.4580 -0.0292
11155TIP3    H254957   6.539   0.646   6.568 -0.1992  0.9128  1.1551
11156TIP3   OH254958   3.161   1.700   5.901  0.0857 -0.7117 -0.3484
11156TIP3    H154959   3.221   1.762   5.943 -0.3748 -1.4109  1.3621
11156TIP3    H254960   3.202   1.682   5.816  0.6969  1.2108 -0.4968
11157TIP3   OH254961   1.623   1.594  15.611  0.2995 -0.1490  0.0279
11157TIP3    H154962   1.573   1.514  15.626 -0.6324  0.2426 -0.9325
11157TIP3    H254963   1.558   1.664  15.612  0.9553  0.4735 -0.2955
11158TIP3   OH254964   3.909   1.746  15.727 -0.4274  0.0054 -0.3497
11158TIP3    H154965   4.000   1.765  15.749  0.1552 -1.3058 -1.6000
11158TIP3    H254966   3.895   1.792  15.644 -0.0268 -2.1671 -1.6424
11159TIP3   OH254967   2.403   5.420  11.532  0.2397 -0.6898 -0.3943
11159TIP3    H154968   2.448   5.372  11.462 -1.4424  0.9721 -2.6814
11159TIP3    H254969   2.423   5.512  11.515 -0.8280 -0.2011  0.8627
11160TIP3   OH254970   0.987   5.274   3.672 -0.0191 -0.0176  0.0691
11160TIP3    H154971   0.986   5.199   3.612  1.7588 -0.3858  0.4679
11160TIP3    H254972   1.015   5.237   3.756 -2.1626  0.5490  1.0781
11161TIP3   OH254973   1.119   6.202  10.672 -0.2839  0.3478  0.1963
11161TIP3    H154974   1.058   6.251  10.728  0.0455 -0.2450  1.0932
11161TIP3    H254975   1.202   6.248  10.682  0.7655 -2.0429  3.3831
11162TIP3   OH254976   5.480   2.114   1.626 -0.0550  0.3975 -0.3181
11162TIP3    H154977   5.404   2.141   1.573 -0.4134  1.7894  0.8859
11162TIP3    H254978   5.552   2.111   1.563 -1.2065 -1.5327 -1.6023
11163TIP3   OH254979   1.651   3.073   6.096 -0.4345  0.4330  0.0618
11163TIP3    H154980   1.714   3.130   6.139 -0.3594  2.4846 -2.6611
11163TIP3    H254981   1.569   3.124   6.095 -1.3831 -1.0345  0.9819
11164TIP3   OH254982   5.629   1.093  14.103 -0.1510  0.4382 -0.9687
11164TIP3    H154983   5.555   1.039  14.130  0.9851 -0.9647 -0.6556
11164TIP3    H254984   5.705   1.054  14.146  1.0510  0.7753 -2.7272
11165TIP3   OH254985   4.473   1.142   4.406  0.2691  0.5420  0.0782
11165TIP3    H154986   4.477   1.065   4.349 -1.7054 -0.5510  1.3943
11165TIP3    H254987   4.396   1.190   4.375 -0.5958  0.1321  1.5733
11166TIP3   OH254988   2.251   2.797  12.226 -0.0987 -0.3856  0.4025
11166TIP3    H154989   2.320   2.762  12.283  1.2855  1.2681 -0.2233
11166TIP3    H254990   2.190   2.841  12.285  0.5647  0.0870  0.7337
11167TIP3   OH254991   0.971   3.818   4.622 -0.1952  0.2652  0.4180
11167TIP3    H154992   0.909   3.841   4.692 -1.1603  1.8357 -0.9256
11167TIP3    H254993   0.927   3.747   4.574 -0.7561  1.0453 -0.2371
11168TIP3   OH254994   4.372   5.624  14.043  0.0081  0.3474 -0.2672
11168TIP3    H154995   4.362   5.567  13.967  1.1520  2.6062 -2.1294
11168TIP3    H254996   4.335   5.572  14.115 -2.0176 -1.4392 -2.4789
11169TIP3   OH254997   2.333   0.569  14.082  0.1636  0.6249 -0.0745
11169TIP3    H154998   2.328   0.645  14.024  0.6891  0.8966  0.2223
11169TIP3    H254999   2.313   0.494  14.026  2.2036  0.7140 -1.0018
11170TIP3   OH255000   3.238   5.892  11.493  0.2253 -0.1450 -0.6064
11170TIP3    H155001   3.223   5.832  11.566  3.1834 -0.0794  0.0879
11170TIP3    H255002   3.233   5.836  11.415 -1.5723 -0.4426 -0.3167
11171TIP3   OH255003   2.788   2.841  17.117  0.2816  0.2710  0.4051
11171TIP3    H155004   2.756   2.823  17.205 -3.0100 -1.2119 -1.0035
11171TIP3    H255005   2.848   2.769  17.097 -1.3504 -1.1052  0.3370
11172TIP3   OH255006   6.146   0.597   1.412  0.3464  0.5971 -0.1923
11172TIP3    H155007   6.223   0.602   1.356  1.1275 -2.8687  0.4541
11172TIP3    H255008   6.176   0.548   1.489 -2.0323  0.8185  0.9053
11173TIP3   OH255009   2.850   2.083   1.042 -0.0414  0.1774  0.7624
11173TIP3    H155010   2.906   2.043   0.975 -1.1180 -0.3896  0.1999
11173TIP3    H255011   2.900   2.159   1.072  2.2481 -1.7898  2.1672
11174TIP3   OH255012   4.970   1.719  14.572 -0.5858  0.2456  0.0009
11174TIP3    H155013   4.991   1.707  14.664 -0.7837 -0.4532 -0.0403
11174TIP3    H255014   5.055   1.727  14.528 -0.3856 -2.3100 -0.1318
11175TIP3   OH255015   3.166   1.232   2.005 -0.0929 -0.0219  0.5514
11175TIP3    H155016   3.207   1.315   1.979 -0.9190  0.4132  0.6057
11175TIP3    H255017   3.148   1.243   2.098  2.5648 -1.4476  1.2963
11176TIP3   OH255018   3.181   1.639  14.015 -0.1800 -0.2299 -0.3062
11176TIP3    H155019   3.183   1.589  14.096 -1.2246 -0.3712 -0.3630
11176TIP3    H255020   3.243   1.593  13.958  1.3474  0.5003  0.7646
11177TIP3   OH255021   1.243   3.435  16.772  0.2711 -0.4800 -0.3973
11177TIP3    H155022   1.308   3.478  16.717 -0.4918  0.7268 -0.3695
11177TIP3    H255023   1.205   3.367  16.716 -0.7864  1.0071 -1.5065
11178TIP3   OH255024   1.203   3.073   3.938  0.2659 -0.4417  0.0563
11178TIP3    H155025   1.109   3.071   3.918  0.2957  0.1628 -0.1307
11178TIP3    H255026   1.245   3.086   3.853  0.3979  2.0715  0.4750
11179TIP3   OH255027   3.444   0.373  14.312 -0.1069  0.3042 -0.0821
11179TIP3    H155028   3.372   0.427  14.346  0.0310 -0.0201  0.7547
11179TIP3    H255029   3.429   0.369  14.218 -0.4510  1.3116 -0.0757
11180TIP3   OH255030   1.860   1.324  14.520 -0.0455 -0.8733 -0.1180
11180TIP3    H155031   1.913   1.330  14.600 -3.4492 -0.6364  2.2022
11180TIP3    H255032   1.873   1.408  14.477  1.0675 -0.6321  0.6420
11181TIP3   OH255033   5.470   1.180  11.803 -0.0761  0.1538  0.6746
11181TIP3    H155034   5.500   1.245  11.867 -0.6650  0.5291  0.5813
11181TIP3    H255035   5.532   1.187  11.731 -0.9018  1.5840  0.0658
11182TIP3   OH255036   0.937   1.122  11.616  0.4591 -0.2505  0.3204
11182TIP3    H155037   1.013   1.073  11.584  0.8475  1.9264 -2.2670
11182TIP3    H255038   0.863   1.085  11.568  0.6190  1.0090 -0.9198
11183TIP3   OH255039   6.779   6.002  11.722 -0.6416  0.0098 -0.0089
11183TIP3    H155040   6.792   5.994  11.816 -0.2232 -1.7159 -0.1982
11183TIP3    H255041   6.787   6.096  11.704 -2.2570  0.5214  1.8782
11184TIP3   OH255042   5.916   1.217   1.960  0.3296  0.2468  0.1211
11184TIP3    H155043   6.002   1.250   1.984  0.0421  0.4244  0.9598
11184TIP3    H255044   5.874   1.198   2.045 -0.0244 -0.9312 -0.3079
11185TIP3   OH255045   0.568   6.326   3.459 -0.8267 -0.2999  0.1529
11185TIP3    H155046   0.623   6.291   3.390 -0.9061  0.7051 -0.4232
11185TIP3    H255047   0.629   6.368   3.520 -0.8035 -0.7417  0.4393
11186TIP3   OH255048   6.697   6.579  13.329  0.7457 -0.0963  0.3075
11186TIP3    H155049   6.776   6.526  13.329 -0.9792 -2.7610 -0.4556
11186TIP3    H255050   6.702   6.630  13.248  1.6468 -0.2801  0.2465
11187TIP3   OH255051   2.783   0.360   3.640 -0.7879  0.4194 -0.6305
11187TIP3    H155052   2.820   0.337   3.725  1.6566  1.2853 -1.4282
11187TIP3    H255053   2.689   0.352   3.652 -0.3769 -1.7523  1.4895
11188TIP3   OH255054   2.794   4.197  16.563  0.2062  0.1291  0.2258
11188TIP3    H155055   2.735   4.272  16.565 -0.0484 -0.0912  1.0373
11188TIP3    H255056   2.737   4.121  16.552  0.4077 -0.0084  0.1162
11189TIP3   OH255057   2.498   3.627   6.536  0.0720  0.4763 -0.0791
11189TIP3    H155058   2.429   3.564   6.514 -0.2090  0.6479  0.3040
11189TIP3    H255059   2.580   3.583   6.514 -0.1895  0.4841 -1.0657
11190TIP3   OH255060   0.807   1.545   5.909  0.5016  0.2852  0.7051
11190TIP3    H155061   0.798   1.453   5.881  1.0081  0.4719 -0.0886
11190TIP3    H255062   0.887   1.546   5.961  0.3240  0.2181  0.9827
11191TIP3   OH255063   4.854   2.271  11.180  0.1019 -0.0708 -0.2930
11191TIP3    H155064   4.890   2.223  11.105  1.1306  0.4280 -0.1300
11191TIP3    H255065   4.875   2.362  11.162 -0.7532  0.1857  0.0007
11192TIP3   OH255066   4.002   1.913   4.460 -0.7005  0.4918 -0.2847
11192TIP3    H155067   3.969   1.999   4.486 -0.0978 -0.1919  2.9404
11192TIP3    H255068   3.922   1.862   4.442 -1.1682  0.9265  0.5126
11193TIP3   OH255069   0.219   1.412  15.367  0.3463 -0.4355  0.1167
11193TIP3    H155070   0.162   1.479  15.327 -0.9552 -1.6647 -0.1173
11193TIP3    H255071   0.235   1.444  15.456  1.3877  1.1847 -0.6329
11194TIP3   OH255072   1.508   1.483  11.162  0.1650  0.1148 -0.4591
11194TIP3    H155073   1.531   1.415  11.099 -0.0586  0.2983 -0.7377
11194TIP3    H255074   1.586   1.537  11.169  1.0013 -1.2441  1.1652
11195TIP3   OH255075   3.697   5.159   4.642 -0.1671  0.1621 -0.3236
11195TIP3    H155076   3.611   5.167   4.683  0.5802  1.4270  1.0678
11195TIP3    H255077   3.758   5.154   4.716  1.0662  0.7201 -1.2880
11196TIP3   OH255078   1.968   5.801  16.014 -0.0993 -0.3901  0.2095
11196TIP3    H155079   1.962   5.745  16.091  0.4208  0.3097  0.7578
11196TIP3    H255080   1.984   5.888  16.048  2.5340 -0.4411 -0.7687
11197TIP3   OH255081   0.491   0.299  12.549  0.3491  0.0596  0.0402
11197TIP3    H155082   0.502   0.205  12.533 -1.8963 -0.3742  0.9218
11197TIP3    H255083   0.454   0.332  12.467  0.3266  0.0375  0.0416
11198TIP3   OH255084   5.654   2.400   5.981 -0.4340 -0.2566 -0.2504
11198TIP3    H155085   5.584   2.452   5.941 -1.6820 -3.0564 -1.8495
11198TIP3    H255086   5.617   2.371   6.064 -1.4365 -2.2237 -1.3605
11199TIP3   OH255087   6.389   4.824   0.308  0.5504 -0.2399  0.1688
11199TIP3    H155088   6.323   4.764   0.342  0.4075  0.5087  1.2162
11199TIP3    H255089   6.361   4.842   0.218 -0.6799  0.0905  0.6126
11200TIP3   OH255090   1.280   1.886  14.052 -0.0302  0.2509 -0.0486
11200TIP3    H155091   1.213   1.950  14.074 -0.4192 -0.3365  0.4910
11200TIP3    H255092   1.232   1.811  14.017  0.4169  0.2283 -0.6231
11201TIP3   OH255093   5.348   6.756  10.901  0.2403 -0.1247 -0.0253
11201TIP3    H155094   5.257   6.739  10.925 -0.2759  1.7696 -0.5226
11201TIP3    H255095   5.343   6.790  10.811  1.4542 -0.3021 -0.1637
11202TIP3   OH255096   5.921   2.770  12.672  0.0376  0.3310  0.1386
11202TIP3    H155097   6.014   2.749  12.660 -0.2824 -0.8982 -0.2754
11202TIP3    H255098   5.881   2.687  12.698 -0.8923  0.9298  0.6329
11203TIP3   OH255099   2.832   6.045  10.552 -0.1830  0.0373  0.3830
11203TIP3    H155100   2.786   5.962  10.546 -1.7806  0.7882  1.7108
11203TIP3    H255101   2.858   6.064  10.462  0.3779 -1.9737  0.0990
11204TIP3   OH255102   6.290   0.489  12.062 -0.9439 -0.7962  0.2849
11204TIP3    H155103   6.342   0.436  12.002 -1.1164 -0.9613  0.2808
11204TIP3    H255104   6.207   0.503  12.016 -1.6354 -2.1685  1.0934
11205TIP3   OH255105   0.688   5.891   0.425  0.4296  0.1334  0.4509
11205TIP3    H155106   0.611   5.900   0.482  1.2167  2.9129  1.1638
11205TIP3    H255107   0.656   5.916   0.338 -0.3651 -2.5188 -0.0915
11206TIP3   OH255108   5.552   0.140   5.045  0.0110 -0.0889 -0.0694
11206TIP3    H155109   5.556   0.071   5.111  0.0339 -0.0113  0.0092
11206TIP3    H255110   5.498   0.102   4.975  0.4522 -0.3816 -0.2539
11207TIP3   OH255111   3.352   0.605   4.034 -0.2453 -0.1303  0.2370
11207TIP3    H155112   3.260   0.608   4.060 -0.2762 -0.0218  0.1135
11207TIP3    H255113   3.391   0.684   4.072  0.4425 -1.6074  2.7601
11208TIP3   OH255114   1.786   2.364  13.588 -0.5246 -0.5186  0.1067
11208TIP3    H155115   1.756   2.273  13.577  0.4428 -0.6004 -2.2838
11208TIP3    H255116   1.876   2.355  13.619  0.4558 -0.4695 -2.5780
11209TIP3   OH255117   4.335   3.246   3.379  0.1661 -0.3440 -0.0732
11209TIP3    H155118   4.393   3.314   3.345  0.3368 -0.5952 -0.2836
11209TIP3    H255119   4.279   3.292   3.442  1.8175 -0.4643  1.5283
11210TIP3   OH255120   6.798   4.011  14.459 -0.0289 -0.4901  0.4466
11210TIP3    H155121   6.827   4.093  14.419 -2.8832  0.2470 -0.2227
11210TIP3    H255122   6.843   3.943  14.409  0.4539  0.6009 -0.6279
11211TIP3   OH255123   0.327   0.299   0.054 -0.6507  0.2881 -0.2148
11211TIP3    H155124   0.257   0.237   0.075  1.0871 -1.2496  1.1606
11211TIP3    H255125   0.358   0.271  -0.032 -0.4008 -0.2615  0.0532
11212TIP3   OH255126   2.091   4.607  15.214 -0.4363  0.2743 -0.2861
11212TIP3    H155127   2.008   4.578  15.252 -0.1790  0.1709  0.2039
11212TIP3    H255128   2.122   4.675  15.274  0.3275 -0.3990  0.0757
11213TIP3   OH255129   0.757   6.426  11.559  0.2092 -0.2749 -0.3568
11213TIP3    H155130   0.828   6.362  11.567  0.3014 -0.0267  0.8612
11213TIP3    H255131   0.683   6.376  11.525  0.4713 -0.8902 -0.0181
11214TIP3   OH255132   6.768   4.727  11.016  0.4653 -0.1790  0.3092
11214TIP3    H155133   6.847   4.681  10.988  0.5902 -0.0141  0.3944
11214TIP3    H255134   6.738   4.772  10.937  0.5190 -0.1486  0.3072
11215TIP3   OH255135   2.865   1.408  10.712 -0.6118  0.7442 -0.3237
11215TIP3    H155136   2.870   1.464  10.635  0.5860  0.4839 -0.4355
11215TIP3    H255137   2.953   1.409  10.750 -0.9202  0.0416  0.4540
11216TIP3   OH255138   0.291   0.320   3.850  0.8295 -0.2729  0.0162
11216TIP3    H155139   0.286   0.329   3.945 -1.9149  1.5015 -0.2344
11216TIP3    H255140   0.253   0.234   3.832 -2.8560  1.1977  0.2939
11217TIP3   OH255141   3.735   4.357  16.576  0.0763 -0.2510 -0.7133
11217TIP3    H155142   3.677   4.366  16.500 -0.4961 -2.2072 -0.5545
11217TIP3    H255143   3.743   4.262  16.587 -0.4047  0.0018  2.0961
11218TIP3   OH255144   3.422   4.073  15.435 -0.1862 -0.7046  0.0066
11218TIP3    H155145   3.391   4.027  15.513  1.3948  1.6152  2.0471
11218TIP3    H255146   3.513   4.096  15.455 -0.5948  2.3264 -1.3759
11219TIP3   OH255147   0.731   1.646  15.725 -0.1275  0.1277  0.1458
11219TIP3    H155148   0.817   1.679  15.699 -1.2274  1.4272 -2.0282
11219TIP3    H255149   0.692   1.717  15.775  0.0590 -0.4714  1.1535
11220TIP3   OH255150   2.092   0.359  15.812 -0.0803  0.0645 -0.7853
11220TIP3    H155151   2.084   0.452  15.790  1.9766 -0.3590 -3.6316
11220TIP3    H255152   2.185   0.346  15.832 -0.3690 -1.3463 -0.2672
11221TIP3   OH255153   5.143   4.631  13.034 -0.5388 -0.1212 -0.1012
11221TIP3    H155154   5.062   4.660  13.076 -0.4816  0.0030 -0.0755
11221TIP3    H255155   5.162   4.699  12.969  0.2926  0.5632  0.8386
11222TIP3   OH255156   1.342   4.626  15.972  0.6193 -0.3580  0.3984
11222TIP3    H155157   1.417   4.647  15.916  0.3266  0.9797  0.4870
11222TIP3    H255158   1.377   4.632  16.061  0.8068 -1.3919  0.4063
11223TIP3   OH255159   1.451   4.014   1.339 -0.0721  0.0776  0.0377
11223TIP3    H155160   1.384   4.068   1.297 -0.4121 -1.1914 -1.0948
11223TIP3    H255161   1.449   4.041   1.431  0.3117  2.5137 -0.6242
11224TIP3   OH255162   0.003   6.364   4.270 -0.8473  0.3296  0.8939
11224TIP3    H155163   0.018   6.317   4.188 -0.7784  0.5270  0.7906
11224TIP3    H255164  -0.010   6.455   4.243 -0.9792  0.3702  1.0902
11225TIP3   OH255165   0.251   5.302   4.568  0.1449 -0.6272  0.1367
11225TIP3    H155166   0.193   5.373   4.542 -0.8805 -1.3379  0.4546
11225TIP3    H255167   0.339   5.334   4.547 -0.4048  0.1958 -0.9389
11226TIP3   OH255168   5.779   1.559   5.422  0.5688 -0.5958 -0.1904
11226TIP3    H155169   5.712   1.495   5.396 -0.1282 -0.3315  0.9030
11226TIP3    H255170   5.779   1.556   5.518  1.6967 -0.1429 -0.1723
11227TIP3   OH255171   5.550   5.208  15.810 -0.2709 -0.2319  0.3667
11227TIP3    H155172   5.625   5.242  15.858 -0.2263  0.2663 -0.0601
11227TIP3    H255173   5.560   5.113  15.815 -0.3841 -0.1912  1.5246
11228TIP3   OH255174   3.904   6.015  17.221 -0.1157 -0.2407  0.1081
11228TIP3    H155175   3.849   6.073  17.273  0.1153 -2.5133  3.0016
11228TIP3    H255176   3.845   5.978  17.155 -0.7754  1.4213 -0.2598
11229TIP3   OH255177   4.525   5.283   3.402  0.1839 -0.2677  0.1694
11229TIP3    H155178   4.441   5.319   3.374  0.4386  0.9765  1.0038
11229TIP3    H255179   4.549   5.334   3.479  1.9064 -0.3393 -0.3057
11230TIP3   OH255180   3.412   6.262  12.689  0.1889  0.7276  0.2908
11230TIP3    H155181   3.447   6.347  12.714 -0.0534  0.4007  1.7944
11230TIP3    H255182   3.413   6.211  12.770  0.1529 -0.6369 -0.5542
11231TIP3   OH255183   6.076   1.521   0.916 -0.2056  0.0832 -0.5865
11231TIP3    H155184   6.098   1.614   0.913 -1.6842  0.4328 -1.9338
11231TIP3    H255185   6.157   1.477   0.940  0.4839  1.7318  0.1761
11232TIP3   OH255186   6.617   5.308   1.791 -0.7369  0.1796  0.3752
11232TIP3    H155187   6.650   5.277   1.707 -0.7900  1.8609 -0.2855
11232TIP3    H255188   6.575   5.232   1.830 -0.7767 -0.6007 -1.1530
11233TIP3   OH255189   1.474   5.146  17.125  0.1328 -0.3951 -0.2198
11233TIP3    H155190   1.529   5.106  17.058 -0.2245  0.5677 -1.0984
11233TIP3    H255191   1.528   5.215  17.163 -0.0431 -0.2266 -0.2706
11234TIP3   OH255192   5.693   4.051  16.843 -0.2959 -0.1468  0.5150
11234TIP3    H155193   5.622   3.993  16.814 -0.0501 -0.8409  1.2757
11234TIP3    H255194   5.738   4.076  16.763 -4.2742  4.1676 -0.6199
11235TIP3   OH255195   4.350   1.084   2.055 -0.2582  0.4431  0.4143
11235TIP3    H155196   4.300   1.163   2.077 -1.2184 -0.5882  2.0653
11235TIP3    H255197   4.434   1.095   2.098  0.0123  1.0473 -0.2630
11236TIP3   OH255198   6.185   5.630   1.839 -0.4130 -0.1851 -0.0048
11236TIP3    H155199   6.261   5.573   1.825 -0.4537 -0.4322  0.7452
11236TIP3    H255200   6.199   5.704   1.781  0.0656 -0.5573 -0.3678
11237TIP3   OH255201   0.196   0.931   1.212  0.1773 -0.4141  0.0986
11237TIP3    H155202   0.127   0.970   1.158 -0.0381 -0.1386  0.5720
11237TIP3    H255203   0.192   0.837   1.192 -0.4322 -0.4180  0.2294
11238TIP3   OH255204   0.147   5.876   1.039 -0.0262  0.1277 -0.4374
11238TIP3    H155205   0.115   5.843   1.123  0.6085 -0.8529 -0.5575
11238TIP3    H255206   0.144   5.971   1.047  0.5925  0.0495  0.9307
11239TIP3   OH255207   0.755   2.578   1.087  0.3881  0.3090 -0.0536
11239TIP3    H155208   0.798   2.657   1.053  1.0031 -0.0920 -0.2200
11239TIP3    H255209   0.695   2.610   1.154  0.8425  0.8961  0.0754
11240TIP3   OH255210   5.565   6.561  16.123  0.1989 -0.3117  0.3381
11240TIP3    H155211   5.469   6.566  16.130  0.3613  0.3084  2.4030
11240TIP3    H255212   5.581   6.478  16.078 -1.3994  1.3563 -3.6006
11241TIP3   OH255213   4.919   1.111   2.751  0.3480  0.5331 -0.1009
11241TIP3    H155214   4.930   1.206   2.756  0.4775  0.5384 -0.5189
11241TIP3    H255215   4.824   1.099   2.746  0.4188  0.7263 -1.9791
11242TIP3   OH255216   4.245   2.385   4.459  0.6881 -0.3632  0.4632
11242TIP3    H155217   4.306   2.354   4.391  0.7261 -0.9709  0.7727
11242TIP3    H255218   4.289   2.461   4.497  0.8994 -0.3266  0.1545
11243TIP3   OH255219   5.041   6.268   0.611 -0.2903 -0.0488 -0.2058
11243TIP3    H155220   4.956   6.309   0.598  0.5798  1.6797 -0.5143
11243TIP3    H255221   5.029   6.178   0.579 -1.4912  0.6785 -1.8617
11244TIP3   OH255222   5.125   0.445   5.692 -0.3605  0.0502  0.2254
11244TIP3    H155223   5.215   0.466   5.717  0.5885 -0.3795 -2.6409
11244TIP3    H255224   5.094   0.524   5.645 -1.4169  0.1111  0.9901
11245TIP3   OH255225   6.136   0.631   0.096  0.3601 -1.2168 -0.0892
11245TIP3    H155226   6.081   0.622   0.174  0.0126 -3.7740 -0.5753
11245TIP3    H255227   6.225   0.621   0.129  0.2651 -1.3647  0.1264
11246TIP3   OH255228   2.933   1.956   4.684  0.3922 -0.0054  0.1566
11246TIP3    H155229   2.932   2.039   4.636 -2.5988 -0.5000 -0.7121
11246TIP3    H255230   2.988   1.898   4.631 -2.1673 -0.2747 -2.2726
11247TIP3   OH255231   5.697   4.540   5.483  0.3269 -0.0825 -0.1039
11247TIP3    H155232   5.650   4.603   5.427  1.5503  0.2904 -0.7389
11247TIP3    H255233   5.755   4.594   5.536 -0.6969 -0.4525  1.4477
11248TIP3   OH255234   2.280   4.472   0.273  0.7298  0.1493 -0.8034
11248TIP3    H155235   2.347   4.530   0.310  0.2865  0.2979 -0.2317
11248TIP3    H255236   2.330   4.399   0.236  1.1500 -0.2052  0.4377
11249TIP3   OH255237   5.959   4.334   0.718  0.2561  0.4815 -0.4728
11249TIP3    H155238   5.988   4.425   0.718  0.7530  0.3234 -0.6486
11249TIP3    H255239   5.865   4.339   0.702  0.0963  1.0164  0.6095
11250TIP3   OH255240   0.039   3.342  14.853  0.4173  0.0662 -0.0274
11250TIP3    H155241  -0.041   3.295  14.827  0.8043 -1.1638  1.0148
11250TIP3    H255242   0.052   3.320  14.945  1.5874  0.8273  0.0020
11251TIP3   OH255243   3.179   2.577  15.936 -0.7870  0.4826  0.1873
11251TIP3    H155244   3.141   2.535  15.859 -0.0315 -1.4894  0.8793
11251TIP3    H255245   3.258   2.527  15.955 -0.0320  2.0255  1.2163
11252TIP3   OH255246   6.040   6.534   4.089 -0.2712 -0.2162 -0.5706
11252TIP3    H155247   6.022   6.575   4.004  1.1110  0.2130 -0.6785
11252TIP3    H255248   6.119   6.578   4.120 -0.8976 -0.2134  1.0583
11253TIP3   OH255249   1.210   2.164  15.999 -0.2335  0.0692  0.3303
11253TIP3    H155250   1.281   2.225  15.982 -0.9241  0.8325  0.1613
11253TIP3    H255251   1.203   2.159  16.094 -0.4322  0.5648  0.3441
11254TIP3   OH255252   1.640   2.701  17.241 -0.0544  0.2072  0.6771
11254TIP3    H155253   1.573   2.766  17.260 -0.7226 -0.3695  0.3143
11254TIP3    H255254   1.597   2.617  17.257  0.1862 -0.2021 -0.7987
11255TIP3   OH255255   3.624   1.615   6.257 -0.2440 -0.1282 -0.7641
11255TIP3    H155256   3.554   1.681   6.249 -0.5987 -0.2530  1.0888
11255TIP3    H255257   3.684   1.651   6.323  0.6475 -0.7170 -1.2484
11256TIP3   OH255258   1.569   2.966   5.852 -0.2151 -0.8912  0.4974
11256TIP3    H155259   1.626   2.974   5.928  0.5973 -1.0858 -0.0817
11256TIP3    H255260   1.538   2.875   5.855 -0.5750 -0.7577  0.8656
11257TIP3   OH255261   1.641   4.750   5.305 -0.7806  0.0606  0.1871
11257TIP3    H155262   1.656   4.714   5.393  2.7740  0.2244 -0.2535
11257TIP3    H255263   1.629   4.844   5.320 -0.4602  0.0495  0.5305
11258TIP3   OH255264   6.072   0.923   4.538 -0.4472 -0.0312 -0.5733
11258TIP3    H155265   6.125   0.864   4.592  0.0391 -1.1688 -2.2612
11258TIP3    H255266   6.136   0.975   4.490 -0.8827  0.6755 -0.4005
11259TIP3   OH255267   2.849   1.008   2.416 -0.7130 -0.1866 -0.2250
11259TIP3    H155268   2.777   1.008   2.352 -0.9487  0.6728  0.0353
11259TIP3    H255269   2.857   1.099   2.443  0.7469 -0.2104 -0.5431
11260TIP3   OH255270   3.301   1.801   2.238  0.2806  0.4340 -0.3689
11260TIP3    H155271   3.232   1.751   2.193  0.3028 -0.9409  1.0868
11260TIP3    H255272   3.320   1.874   2.179 -2.1767  0.6396 -0.9494
11261TIP3   OH255273   2.726   5.391   2.519  0.0121 -0.6089 -0.2668
11261TIP3    H155274   2.689   5.477   2.541 -0.5429 -1.1511  0.9609
11261TIP3    H255275   2.730   5.345   2.603 -0.3041 -2.0167 -1.0170
11262TIP3   OH255276   4.295   1.948  15.483 -0.2568 -0.4967 -0.3773
11262TIP3    H155277   4.256   2.030  15.513 -1.8914 -1.4240  0.0874
11262TIP3    H255278   4.384   1.972  15.456 -0.2476  1.1714  1.0368
11263TIP3   OH255279   6.527   4.793  15.452  0.5909 -0.0944 -0.5525
11263TIP3    H155280   6.533   4.707  15.495  2.6046  0.4940  0.4172
11263TIP3    H255281   6.614   4.806  15.414  0.2094  1.3904 -0.9399
11264TIP3   OH255282   4.011   3.123  13.500 -0.2521 -0.4681 -0.1192
11264TIP3    H155283   4.056   3.064  13.440  0.8159 -1.4157  1.5866
11264TIP3    H255284   4.078   3.186  13.526 -0.5677 -0.3674  0.4544
11265TIP3   OH255285   6.402   0.937   5.558  0.4789 -0.2637  0.0574
11265TIP3    H155286   6.351   0.937   5.639 -0.6729  0.0070 -0.6510
11265TIP3    H255287   6.487   0.974   5.583  0.4824 -1.1026  1.3398
11266TIP3   OH255288   1.502   2.975   5.598  0.0248 -0.2008  0.4863
11266TIP3    H155289   1.518   2.986   5.692  0.5932  0.6510  0.2983
11266TIP3    H255290   1.455   3.055   5.573  2.1960  0.8026 -0.4720
11267TIP3   OH255291   5.482   2.685  13.123  0.0587  0.2833  0.2603
11267TIP3    H155292   5.441   2.762  13.161 -0.7707  0.3841 -0.8150
11267TIP3    H255293   5.560   2.718  13.078  0.3201  0.3352  0.7423
11268TIP3   OH255294   2.167   1.387   1.661 -0.3611 -0.4762 -0.7331
11268TIP3    H155295   2.181   1.464   1.716  0.2173 -1.2041  0.1562
11268TIP3    H255296   2.108   1.331   1.712 -1.2534 -0.3670 -1.6289
11269TIP3   OH255297   0.370   0.509  11.793 -0.5569  0.0868  0.1068
11269TIP3    H155298   0.373   0.580  11.729 -0.7404 -0.7083 -0.7980
11269TIP3    H255299   0.355   0.552  11.877 -0.2742  1.1437 -0.3801
11270TIP3   OH255300   4.039   4.313   1.244  0.0531 -0.3034  0.1668
11270TIP3    H155301   4.093   4.371   1.297  0.5387  0.1490 -0.8077
11270TIP3    H255302   4.082   4.227   1.251  1.8732  0.3740 -1.8822
11271TIP3   OH255303   4.917   5.670   3.308 -0.1562 -0.3857  0.1435
11271TIP3    H155304   4.948   5.604   3.370  2.3222 -1.0434 -1.7072
11271TIP3    H255305   4.962   5.648   3.226  0.0867  3.1164 -0.7261
11272TIP3   OH255306   2.279   5.532   2.822 -0.0506 -0.0052 -0.6127
11272TIP3    H155307   2.286   5.488   2.906  1.5252  1.3794  0.0016
11272TIP3    H255308   2.344   5.489   2.766  1.4541  1.4368 -0.0272
11273TIP3   OH255309   0.372   1.794  12.041  0.6667  0.1727 -0.8237
11273TIP3    H155310   0.323   1.844  12.106  1.6975  0.4338 -0.2485
11273TIP3    H255311   0.405   1.860  11.980  0.1855 -0.0183 -1.2988
11274TIP3   OH255312   1.494   5.737   5.767  0.1625  0.3117 -0.0500
11274TIP3    H155313   1.533   5.665   5.816 -0.6237 -0.0841  0.0073
11274TIP3    H255314   1.467   5.800   5.834 -1.4028 -0.4715  0.0967
11275TIP3   OH255315   1.692   0.279  11.693 -0.2827  0.1046  0.2017
11275TIP3    H155316   1.698   0.251  11.602  0.8249  1.1027 -0.0362
11275TIP3    H255317   1.670   0.199  11.741  0.3372 -0.6682 -0.7850
11276TIP3   OH255318   5.042   2.256   2.064  0.4084 -0.4306 -0.3647
11276TIP3    H155319   5.105   2.323   2.038 -2.4932  1.5357 -2.5916
11276TIP3    H255320   5.029   2.203   1.984 -1.2547 -0.3904 -0.1349
11277TIP3   OH255321   0.601   5.122   3.285  0.7476  0.2953  0.1720
11277TIP3    H155322   0.558   5.153   3.204  0.2727 -0.1979  0.2338
11277TIP3    H255323   0.621   5.030   3.268 -2.0614 -0.6414  1.7278
11278TIP3   OH255324   1.437   3.977  17.003  0.0893 -0.1252  0.9629
11278TIP3    H155325   1.342   3.971  17.001  0.1759 -1.4147  0.2797
11278TIP3    H255326   1.456   4.071  16.995 -1.0361 -0.1419 -2.5193
11279TIP3   OH255327   4.746   2.297   5.278  0.6582  0.5824  0.9340
11279TIP3    H155328   4.699   2.214   5.269 -1.3398  1.6654  0.8927
11279TIP3    H255329   4.836   2.278   5.252 -0.3582 -0.9889 -1.6389
11280TIP3   OH255330   1.730   5.130   4.389  0.3860 -0.0826  0.5778
11280TIP3    H155331   1.663   5.072   4.426  1.0370 -1.2541 -0.0354
11280TIP3    H255332   1.813   5.089   4.412  0.8549  0.4905 -0.0638
11281TIP3   OH255333   1.041   5.261  13.258  0.2226  0.6131 -0.3009
11281TIP3    H155334   1.006   5.176  13.285  0.8960  0.6924  0.8555
11281TIP3    H255335   1.059   5.307  13.340  2.5744  0.7630 -0.8678
11282TIP3   OH255336   1.842   0.167   5.861  0.2710 -0.6336 -0.4168
11282TIP3    H155337   1.806   0.121   5.936  0.8210 -1.0775 -0.4240
11282TIP3    H255338   1.787   0.245   5.852  0.1980 -0.5842  0.4360
11283TIP3   OH255339   2.086   0.700  15.198  0.5870 -0.3033 -0.5187
11283TIP3    H155340   2.150   0.630  15.210 -1.1088 -1.9468 -0.8307
11283TIP3    H255341   2.080   0.710  15.103 -0.2786 -0.7739 -0.5140
11284TIP3   OH255342   0.999   2.254  16.492 -0.4845  0.2875  0.5504
11284TIP3    H155343   0.934   2.186  16.473 -2.0902  1.8343  0.4016
11284TIP3    H255344   1.076   2.205  16.520 -1.1862 -1.6538 -0.7764
11285TIP3   OH255345   4.248   3.971   5.810  0.3341 -0.0094  0.6109
11285TIP3    H155346   4.239   3.987   5.716  0.4720  1.1862  0.7972
11285TIP3    H255347   4.341   3.953   5.822  0.0715 -1.7050  0.3020
11286TIP3   OH255348   3.955   6.763   4.325  0.5021 -0.0941  0.4729
11286TIP3    H155349   3.992   6.680   4.297  0.1408 -0.7194  1.8039
11286TIP3    H255350   3.871   6.740   4.365 -0.0733  1.0141 -0.0552
11287TIP3   OH255351   1.888   2.933  11.771 -0.1608 -0.0282  0.0221
11287TIP3    H155352   1.948   2.859  11.778 -1.0153 -0.9261 -1.7232
11287TIP3    H255353   1.944   3.009  11.757  0.7291 -0.3065  1.9069
11288TIP3   OH255354   2.611   2.064  16.533  0.4788 -0.0105 -0.4661
11288TIP3    H155355   2.595   2.079  16.440  0.7504  0.5496 -0.4305
11288TIP3    H255356   2.610   1.969  16.543  1.6023 -0.1159 -1.2559
11289TIP3   OH255357   5.531   3.133   4.407  0.1947  0.5922 -0.2385
11289TIP3    H155358   5.448   3.178   4.394  0.6280  1.4616  0.0045
11289TIP3    H255359   5.597   3.195   4.377  0.7074 -0.4419 -1.2823
11290TIP3   OH255360   4.469   0.533  12.042  0.7687 -0.0783  0.2215
11290TIP3    H155361   4.465   0.462  12.106 -0.2642  1.5060  1.9666
11290TIP3    H255362   4.431   0.609  12.088  0.9028  1.3336 -1.9408
11291TIP3   OH255363   2.666   0.826   1.382  0.2225 -0.6157 -0.0823
11291TIP3    H155364   2.570   0.824   1.388  0.2842 -0.5820  0.9398
11291TIP3    H255365   2.684   0.889   1.312 -0.4828  0.3376  0.5759
11292TIP3   OH255366   1.086   3.506  14.386  0.3616  0.9608 -0.1720
11292TIP3    H155367   1.157   3.483  14.325  1.1942  1.0831  0.7334
11292TIP3    H255368   1.074   3.427  14.439 -0.8569  0.6097 -0.9562
11293TIP3   OH255369   1.815   1.134   5.755  0.1191 -0.2347  0.3721
11293TIP3    H155370   1.843   1.226   5.755  0.7854 -0.4421  0.0962
11293TIP3    H255371   1.766   1.125   5.837  0.8149  0.1323  0.8324
11294TIP3   OH255372   6.194   0.162   4.657 -0.6327 -0.1078 -0.5044
11294TIP3    H155373   6.275   0.209   4.636 -0.4425 -0.6207 -0.9296
11294TIP3    H255374   6.174   0.187   4.747 -0.4502  0.6716 -0.6784
11295TIP3   OH255375   0.778   0.232   3.265 -0.4995  0.0553 -0.1000
11295TIP3    H155376   0.790   0.292   3.191  0.9360  0.6196  0.5772
11295TIP3    H255377   0.862   0.186   3.272 -0.9243 -0.6130  0.6417
11296TIP3   OH255378   2.078   5.135   1.399 -0.2109 -0.1901  0.3161
11296TIP3    H155379   2.122   5.062   1.357  0.9566  0.8405 -0.3005
11296TIP3    H255380   2.020   5.169   1.331  0.6849  0.6458 -0.0457
11297TIP3   OH255381   4.342   5.094  15.239  0.2417 -0.1495  0.3930
11297TIP3    H155382   4.393   5.134  15.309 -0.1508  1.3893 -0.1942
11297TIP3    H255383   4.285   5.031  15.284  0.3193  0.5055  1.4127
11298TIP3   OH255384   0.010   0.286  14.311 -0.0678  0.3746  0.2454
11298TIP3    H155385  -0.043   0.222  14.357  0.7152 -0.5808 -0.1424
11298TIP3    H255386  -0.053   0.345  14.270 -0.7790  0.4559  1.4354
11299TIP3   OH255387   6.185   6.553  14.363  0.2604  0.5383  0.1482
11299TIP3    H155388   6.147   6.468  14.338  2.1495 -0.3394  0.1503
11299TIP3    H255389   6.239   6.577  14.288 -0.2797  1.7765  0.1448
11300TIP3   OH255390   3.185   5.962   2.166  0.0917 -0.3631 -0.3490
11300TIP3    H155391   3.109   5.994   2.215  0.6947 -1.2075  1.1579
11300TIP3    H255392   3.194   6.024   2.093 -2.2538 -0.4648 -0.7527
11301TIP3   OH255393   0.452   6.604   5.475  0.0046 -0.1828 -0.4688
11301TIP3    H155394   0.398   6.599   5.396  0.1203  0.6256 -0.6058
11301TIP3    H255395   0.473   6.697   5.483  1.0298 -0.4326 -0.1798
11302TIP3   OH255396   0.427   5.911  13.449  0.0107 -0.1291 -0.2067
11302TIP3    H155397   0.439   5.911  13.354  1.4419 -0.0244 -0.0366
11302TIP3    H255398   0.487   5.844  13.481 -0.7781 -0.4627  0.5940
11303TIP3   OH255399   0.406   5.723  15.244  0.7006 -0.0117  0.0641
11303TIP3    H155400   0.373   5.810  15.266  0.9918  0.6346 -1.9255
11303TIP3    H255401   0.501   5.731  15.247  0.7278 -0.2852 -0.0008
11304TIP3   OH255402   3.907   2.746   1.087  0.0517 -0.3506  0.5075
11304TIP3    H155403   3.858   2.774   1.164 -0.9312  0.0385 -0.2615
11304TIP3    H255404   3.863   2.788   1.014  0.2344 -1.7034 -0.3897
11305TIP3   OH255405   6.700   2.537   5.714 -0.4220  0.1828  0.1788
11305TIP3    H155406   6.660   2.564   5.797  1.6818 -0.5036  1.4412
11305TIP3    H255407   6.695   2.442   5.715  1.8740  0.0354  0.7225
11306TIP3   OH255408   0.545   2.168   2.989  0.0759  0.5285 -0.1287
11306TIP3    H155409   0.536   2.116   3.069 -1.8099 -1.1717 -1.3865
11306TIP3    H255410   0.481   2.239   2.998 -0.6279 -0.0638 -0.4123
11307TIP3   OH255411   4.232   5.302  16.917 -0.6550  0.0277  0.4895
11307TIP3    H155412   4.249   5.320  17.010 -0.4680 -2.9875  1.0892
11307TIP3    H255413   4.138   5.316  16.907 -0.7000  0.2522  1.1635
11308TIP3   OH255414   6.673   0.023   4.243  0.1822 -0.2278 -0.4121
11308TIP3    H155415   6.628   0.105   4.264 -0.4535 -0.5086 -0.6578
11308TIP3    H255416   6.694   0.032   4.150 -0.6042 -0.6747 -0.6391
11309TIP3   OH255417   6.041   2.517   3.497  0.4092  0.0520  0.2001
11309TIP3    H155418   6.066   2.558   3.414  0.8242  1.4498  0.9919
11309TIP3    H255419   6.062   2.583   3.563  0.4895 -1.2110  1.4593
11310TIP3   OH255420   3.189   2.760  12.551  0.4152  0.1661 -1.0455
11310TIP3    H155421   3.191   2.731  12.460 -0.8867  0.2466 -1.1103
11310TIP3    H255422   3.106   2.808  12.559  0.6032  0.3080  0.1352
11311TIP3   OH255423   3.379   4.845  13.918  0.0802  0.2996  0.2193
11311TIP3    H155424   3.431   4.897  13.979  0.1743  0.2742  0.1598
11311TIP3    H255425   3.419   4.759  13.919  1.3635  0.8524 -1.4384
11312TIP3   OH255426   5.320   3.890  16.053 -0.8212 -0.6634  0.5990
11312TIP3    H155427   5.409   3.915  16.028 -0.6521 -1.7736  0.0267
11312TIP3    H255428   5.271   3.895  15.971 -0.5652 -3.0563  0.2658
11313TIP3   OH255429   2.952   2.530   2.433 -0.1302  0.3419 -0.1170
11313TIP3    H155430   2.994   2.444   2.438 -1.5930 -0.3293  1.0412
11313TIP3    H255431   2.987   2.570   2.354  1.3592 -0.8992 -0.0930
11314TIP3   OH255432   4.239   0.490   2.748  0.7913  0.6014 -0.4786
11314TIP3    H155433   4.284   0.554   2.692  1.2889  0.6607 -0.0106
11314TIP3    H255434   4.281   0.498   2.833 -0.6750  1.2446  0.1935
11315TIP3   OH255435   0.686   0.204  14.697  0.1610 -0.3335  0.0003
11315TIP3    H155436   0.616   0.175  14.756  1.3575  0.8387  2.0868
11315TIP3    H255437   0.759   0.146  14.716  0.4844 -0.0920 -0.5006
11316TIP3   OH255438   3.565   2.525  14.234  0.2650 -0.4208 -0.0167
11316TIP3    H155439   3.515   2.447  14.257  0.6530 -0.7714 -0.3488
11316TIP3    H255440   3.543   2.541  14.142  0.1943 -0.1513  0.0486
11317TIP3   OH255441   3.836   6.420  13.347 -0.2054  0.2985 -0.0531
11317TIP3    H155442   3.749   6.381  13.335 -0.1614  0.4950 -1.0432
11317TIP3    H255443   3.829   6.468  13.430 -0.9608  0.0831  0.0122
11318TIP3   OH255444   3.473   3.453  11.669  0.4741 -0.0954  1.4218
11318TIP3    H155445   3.557   3.472  11.712  1.4100 -0.5543 -0.1699
11318TIP3    H255446   3.456   3.361  11.691 -0.0825  0.2518  2.4965
11319TIP3   OH255447   6.513   0.566   2.814 -0.1030 -0.2340  0.7504
11319TIP3    H155448   6.603   0.548   2.787 -0.2941 -0.7106  0.4149
11319TIP3    H255449   6.511   0.660   2.831  0.4973 -0.2507  0.9146
11320TIP3   OH255450   2.686   2.133  12.021 -0.1942  0.3913  0.2140
11320TIP3    H155451   2.703   2.041  12.039 -1.0086  0.0479 -0.8174
11320TIP3    H255452   2.701   2.176  12.106  3.1049 -0.2591  0.0528
11321TIP3   OH255453   6.439   0.729  11.265  0.1063  0.0093  0.4694
11321TIP3    H155454   6.358   0.779  11.261  0.5734  0.7457 -0.0640
11321TIP3    H255455   6.448   0.691  11.177  1.6371  2.0616 -0.3226
11322TIP3   OH255456   4.623   1.364  15.211 -0.0622 -0.3887 -0.0480
11322TIP3    H155457   4.598   1.450  15.177  0.3289 -1.0356 -2.0075
11322TIP3    H255458   4.713   1.377  15.243 -0.2889  0.1172  0.4050
11323TIP3   OH255459   0.117   1.004  16.511 -0.2432  0.2429  0.1150
11323TIP3    H155460   0.136   1.018  16.604  0.6735  1.2428 -0.2193
11323TIP3    H255461   0.192   0.952  16.480 -1.2874 -1.3857  0.2649
11324TIP3   OH255462   5.933   3.251  13.185 -0.2008 -0.5775  0.0291
11324TIP3    H155463   5.949   3.280  13.096  1.0663 -0.0344  0.4241
11324TIP3    H255464   6.017   3.215  13.214 -0.5316 -0.5066  1.0904
11325TIP3   OH255465   4.233   6.083   3.829 -0.1094  0.5145 -0.1588
11325TIP3    H155466   4.316   6.102   3.873 -0.5873 -0.4825  1.1967
11325TIP3    H255467   4.200   6.169   3.803 -1.1148  1.4269  3.8605
11326TIP3   OH255468   2.713   5.198   0.821 -0.4924  0.4873 -0.5758
11326TIP3    H155469   2.801   5.226   0.795 -0.1654 -1.2565 -1.3730
11326TIP3    H255470   2.688   5.261   0.888  1.7805  0.4176  0.4145
11327TIP3   OH255471   4.109   4.296  11.653 -0.1390 -0.0667 -0.1955
11327TIP3    H155472   4.142   4.275  11.566  3.4047 -0.9058  1.2530
11327TIP3    H255473   4.089   4.211  11.692  1.4594  0.0542  0.9383
11328TIP3   OH255474   4.522   4.423   5.187  0.3619  0.0455  0.8107
11328TIP3    H155475   4.553   4.333   5.191  1.1126  0.2046 -1.0107
11328TIP3    H255476   4.599   4.474   5.161 -0.7805  0.7730 -1.2930
11329TIP3   OH255477   1.827   6.422   4.720 -0.1524 -0.2326  0.6116
11329TIP3    H155478   1.798   6.502   4.764  0.6580 -0.1029  0.9215
11329TIP3    H255479   1.810   6.438   4.627 -2.2401 -0.6624  0.8997
11330TIP3   OH255480   6.297   1.417   3.717 -0.3798  0.7309 -0.6527
11330TIP3    H155481   6.283   1.429   3.810 -1.1472 -0.7811 -0.5628
11330TIP3    H255482   6.354   1.489   3.692  0.1189  0.9442  1.0498
11331TIP3   OH255483   0.042   3.433  10.774  0.1284  0.2958 -0.0288
11331TIP3    H155484  -0.042   3.479  10.779  0.4601  1.1695 -2.0192
11331TIP3    H255485   0.071   3.445  10.684  2.7228  0.5684  0.7854
11332TIP3   OH255486   6.527   4.477  14.477  0.0676 -0.0284  0.5088
11332TIP3    H155487   6.575   4.552  14.442 -0.3532 -0.1929 -0.4457
11332TIP3    H255488   6.550   4.474  14.570  0.2237  1.1745  0.5099
11333TIP3   OH255489   0.664   1.518  17.163  0.1858 -0.3724 -0.0563
11333TIP3    H155490   0.743   1.556  17.124 -0.2547  0.4039 -0.2029
11333TIP3    H255491   0.605   1.592  17.173 -1.2494 -1.2728 -1.7289
11334TIP3   OH255492   0.988   2.450  14.463  0.2239  0.3400  0.5685
11334TIP3    H155493   0.903   2.456  14.508  0.6202 -0.9001  1.4954
11334TIP3    H255494   1.052   2.476  14.529  0.9122 -2.5790  1.0952
11335TIP3   OH255495   4.788   5.637   4.895  0.9563  0.5474  0.1746
11335TIP3    H155496   4.856   5.600   4.839  2.9492  1.8443  1.7175
11335TIP3    H255497   4.791   5.585   4.975 -0.0864  0.4265  0.1519
11336TIP3   OH255498   3.916   5.060  15.575  0.4684  0.0183  0.0367
11336TIP3    H155499   3.840   5.023  15.531  0.3391  0.1999  0.1055
11336TIP3    H255500   3.880   5.108  15.649  0.6386  0.2102 -0.0029
11337TIP3   OH255501   6.722   1.872   4.686 -0.5271 -0.1501 -0.3182
11337TIP3    H155502   6.678   1.886   4.770 -0.4102 -3.5897  0.3774
11337TIP3    H255503   6.815   1.874   4.707 -0.4286  1.4059 -0.8212
11338TIP3   OH255504   6.052   2.160   3.396  0.6644  0.4381  0.1259
11338TIP3    H155505   5.975   2.194   3.440 -1.1136 -0.7977 -1.9211
11338TIP3    H255506   6.059   2.069   3.425  1.0469  0.3840 -0.1231
11339TIP3   OH255507   4.263   4.161   1.552  0.3232 -0.6536 -0.1802
11339TIP3    H155508   4.228   4.250   1.558 -0.1440 -0.8478  0.0305
11339TIP3    H255509   4.247   4.135   1.461 -1.2630 -1.2092  0.2255
11340TIP3   OH255510   1.229   3.242   5.868 -0.1626  0.1581  0.2153
11340TIP3    H155511   1.161   3.289   5.820 -0.7716 -0.5319  0.4013
11340TIP3    H255512   1.198   3.240   5.959  1.6722  2.7589  0.9533
11341TIP3   OH255513   3.535   5.169   4.892  0.2614  0.1993 -0.2996
11341TIP3    H155514   3.571   5.163   4.981 -0.5455 -1.2238 -0.0556
11341TIP3    H255515   3.450   5.212   4.904  0.8725  1.5121 -0.5987
11342TIP3   OH255516   4.552   4.761  12.920 -0.1002  0.7049 -0.2317
11342TIP3    H155517   4.617   4.691  12.929 -2.0006 -0.9801  1.0628
11342TIP3    H255518   4.590   4.835  12.966  0.5656 -0.5059  1.2284
11343TIP3   OH255519   6.558   2.386   4.011 -0.2864  0.4158 -0.2454
11343TIP3    H155520   6.617   2.404   3.938 -2.0853  3.5540 -1.0553
11343TIP3    H255521   6.586   2.301   4.045  2.5125  0.2881 -2.6710
11344TIP3   OH255522   4.059   4.095   3.714 -0.5527  0.1250 -0.0458
11344TIP3    H155523   3.984   4.152   3.699 -0.3492  0.7549  1.3043
11344TIP3    H255524   4.031   4.010   3.679 -2.6344 -0.1419  2.0776
11345TIP3   OH255525   1.230   2.844  11.899 -0.0061 -0.2817 -0.0261
11345TIP3    H155526   1.283   2.768  11.924  0.6712  0.2139  0.0405
11345TIP3    H255527   1.293   2.906  11.862 -0.7152 -0.2037 -1.1303
11346TIP3   OH255528   3.055   3.442  12.857  0.4288  0.8546 -0.5229
11346TIP3    H155529   3.143   3.405  12.863  0.1227  0.0700 -0.8660
11346TIP3    H255530   3.065   3.516  12.797  1.2426  1.9589  0.9256
11347TIP3   OH255531   4.441   3.333   6.048 -0.4640 -0.6426  0.2828
11347TIP3    H155532   4.447   3.286   6.131 -0.5527 -1.6181 -0.2544
11347TIP3    H255533   4.378   3.403   6.064 -0.6899 -0.9971  0.9524
11348TIP3   OH255534   5.234   0.124   0.917 -0.7051 -0.2913  0.1435
11348TIP3    H155535   5.278   0.208   0.902 -0.6061 -0.2587  0.5966
11348TIP3    H255536   5.157   0.126   0.860 -1.6860  0.8739  1.4855
11349TIP3   OH255537   3.232   1.105  11.571 -0.0212  0.4239  0.2441
11349TIP3    H155538   3.274   1.092  11.656 -0.0795  1.7004  0.4831
11349TIP3    H255539   3.266   1.034  11.516 -0.0354 -0.4473  1.3421
11350TIP3   OH255540   5.709   0.452   4.576  0.1801  0.2330 -0.1666
11350TIP3    H155541   5.628   0.483   4.617  0.6146 -0.1957  1.0331
11350TIP3    H255542   5.706   0.488   4.487  0.0743  2.6939  0.7755
11351TIP3   OH255543   6.234   2.303   0.018 -0.2269  0.3285  0.1979
11351TIP3    H155544   6.235   2.240  -0.054  0.2515 -0.6821  1.0789
11351TIP3    H255545   6.325   2.308   0.047 -0.5161  0.2718  1.1328
11352TIP3   OH255546   6.339   4.243  11.565  0.1358 -0.5152 -0.0095
11352TIP3    H155547   6.419   4.278  11.528  0.3045 -1.5262 -0.6009
11352TIP3    H255548   6.326   4.293  11.646  2.2113 -1.4321  0.9106
11353TIP3   OH255549   0.535   0.474   2.796  0.1973 -0.5466  0.3907
11353TIP3    H155550   0.475   0.488   2.870 -0.1840 -1.2713  0.2252
11353TIP3    H255551   0.504   0.533   2.728 -0.9150 -1.5974 -0.0297
11354TIP3   OH255552   0.833   4.629  13.389 -0.0994 -0.1912  0.3870
11354TIP3    H155553   0.792   4.609  13.305  0.0872  0.4046  0.1496
11354TIP3    H255554   0.901   4.563  13.400  0.1027 -0.0606 -0.0959
11355TIP3   OH255555   3.605   2.440   2.365  0.5895  0.2666 -0.0617
11355TIP3    H155556   3.557   2.461   2.445 -0.3137 -1.0502 -0.2412
11355TIP3    H255557   3.664   2.369   2.390  1.9848  1.4204 -0.0090
11356TIP3   OH255558   4.885   4.105  11.300 -0.3979  0.0357  0.1811
11356TIP3    H155559   4.882   4.019  11.258  1.2333  0.3646 -0.6201
11356TIP3    H255560   4.905   4.086  11.392  1.1943 -0.3867 -0.2359
11357TIP3   OH255561   3.261   3.725  16.238 -0.1931 -0.1305 -0.2599
11357TIP3    H155562   3.287   3.669  16.311 -0.4362 -0.9037 -0.7530
11357TIP3    H255563   3.315   3.803  16.247 -1.2812  0.4552  1.6183
11358TIP3   OH255564   4.728   6.085   0.504 -0.7565 -0.1374 -0.0062
11358TIP3    H155565   4.765   6.038   0.430 -0.3864 -1.3850  0.9549
11358TIP3    H255566   4.667   6.023   0.544 -2.0312  1.0255 -0.0994
11359TIP3   OH255567   3.251   5.253  11.136  0.1136  0.4640 -0.3450
11359TIP3    H155568   3.200   5.326  11.172 -2.4796 -1.9725  1.1241
11359TIP3    H255569   3.206   5.231  11.054 -1.1373 -1.5551  0.8472
11360TIP3   OH255570   3.518   2.301  15.320  0.0997 -0.0969  0.0047
11360TIP3    H155571   3.456   2.373  15.315  0.1099 -0.1594 -1.0563
11360TIP3    H255572   3.475   2.229  15.273  1.0545 -0.0741 -0.9177
11361TIP3   OH255573   0.244   2.941  16.187  0.3561  0.6720  0.4437
11361TIP3    H155574   0.298   2.975  16.116  0.1005  0.5338  0.1761
11361TIP3    H255575   0.306   2.909  16.252  0.5931  0.9143  0.3349
11362TIP3   OH255576   1.811   2.926  15.921 -0.2526 -0.2212  0.2946
11362TIP3    H155577   1.893   2.967  15.894 -1.2288  1.1498 -0.6536
11362TIP3    H255578   1.759   2.918  15.841 -0.7895 -1.7140  0.7597
11363TIP3   OH255579   4.196   5.458   2.036 -0.2912 -0.6501  0.0534
11363TIP3    H155580   4.148   5.527   1.991  2.2845  1.2358  0.0228
11363TIP3    H255581   4.170   5.466   2.128  0.3518  0.7198  0.1276
11364TIP3   OH255582   6.081   3.928   1.122 -0.4248  0.1002  0.5006
11364TIP3    H155583   6.040   3.970   1.047  1.1273 -0.7916 -0.8740
11364TIP3    H255584   6.150   3.988   1.149 -0.2823 -0.0805  0.5428
11365TIP3   OH255585   4.791   1.033  15.295  0.5991 -0.0026  0.3535
11365TIP3    H155586   4.781   1.098  15.364  0.5617 -1.1028  1.3988
11365TIP3    H255587   4.780   1.083  15.214  2.2766  1.6018  1.0799
11366TIP3   OH255588   2.984   1.433   5.986  0.0684 -0.0619 -0.0405
11366TIP3    H155589   3.030   1.515   5.969  1.5234 -0.7667  0.3965
11366TIP3    H255590   2.987   1.423   6.081  0.2591 -0.8243 -0.1226
11367TIP3   OH255591   6.700   1.942  12.198 -0.0981  0.2543 -0.0353
11367TIP3    H155592   6.616   1.898  12.212  0.4503 -0.7152  0.1738
11367TIP3    H255593   6.678   2.018  12.143 -1.1237  0.0577  0.0969
11368TIP3   OH255594   1.951   2.267  12.264 -0.2745  0.5013  0.4517
11368TIP3    H155595   1.897   2.194  12.234 -2.4429  2.3213 -0.2590
11368TIP3    H255596   2.028   2.265  12.208 -1.3772  0.1190 -1.0898
11369TIP3   OH255597   4.049   5.332  15.754  0.2365 -0.5450 -0.1626
11369TIP3    H155598   4.114   5.401  15.736 -0.6632  0.3855  0.1242
11369TIP3    H255599   3.965   5.377  15.752 -0.2197 -1.2590  2.0292
11370TIP3   OH255600   5.361   1.681   0.676 -0.6304  0.2139  0.1989
11370TIP3    H155601   5.421   1.659   0.604  0.7205 -0.4998  1.5028
11370TIP3    H255602   5.387   1.770   0.702  0.6232 -0.4886  1.4561
11371TIP3   OH255603   6.688   6.645   2.206 -0.1773 -0.4551  0.1104
11371TIP3    H155604   6.648   6.627   2.122  0.0170 -1.9102  0.3164
11371TIP3    H255605   6.639   6.591   2.268  1.2495 -1.2733  0.5518
11372TIP3   OH255606   4.920   2.972   5.677  0.1731  0.0154  0.1670
11372TIP3    H155607   4.902   2.878   5.669  1.5982 -0.2679  0.1090
11372TIP3    H255608   4.949   2.998   5.589  0.0776  0.4372  0.2594
11373TIP3   OH255609   1.429   0.289   0.064 -0.4257 -0.1623  0.2633
11373TIP3    H155610   1.466   0.361   0.013 -0.8416  0.5101  0.9066
11373TIP3    H255611   1.423   0.323   0.153  1.1139 -1.6298  0.9536
11374TIP3   OH255612   4.338   2.866  13.594  0.0406  0.2823  0.0658
11374TIP3    H155613   4.284   2.865  13.673  1.3400  0.6560  0.9819
11374TIP3    H255614   4.427   2.878  13.627  0.6875 -0.3862 -1.4141
11375TIP3   OH255615   5.635   3.831   2.996 -0.0267  0.0602  0.0349
11375TIP3    H155616   5.721   3.874   2.993 -1.2438  2.6610  1.2633
11375TIP3    H255617   5.636   3.781   3.078  0.0815  0.5997  0.3636
11376TIP3   OH255618   5.552   6.132  14.339 -0.5291 -0.2767 -0.5217
11376TIP3    H155619   5.553   6.082  14.421 -0.0696  0.5074 -0.0495
11376TIP3    H255620   5.625   6.096  14.289 -0.7681 -0.7103 -0.5633
11377TIP3   OH255621   3.808   2.846  10.630 -0.0379  0.3852  0.1955
11377TIP3    H155622   3.874   2.841  10.700  1.2213 -0.0920 -1.0112
11377TIP3    H255623   3.859   2.855  10.550 -1.5076  2.0135 -0.5804
11378TIP3   OH255624   0.206   4.072  16.432 -0.3044  0.6019 -0.0203
11378TIP3    H155625   0.127   4.084  16.485  0.0976  0.9736  0.4928
11378TIP3    H255626   0.213   3.977  16.422  1.2544  0.3247  3.0977
11379TIP3   OH255627   6.356   5.584   3.936  0.3848  0.5916 -0.2594
11379TIP3    H155628   6.430   5.606   3.993  0.2061 -1.3767  0.8225
11379TIP3    H255629   6.387   5.508   3.886 -0.8097 -0.1560  0.1035
11380TIP3   OH255630   3.266   0.916   1.583 -0.9460  0.3840 -0.2045
11380TIP3    H155631   3.338   0.853   1.578 -1.7372 -0.6120  0.6115
11380TIP3    H255632   3.203   0.885   1.519 -1.2717  0.4263  0.0922
11381TIP3   OH255633   1.813   1.428  15.829  0.2252 -0.2222 -0.0519
11381TIP3    H155634   1.762   1.440  15.909 -0.1995 -0.7425 -0.2420
11381TIP3    H255635   1.829   1.333  15.825 -3.6491 -0.8661 -2.9609
11382TIP3   OH255636   0.351   3.030  12.393 -0.5955  0.5243 -0.2491
11382TIP3    H155637   0.309   2.946  12.372  1.7526 -0.9129  0.6815
11382TIP3    H255638   0.406   3.049  12.318 -1.5243  1.5054 -0.6849
11383TIP3   OH255639   4.525   6.609   5.287  0.1305 -0.0337 -0.4134
11383TIP3    H155640   4.551   6.701   5.298 -2.5465  0.8161 -0.7529
11383TIP3    H255641   4.547   6.568   5.370 -0.6037  1.4554  0.5471
11384TIP3   OH255642   5.562   1.688  16.848  0.3320  0.0690 -0.1223
11384TIP3    H155643   5.603   1.774  16.844  1.3802 -0.3503  1.0988
11384TIP3    H255644   5.528   1.681  16.937  0.1241 -0.7264 -0.2574
11385TIP3   OH255645   6.287   1.184  15.640  0.3809 -0.3162  0.7318
11385TIP3    H155646   6.210   1.138  15.674 -1.2764  0.4084 -1.8350
11385TIP3    H255647   6.319   1.127  15.570  0.0526  1.0306 -0.5288
11386TIP3   OH255648   0.805   2.073   3.196  0.2425  0.1925 -0.6511
11386TIP3    H155649   0.854   2.151   3.220 -0.2015  0.6352 -1.1698
11386TIP3    H255650   0.713   2.100   3.200  0.1291  0.0019 -1.8929
11387TIP3   OH255651   2.303   0.798   4.458 -0.0814  0.0053 -0.5921
11387TIP3    H155652   2.340   0.761   4.378  0.1335  1.7922 -1.3421
11387TIP3    H255653   2.214   0.823   4.435 -0.2940 -0.2222 -0.0342
11388TIP3   OH255654   4.011   4.174   0.105  0.1951  0.1003  0.3296
11388TIP3    H155655   3.938   4.127   0.146 -1.0533  2.8175  1.3570
11388TIP3    H255656   3.977   4.262   0.092  2.4259  0.6913 -1.6950
11389TIP3   OH255657   6.547   2.697  15.925  0.0936  0.0831 -0.2128
11389TIP3    H155658   6.536   2.711  16.019  0.1184 -1.0019 -0.0355
11389TIP3    H255659   6.460   2.673  15.894  0.3241 -0.7663 -0.2302
11390TIP3   OH255660   2.471   0.041   5.836 -0.3265 -0.2663 -0.0410
11390TIP3    H155661   2.560   0.010   5.854 -0.3734 -0.2829  0.1630
11390TIP3    H255662   2.462   0.034   5.741 -0.5382 -1.4401  0.0456
11391TIP3   OH255663   2.193   2.124  14.835  0.4444 -0.1045  0.0377
11391TIP3    H155664   2.264   2.188  14.849 -0.0180  0.3114  0.5187
11391TIP3    H255665   2.229   2.061  14.773  1.2633  0.0682  0.3325
11392TIP3   OH255666   1.628   5.554   1.442 -0.2202 -0.4489 -0.2603
11392TIP3    H155667   1.593   5.623   1.500 -1.2362 -1.4693  0.3608
11392TIP3    H255668   1.575   5.560   1.363 -0.9383 -1.1341  0.1660
11393TIP3   OH255669   3.550   2.011   5.843  0.4368 -0.5676 -0.8281
11393TIP3    H155670   3.578   2.075   5.909  0.2722 -1.4483  0.1101
11393TIP3    H255671   3.571   2.052   5.759  0.2738  0.7480 -0.2424
11394TIP3   OH255672   0.895   6.122  14.485  0.1019  0.8379  0.1798
11394TIP3    H155673   0.826   6.059  14.507 -1.9316  3.0346  0.2229
11394TIP3    H255674   0.938   6.084  14.409 -1.4203 -0.3563 -0.1136
11395TIP3   OH255675   6.344   0.062  11.761 -0.7213  0.2758 -0.2535
11395TIP3    H155676   6.260   0.059  11.716 -1.1441 -0.5945  0.5941
11395TIP3    H255677   6.402   0.007  11.708 -0.5945  1.0947 -0.9886
11396TIP3   OH255678   1.266   5.095   2.823  0.5090  0.7232  0.0489
11396TIP3    H155679   1.330   5.053   2.766  1.1859  1.6510  0.1199
11396TIP3    H255680   1.241   5.175   2.776  0.3798  1.0242  0.6285
11397TIP3   OH255681   4.935   0.187  12.647  0.8102 -0.0330  0.0728
11397TIP3    H155682   5.000   0.131  12.690  1.1274 -0.5828 -1.0967
11397TIP3    H255683   4.985   0.241  12.586  0.2113 -0.3225 -0.6977
11398TIP3   OH255684   4.653   3.103  11.150 -0.2042 -0.1478 -0.5216
11398TIP3    H155685   4.601   3.132  11.075  0.1959 -1.5196 -1.3504
11398TIP3    H255686   4.744   3.121  11.124 -0.1424  0.7225  0.2501
11399TIP3   OH255687   2.888   3.085   5.845 -0.2673  0.5725 -0.2274
11399TIP3    H155688   2.959   3.024   5.825 -0.4336 -0.2803  1.6322
11399TIP3    H255689   2.910   3.120   5.932 -3.0910 -1.2002  1.2855
11400TIP3   OH255690   6.306   4.192   0.877 -0.5517 -0.3299 -0.5723
11400TIP3    H155691   6.333   4.165   0.965 -0.8952 -0.6044 -0.5494
11400TIP3    H255692   6.352   4.275   0.862  0.0070 -0.6062 -0.3903
11401TIP3   OH255693   0.970   1.730   6.967 -0.0830  0.1493 -0.0263
11401TIP3    H155694   0.957   1.637   6.950 -0.8990  0.3238 -0.4216
11401TIP3    H255695   0.893   1.757   7.016 -0.6336  0.9506 -1.2940
11402TIP3   OH255696   4.432   5.339   4.222  0.2248  0.8111 -0.1926
11402TIP3    H155697   4.457   5.247   4.216 -0.2175  0.7051 -0.4108
11402TIP3    H255698   4.374   5.343   4.298  0.5953  0.9867  0.0800
11403TIP3   OH255699   6.452   1.205  14.161 -0.4091  0.3121  0.7212
11403TIP3    H155700   6.536   1.214  14.206  0.7659 -1.0733 -1.0909
11403TIP3    H255701   6.455   1.117  14.123 -2.8522  0.1112  0.9501
11404TIP3   OH255702   5.915   0.290  14.789 -0.1295 -0.0488 -0.0516
11404TIP3    H155703   5.951   0.201  14.784 -1.2203 -0.4550 -0.9438
11404TIP3    H255704   5.873   0.303  14.704  0.4763  1.5249 -0.1229
11405TIP3   OH255705   1.291   5.117   5.089  0.4978  0.0636  0.6711
11405TIP3    H155706   1.291   5.132   5.184 -0.9073  0.6773  0.5881
11405TIP3    H255707   1.268   5.203   5.052 -1.2405 -0.7143 -0.1109
11406TIP3   OH255708   5.875   5.571   0.162  0.2190 -0.0132  0.1971
11406TIP3    H155709   5.920   5.562   0.246  1.0696 -1.8524 -0.4147
11406TIP3    H255710   5.782   5.583   0.185  0.6358  0.8963  1.4117
11407TIP3   OH255711   3.290   6.516  14.288 -0.0555  0.2207 -0.2876
11407TIP3    H155712   3.334   6.449  14.236  0.9228 -0.8866  1.8938
11407TIP3    H255713   3.220   6.548  14.231 -0.3603 -2.4204 -1.5025
11408TIP3   OH255714   1.925   2.146   0.068  0.1589  0.0625  0.0302
11408TIP3    H155715   1.927   2.092  -0.011 -0.4105  0.0890 -0.0055
11408TIP3    H255716   1.947   2.085   0.139  0.9044  0.0928 -0.1778
11409TIP3   OH255717   6.734   6.286  11.061 -0.1695  0.6429 -0.5903
11409TIP3    H155718   6.821   6.289  11.101 -0.0111  0.1754 -0.8944
11409TIP3    H255719   6.733   6.360  11.000  0.0974  0.5146 -0.7528
11410TIP3   OH255720   6.374   6.374   3.709  0.4176 -0.3952  0.2179
11410TIP3    H155721   6.351   6.282   3.697  0.9129 -0.3846 -0.9004
11410TIP3    H255722   6.434   6.393   3.637  1.5905  0.3704  1.3879
11411TIP3   OH255723   3.843   5.562   6.050 -0.3277 -0.2388 -0.0197
11411TIP3    H155724   3.921   5.531   6.096 -0.8612  0.5544  1.4442
11411TIP3    H255725   3.838   5.506   5.973  1.1244 -0.9636  0.3804
11412TIP3   OH255726   0.002   3.150  11.879  0.7986 -0.2827  0.4126
11412TIP3    H155727  -0.043   3.173  11.960 -0.5097 -0.4222 -0.2527
11412TIP3    H255728   0.016   3.055  11.886  1.6068 -0.1274  0.9198
11413TIP3   OH255729   0.416   5.556   4.506 -0.2622 -0.4308  0.5574
11413TIP3    H155730   0.446   5.566   4.416  0.2853  0.1294  0.7997
11413TIP3    H255731   0.353   5.628   4.518  0.4731  0.1536  0.9559
11414TIP3   OH255732   6.809   3.653   1.222 -0.3243  0.0663 -0.3405
11414TIP3    H155733   6.827   3.723   1.285 -0.7132  0.5211 -0.7288
11414TIP3    H255734   6.841   3.687   1.139 -2.0618  0.5032 -0.8600
11415TIP3   OH255735   4.653   3.371   3.520 -0.0882 -0.3596 -0.0961
11415TIP3    H155736   4.720   3.344   3.457 -0.2274 -1.7716  0.3415
11415TIP3    H255737   4.638   3.293   3.573 -2.0659 -0.0404 -0.1798
11416TIP3   OH255738   6.221   1.982  13.435 -0.2398  0.1230 -0.9851
11416TIP3    H155739   6.175   2.045  13.379 -1.6792  0.6288  0.7226
11416TIP3    H255740   6.167   1.904  13.431 -0.2895  0.1301 -0.3611
11417TIP3   OH255741   4.484   4.607   3.124  0.2389  0.7247 -0.3308
11417TIP3    H155742   4.509   4.578   3.036 -0.6948  1.1153 -0.7346
11417TIP3    H255743   4.396   4.644   3.113 -0.7843 -1.1844  1.1671
11418TIP3   OH255744   0.344   2.591   5.359 -0.8938  0.8887 -0.0177
11418TIP3    H155745   0.277   2.660   5.368 -3.1251 -1.2304  0.1172
11418TIP3    H255746   0.358   2.584   5.265 -2.2981  0.0474 -0.1813
11419TIP3   OH255747   3.652   4.915   4.890 -0.7840  0.0268  0.2066
11419TIP3    H155748   3.620   5.004   4.872  1.9478  0.8061 -1.0472
11419TIP3    H255749   3.726   4.928   4.950  1.1702 -1.1502 -1.8901
11420TIP3   OH255750   1.237   1.326  12.901 -0.0895  0.3167  0.1117
11420TIP3    H155751   1.241   1.259  12.968 -1.1587 -0.1220 -0.2609
11420TIP3    H255752   1.266   1.406  12.945  0.0117 -0.1315  0.8658
11421TIP3   OH255753   4.117   1.028   0.426  0.5005  0.0033  0.0557
11421TIP3    H155754   4.134   1.121   0.437  1.3085 -0.3529  1.9366
11421TIP3    H255755   4.133   0.990   0.512 -1.3189 -1.6642 -0.3173
11422TIP3   OH255756   5.570   5.974   3.570  0.1649  0.0362 -0.0022
11422TIP3    H155757   5.511   6.037   3.529  0.4537  0.6177  0.4772
11422TIP3    H255758   5.595   6.015   3.653 -0.5944 -1.2212  0.8730
11423TIP3   OH255759   1.931   1.491   5.219  0.2314 -0.0199  0.4945
11423TIP3    H155760   1.937   1.406   5.176  0.7650 -0.2238  0.9599
11423TIP3    H255761   1.976   1.479   5.303  1.6903  1.1655 -0.0964
11424TIP3   OH255762   0.985   0.839  12.502 -0.0344 -0.1556  0.4639
11424TIP3    H155763   1.041   0.843  12.425 -0.4409 -2.2883  0.0086
11424TIP3    H255764   0.897   0.827  12.466 -0.3852  0.1161  1.2355
11425TIP3   OH255765   1.379   0.984  11.980 -0.1675  0.0672 -0.1679
11425TIP3    H155766   1.419   1.021  11.901  0.6142 -0.9260 -0.2569
11425TIP3    H255767   1.315   0.921  11.947  1.5738 -1.8368 -0.0489
11426TIP3   OH255768   5.250   2.272  16.892  0.0132  0.2518 -0.1005
11426TIP3    H155769   5.243   2.177  16.895 -1.8205  0.4078  2.4305
11426TIP3    H255770   5.318   2.293  16.956  0.9700  0.6195 -1.2232
11427TIP3   OH255771   2.232   0.671  13.360  0.2146 -0.5138  0.3924
11427TIP3    H155772   2.139   0.650  13.367  0.3783 -1.0317  1.0408
11427TIP3    H255773   2.236   0.739  13.292 -0.5408 -1.1339 -0.2929
11428TIP3   OH255774   5.420   6.394  16.730 -0.1944  0.4849 -0.0515
11428TIP3    H155775   5.473   6.449  16.673 -0.9472  0.7710 -0.4751
11428TIP3    H255776   5.472   6.386  16.810 -0.8969  3.3324  0.7200
11429TIP3   OH255777   0.951   1.682  14.647 -0.3882  0.5409 -0.1009
11429TIP3    H155778   0.973   1.695  14.739  0.6600 -4.2677  0.5083
11429TIP3    H255779   1.034   1.697  14.601 -0.1786  0.0879  0.1172
11430TIP3   OH255780   6.147   1.181   0.055  0.4442 -0.0049  0.2102
11430TIP3    H155781   6.089   1.233   0.001 -0.6927  0.7792  2.1238
11430TIP3    H255782   6.138   1.091   0.022  1.3490  0.7450 -2.1870
11431TIP3   OH255783   6.257   0.170  14.685 -0.4646 -0.2384 -0.3679
11431TIP3    H155784   6.185   0.107  14.686 -1.4267  0.8414 -0.3867
11431TIP3    H255785   6.333   0.119  14.660 -1.1747 -1.4547 -0.0913
11432TIP3   OH255786   0.272   4.212   2.101 -0.0137  0.2328  0.3951
11432TIP3    H155787   0.224   4.277   2.051  0.8874 -0.6570 -1.6936
11432TIP3    H255788   0.240   4.127   2.069 -0.9014 -0.3934  2.8003
11433TIP3   OH255789   1.227   5.115  12.037  0.3458  0.1475 -0.7190
11433TIP3    H155790   1.269   5.188  12.083  0.3229  0.2985 -0.9359
11433TIP3    H255791   1.273   5.038  12.069  1.1925  0.3650 -1.3885
11434TIP3   OH255792   2.687   6.344  17.191 -0.8297  0.5079 -0.0674
11434TIP3    H155793   2.710   6.384  17.275 -3.1614  0.5722  0.5667
11434TIP3    H255794   2.594   6.364  17.179 -1.8256 -3.7864 -0.2074
11435TIP3   OH255795   2.610   6.416  13.833 -0.5381 -0.7190 -0.2504
11435TIP3    H155796   2.550   6.479  13.792 -0.5580 -0.7167 -0.2187
11435TIP3    H255797   2.609   6.340  13.775 -0.1436 -0.5034 -0.5359
11436TIP3   OH255798   3.947   0.092   6.437  0.9838 -0.2022  0.4398
11436TIP3    H155799   3.912   0.175   6.467  0.5630 -0.1981 -0.0484
11436TIP3    H255800   3.976   0.109   6.347  1.7376 -0.3500  0.6456
11437TIP3   OH255801   3.017   6.499   5.814 -0.0183 -0.0453 -0.2271
11437TIP3    H155802   2.949   6.451   5.765  0.6621 -0.5263 -0.7243
11437TIP3    H255803   3.039   6.442   5.887  0.0841 -0.0467 -0.2575
11438TIP3   OH255804   0.875   1.296  15.516  0.0433 -0.0961 -0.1843
11438TIP3    H155805   0.889   1.369  15.455 -0.8924  0.3677  0.1507
11438TIP3    H255806   0.963   1.277  15.550  0.1595  1.5561  0.5078
11439TIP3   OH255807   2.541   6.435   3.273 -0.4648 -0.2666  0.6552
11439TIP3    H155808   2.499   6.446   3.358 -1.1042 -0.8331  0.4179
11439TIP3    H255809   2.631   6.465   3.287  0.0791 -2.4297  2.1415
11440TIP3   OH255810   0.362   4.314  14.692  0.0193  0.2078 -0.0579
11440TIP3    H155811   0.344   4.398  14.735  1.2548  0.6442 -0.3615
11440TIP3    H255812   0.314   4.318  14.610  0.5304  0.8559 -0.3253
11441TIP3   OH255813   2.020   3.542   0.909  0.1470  0.9585  0.2934
11441TIP3    H155814   1.936   3.501   0.889  1.3726 -1.4484 -0.2095
11441TIP3    H255815   2.002   3.636   0.909 -2.2444  0.5456 -1.1602
11442TIP3   OH255816   2.915   3.657   1.697 -0.1991 -0.3001  0.3371
11442TIP3    H155817   2.898   3.729   1.758  0.0039 -0.3523  0.4520
11442TIP3    H255818   2.994   3.615   1.730 -0.2015 -0.4500  0.1514
11443TIP3   OH255819   0.719   1.189   1.385  0.8306  0.7627  0.2999
11443TIP3    H155820   0.732   1.231   1.300  0.7049  0.8308  0.3143
11443TIP3    H255821   0.750   1.099   1.372 -0.9997  0.2058 -0.3812
11444TIP3   OH255822   2.867   4.267  11.913  0.3311  0.1539 -0.0449
11444TIP3    H155823   2.936   4.299  11.971  1.2958 -0.0859 -1.0477
11444TIP3    H255824   2.892   4.300  11.826 -0.0951 -1.0697 -0.6364
11445TIP3   OH255825   2.395   5.232  14.020  0.4224 -0.1185  0.1820
11445TIP3    H155826   2.439   5.315  14.039  2.5283 -1.4239  1.1046
11445TIP3    H255827   2.431   5.204  13.936  1.2276 -1.0943  0.8460
11446TIP3   OH255828   2.766   4.241  13.462 -0.3698 -0.1260 -0.0567
11446TIP3    H155829   2.771   4.146  13.457  0.9988 -0.0885  0.4959
11446TIP3    H255830   2.773   4.271  13.371 -2.7965 -0.6281 -0.4282
11447TIP3   OH255831   2.453   2.798   5.759  0.7333 -0.4794  0.0218
11447TIP3    H155832   2.450   2.779   5.853  1.6862  1.5530  0.5052
11447TIP3    H255833   2.526   2.745   5.726  0.1823 -1.4572  0.3477
11448TIP3   OH255834   2.063   1.650  11.946  0.3360 -0.4406  0.0948
11448TIP3    H155835   2.066   1.562  11.982  1.7519 -0.4641 -0.0808
11448TIP3    H255836   2.128   1.699  11.996  1.9651 -0.3308 -2.0771
11449TIP3   OH255837   4.951   0.719  14.846 -0.1373 -0.1163 -0.2721
11449TIP3    H155838   4.893   0.650  14.879 -0.9363 -0.1758 -1.7773
11449TIP3    H255839   5.031   0.673  14.821 -0.7878 -0.5454 -1.5731
11450TIP3   OH255840   3.123   2.491   0.881  0.4835 -0.1409  0.1955
11450TIP3    H155841   3.073   2.501   0.962  0.6447 -1.3818  0.4536
11450TIP3    H255842   3.118   2.397   0.861  1.1274  0.0295 -0.7918
11451TIP3   OH255843   1.827   4.122  16.016  0.3356  0.0513 -0.5507
11451TIP3    H155844   1.884   4.197  15.997  0.8058  0.3665  1.9515
11451TIP3    H255845   1.760   4.156  16.074 -0.7718 -0.9832 -1.1951
11452TIP3   OH255846   5.210   3.177  14.598  0.5078  0.0829  0.2349
11452TIP3    H155847   5.206   3.272  14.604  2.4468  0.2276 -0.5040
11452TIP3    H255848   5.194   3.146  14.687 -1.2838  1.0453  0.2579
11453TIP3   OH255849   5.679   5.406   5.630 -0.1583 -0.1801 -0.0692
11453TIP3    H155850   5.607   5.465   5.652 -0.5871 -0.6257 -0.2885
11453TIP3    H255851   5.713   5.378   5.715 -0.8707 -0.7353  0.0399
11454TIP3   OH255852   4.981   2.295   5.073 -0.0955  0.3627  0.3408
11454TIP3    H155853   5.025   2.353   5.135 -0.2503  0.9121 -0.0565
11454TIP3    H255854   5.034   2.301   4.993  0.0995 -0.3345  0.4206
11455TIP3   OH255855   5.692   2.122   1.443 -0.5848 -0.1981  0.3825
11455TIP3    H155856   5.751   2.052   1.470 -1.1497 -0.2882  1.4064
11455TIP3    H255857   5.750   2.193   1.417 -0.0088 -0.8588 -0.1669
11456TIP3   OH255858   0.007   1.470   1.936  0.6674  0.7852 -0.3369
11456TIP3    H155859  -0.077   1.506   1.909 -0.2042 -1.6461 -1.0604
11456TIP3    H255860   0.008   1.479   2.031 -1.1112 -0.5532 -0.1656
11457TIP3   OH255861   0.562   1.596   3.471  0.0362  1.1434  0.5547
11457TIP3    H155862   0.532   1.550   3.549 -0.2275  0.3066 -0.0320
11457TIP3    H255863   0.563   1.529   3.402 -0.7447  2.1037 -0.4061
11458TIP3   OH255864   0.995   2.637   1.833 -0.4663  0.2393 -0.0599
11458TIP3    H155865   1.015   2.698   1.762 -0.8196  1.0943  0.5603
11458TIP3    H255866   0.903   2.614   1.820 -1.3397  2.5013  1.6312
11459TIP3   OH255867   4.816   5.886  16.089 -0.1178 -0.7488  0.2757
11459TIP3    H155868   4.738   5.831  16.098 -0.7208 -0.4618 -2.5153
11459TIP3    H255869   4.781   5.975  16.086  0.5461 -0.4467  1.3986
11460TIP3   OH255870   5.812   0.165   1.690  0.7740 -0.5635  0.0895
11460TIP3    H155871   5.880   0.230   1.706 -0.5009  0.4250  1.6291
11460TIP3    H255872   5.738   0.195   1.743 -0.6754 -1.9045 -1.1457
11461TIP3   OH255873   0.488   6.152  16.060 -0.1081  0.2403  0.8354
11461TIP3    H155874   0.578   6.136  16.089  0.0063  2.2096  1.6432
11461TIP3    H255875   0.439   6.170  16.140 -0.6902  1.5123  0.2225
11462TIP3   OH255876   0.453   3.021   1.144 -0.3740  0.1287 -0.2091
11462TIP3    H155877   0.385   2.993   1.084 -0.5037 -1.2900  0.5841
11462TIP3    H255878   0.515   3.069   1.089 -0.0831 -1.8182 -1.6447
11463TIP3   OH255879   4.709   2.070  14.090  0.8817  0.4389 -0.4909
11463TIP3    H155880   4.632   2.121  14.066  0.9928  0.9777  0.2978
11463TIP3    H255881   4.681   1.979  14.082 -0.7638  0.6142  2.7572
11464TIP3   OH255882   4.684   5.514  13.509 -0.0763 -0.1171 -0.4853
11464TIP3    H155883   4.596   5.478  13.494 -0.9002  0.5871  2.2381
11464TIP3    H255884   4.676   5.562  13.592  2.3473  1.7816 -1.2821
11465TIP3   OH255885   4.853   6.530  16.058  0.0897 -0.4085  0.0333
11465TIP3    H155886   4.849   6.489  16.145  0.4284  0.1674  0.3233
11465TIP3    H255887   4.866   6.623  16.076 -0.1937 -0.2378 -0.6322
11466TIP3   OH255888   3.990   0.735  15.435 -0.2591  0.1468 -0.0508
11466TIP3    H155889   3.960   0.763  15.349 -0.6791 -0.5953 -0.1490
11466TIP3    H255890   4.032   0.813  15.472  1.2294  0.0688 -1.5063
11467TIP3   OH255891   2.496   1.268  12.159  0.0514  0.1029 -0.1817
11467TIP3    H155892   2.451   1.203  12.105  1.5958 -2.3977  1.4245
11467TIP3    H255893   2.458   1.257  12.246 -1.4603  3.1554 -0.4070
11468TIP3   OH255894   5.569   0.587  14.840  0.1747 -0.0243  0.3345
11468TIP3    H155895   5.473   0.589  14.834  0.2469  1.5761 -0.4451
11468TIP3    H255896   5.595   0.678  14.835  1.6740 -0.3378  2.1353
11469TIP3   OH255897   1.990   4.401   1.507  0.6052 -0.2192 -0.0046
11469TIP3    H155898   2.011   4.492   1.525 -1.6904  0.2859  0.2466
11469TIP3    H255899   2.006   4.391   1.413 -1.6956  1.1826 -0.5675
11470TIP3   OH255900   2.243   5.623   0.644 -0.4044  0.1651  0.3324
11470TIP3    H155901   2.295   5.638   0.565 -0.7992  3.6204  0.6487
11470TIP3    H255902   2.181   5.555   0.619 -0.2046  0.8601 -2.1887
11471TIP3   OH255903   4.287   6.293   1.671  0.1616 -0.2752  0.3712
11471TIP3    H155904   4.204   6.301   1.624  1.0440  1.9976 -0.8721
11471TIP3    H255905   4.265   6.315   1.762 -0.6947 -0.2315  0.1575
11472TIP3   OH255906   1.857   6.543   5.123  0.5668  0.3159  0.3809
11472TIP3    H155907   1.786   6.521   5.063  1.0358 -1.9727  0.6267
11472TIP3    H255908   1.851   6.638   5.133 -1.0964  0.4197 -1.2875
11473TIP3   OH255909   3.830   4.018  13.163 -0.1972  0.1385 -0.4084
11473TIP3    H155910   3.803   3.930  13.137  0.1766 -0.2824  0.6022
11473TIP3    H255911   3.752   4.072  13.148 -1.3627 -0.9041  1.6741
11474TIP3   OH255912   5.196   4.825  15.992 -0.4373 -0.5320 -0.1723
11474TIP3    H155913   5.164   4.741  16.025 -0.0879 -0.3605  0.6182
11474TIP3    H255914   5.186   4.819  15.898 -1.5040 -1.0141 -0.0337
11475TIP3   OH255915   3.215   0.568  12.291  0.3596  0.4216  0.1943
11475TIP3    H155916   3.271   0.543  12.364 -2.7679 -2.9989  1.5777
11475TIP3    H255917   3.170   0.647  12.320  1.0195  0.5252  0.9308
11476TIP3   OH255918   3.450   4.467  11.763  0.1478  0.0385  0.1050
11476TIP3    H155919   3.460   4.389  11.708  0.2741  0.6390 -0.7309
11476TIP3    H255920   3.532   4.472  11.812 -0.1467 -0.7544  0.6901
11477TIP3   OH255921   5.957   0.960   6.685 -0.2393  0.4782  0.4222
11477TIP3    H155922   5.976   1.054   6.676  2.0570 -0.0699 -0.7078
11477TIP3    H255923   6.043   0.920   6.700 -1.2727 -1.3947  1.4291
11478TIP3   OH255924   4.144   2.909   0.776 -0.3356  0.1141 -0.0110
11478TIP3    H155925   4.144   2.925   0.870  0.0745  0.7774 -0.1163
11478TIP3    H255926   4.119   2.993   0.738  1.0660  0.3048 -0.5560
11479TIP3   OH255927   4.519   3.718  14.821 -0.3298 -0.1435  0.6764
11479TIP3    H155928   4.443   3.692  14.768 -0.1932 -0.2699  0.5387
11479TIP3    H255929   4.593   3.709  14.761 -0.4399  1.9147  0.2046
11480TIP3   OH255930   1.580   5.059  14.646 -0.7344  0.3625 -0.7154
11480TIP3    H155931   1.545   4.990  14.590  1.3112  0.2970 -1.9514
11480TIP3    H255932   1.555   5.033  14.735 -0.5681 -1.6292 -1.2393
11481TIP3   OH255933   5.060   1.249   5.371  0.1592 -0.0690  0.0980
11481TIP3    H155934   5.035   1.219   5.284 -0.7651 -1.5178  0.8315
11481TIP3    H255935   5.011   1.192   5.431  1.2125  0.5235  1.5637
11482TIP3   OH255936   5.611   2.924  16.974 -0.5988  0.5085 -0.1482
11482TIP3    H155937   5.628   2.835  17.006  1.8570  1.7330  2.2032
11482TIP3    H255938   5.623   2.918  16.879 -1.0630 -1.8018 -0.0857
11483TIP3   OH255939   2.808   2.390   0.460  0.4020  0.3891  0.3416
11483TIP3    H155940   2.819   2.325   0.530  0.1760  0.1009  0.1069
11483TIP3    H255941   2.865   2.360   0.390 -1.2693 -0.6896 -0.5822
11484TIP3   OH255942   5.268   2.868  11.728 -0.9142  0.7139  0.1162
11484TIP3    H155943   5.197   2.876  11.664 -0.7938  0.4877 -0.0484
11484TIP3    H255944   5.338   2.923  11.692 -1.0692  1.0774  0.3678
11485TIP3   OH255945   6.031   1.381   1.329 -0.0853  0.2077  0.1558
11485TIP3    H155946   6.066   1.468   1.350 -2.6423  1.2288  0.3616
11485TIP3    H255947   5.999   1.389   1.239 -0.7292 -0.3933  0.3285
11486TIP3   OH255948   0.858   0.674   1.646 -0.2016 -0.1175  0.2113
11486TIP3    H155949   0.907   0.653   1.726 -0.9276 -0.7021  0.5137
11486TIP3    H255950   0.925   0.686   1.579  0.4192  0.4285  0.9227
11487TIP3   OH255951   4.615   0.573  14.585  0.2366 -0.2190  0.6550
11487TIP3    H155952   4.577   0.659  14.600 -0.7059 -0.4730 -0.1953
11487TIP3    H255953   4.644   0.575  14.493 -0.5160 -1.0656  0.3899
11488TIP3   OH255954   6.524   4.591  12.275 -0.6051 -0.0440  0.1116
11488TIP3    H155955   6.544   4.502  12.247 -1.8371 -0.5409  0.7539
11488TIP3    H255956   6.533   4.644  12.196 -2.8298 -1.2329 -1.0050
11489TIP3   OH255957   5.047   3.181   3.044 -0.2203  0.7202 -0.4107
11489TIP3    H155958   5.010   3.118   3.106  0.7227  0.9995  0.4536
11489TIP3    H255959   5.141   3.180   3.061 -0.2225  2.6021 -0.1342
11490TIP3   OH255960   1.090   0.325   3.388 -0.1021  0.5087 -0.3333
11490TIP3    H155961   1.177   0.366   3.390  0.2873 -0.3902  1.9951
11490TIP3    H255962   1.079   0.297   3.297  1.9096  0.9088 -0.7194
11491TIP3   OH255963   3.545   2.108   4.547 -0.3025 -0.1714  0.6171
11491TIP3    H155964   3.602   2.090   4.622  0.0892 -0.7165  0.1899
11491TIP3    H255965   3.604   2.136   4.477 -0.7114  0.7767  0.6464
11492TIP3   OH255966   0.808   5.023  16.987  0.2815  0.6761 -0.2091
11492TIP3    H155967   0.760   5.051  16.909  0.9293  1.3794 -0.3606
11492TIP3    H255968   0.848   4.940  16.962  0.7225  1.0443 -0.7145
11493TIP3   OH255969   5.854   1.986   4.544 -0.0544 -0.4557  0.3045
11493TIP3    H155970   5.817   1.899   4.560  0.6415 -0.7663  0.2438
11493TIP3    H255971   5.910   1.974   4.467 -3.3193  1.0065 -2.4543
11494TIP3   OH255972   3.142   6.718  16.844 -0.0401  0.0963  0.0274
11494TIP3    H155973   3.070   6.709  16.781  2.0065 -0.1437 -2.3874
11494TIP3    H255974   3.164   6.628  16.868  1.0627  0.0342 -1.1747
11495TIP3   OH255975   2.684   5.084  13.722  0.5612  0.0142 -0.3469
11495TIP3    H155976   2.736   5.074  13.642  0.0117  1.1538 -0.8588
11495TIP3    H255977   2.652   4.996  13.741  1.7648 -0.4980 -0.6503
11496TIP3   OH255978   6.018   5.429  13.860 -0.4375  0.9289 -0.0407
11496TIP3    H155979   5.984   5.341  13.878 -0.3019  0.8791 -0.0239
11496TIP3    H255980   6.097   5.435  13.913  0.9302  0.1210 -1.9264
11497TIP3   OH255981   2.326   2.396   0.270 -0.2569 -0.0582  0.7845
11497TIP3    H155982   2.397   2.334   0.286  1.1748  1.9681  2.4328
11497TIP3    H255983   2.269   2.351   0.207  1.2931 -2.6006  1.1368
11498TIP3   OH255984   1.733   4.171  10.939  0.1316 -0.4235  0.5301
11498TIP3    H155985   1.732   4.248  10.881  0.1379 -0.7441  0.1057
11498TIP3    H255986   1.642   4.160  10.965  0.0231 -0.6844  0.0449
11499TIP3   OH255987   6.124   2.201  11.998  0.1495  0.1511 -0.0205
11499TIP3    H155988   6.204   2.213  11.946  0.1448 -0.8502 -0.2659
11499TIP3    H255989   6.106   2.108  11.993 -0.7684  0.2986  0.4456
11500TIP3   OH255990   5.830   6.483  13.725 -0.1269 -0.5339  0.4444
11500TIP3    H155991   5.916   6.511  13.754 -0.2428 -1.0848  1.3438
11500TIP3    H255992   5.776   6.562  13.729 -0.1133 -0.5846  1.6385
11501TIP3   OH255993   5.625   2.244   2.465  0.2383  0.1571  0.5095
11501TIP3    H155994   5.639   2.268   2.557 -1.0013 -0.7521  0.9457
11501TIP3    H255995   5.530   2.241   2.455  0.3666 -0.4943 -0.6178
11502TIP3   OH255996   0.431   4.947   3.786  0.1452  0.5721 -0.0828
11502TIP3    H155997   0.420   4.934   3.881 -0.7135 -2.4000 -0.5478
11502TIP3    H255998   0.518   4.913   3.767 -0.4564 -0.7112 -0.6414
11503TIP3   OH255999   5.051   0.806   3.271  0.2412 -0.2278 -0.0936
11503TIP3    H156000   4.967   0.825   3.312 -0.0619  0.1596 -0.8929
11503TIP3    H256001   5.040   0.833   3.180  2.3615  3.2585  0.5814
11504TIP3   OH256002   5.109   6.125   4.836 -0.1324 -0.1919  0.9087
11504TIP3    H156003   5.041   6.192   4.832 -0.2869 -0.3205  1.3449
11504TIP3    H256004   5.185   6.170   4.872  0.8373  0.6151 -2.0020
11505TIP3   OH256005   0.531   0.661  14.085  0.4962  0.0334  0.2456
11505TIP3    H156006   0.476   0.665  14.163 -0.2199  1.0455 -0.3002
11505TIP3    H256007   0.577   0.577  14.093  2.2220  1.1953  2.9221
11506TIP3   OH256008   1.164   0.895  17.189  0.1873  0.0657  0.2801
11506TIP3    H156009   1.098   0.869  17.124  1.3172 -2.2400 -0.0179
11506TIP3    H256010   1.231   0.940  17.137  0.4817 -0.6491  0.0344
11507TIP3   OH256011   0.775   1.370  11.634  0.3875  0.0454  0.3811
11507TIP3    H156012   0.700   1.329  11.591  0.6836  1.0975 -1.1675
11507TIP3    H256013   0.845   1.305  11.629  0.0402 -0.3340  0.4383
11508TIP3   OH256014   4.670   1.558  14.931  0.7379 -0.0721  0.0280
11508TIP3    H156015   4.603   1.490  14.927  0.3985  0.2606 -0.0155
11508TIP3    H256016   4.678   1.578  15.024  0.9551 -0.2880  0.0573
11509TIP3   OH256017   5.742   4.187   3.107  0.4043  0.1106 -0.2432
11509TIP3    H156018   5.709   4.272   3.077  2.6204  1.6177  1.4049
11509TIP3    H256019   5.708   4.179   3.196 -1.2703 -1.6042 -1.0007
11510TIP3   OH256020   4.262   1.941  10.939 -0.3047 -0.1237 -0.1888
11510TIP3    H156021   4.221   1.909  11.019  0.0592  0.9664  0.4374
11510TIP3    H256022   4.284   2.032  10.958  0.9807 -0.2377 -1.0603
11511TIP3   OH256023   0.864   3.288  14.873 -0.4389 -0.3504  0.4288
11511TIP3    H156024   0.867   3.223  14.943 -2.8054 -1.0540 -0.0804
11511TIP3    H256025   0.793   3.258  14.816  1.5714  0.0475 -2.4251
11512TIP3   OH256026   0.269   3.394   2.929 -0.1531  0.0931 -0.1022
11512TIP3    H156027   0.285   3.428   3.017  2.0966 -0.6460 -0.1754
11512TIP3    H256028   0.254   3.300   2.941 -0.0214  0.0208 -0.4783
11513TIP3   OH256029   5.932   2.716  11.929 -0.0756  0.0000  0.1449
11513TIP3    H156030   5.939   2.631  11.973  2.6132  0.5962  0.9777
11513TIP3    H256031   5.938   2.780  12.000 -0.3970  0.9159 -0.6439
11514TIP3   OH256032   6.469   5.152   4.268 -0.4161 -0.7106 -0.3853
11514TIP3    H156033   6.395   5.141   4.327  0.3912  2.2305  1.3195
11514TIP3    H256034   6.541   5.105   4.310  0.3042  1.8571  1.3323
11515TIP3   OH256035   4.091   2.788  15.208 -0.2498  0.3505  0.6559
11515TIP3    H156036   4.127   2.764  15.122  0.5982 -2.3819  1.7092
11515TIP3    H256037   4.135   2.870  15.230 -0.5124  1.1097 -1.5281
11516TIP3   OH256038   0.118   3.517   2.484  0.8121 -0.3743 -0.5354
11516TIP3    H156039   0.141   3.436   2.438 -1.4985 -0.8622 -0.8862
11516TIP3    H256040   0.099   3.580   2.414  1.0313 -0.0072 -0.2629
11517TIP3   OH256041   3.443   4.596  11.467 -0.1297 -0.7613 -0.1992
11517TIP3    H156042   3.442   4.660  11.538 -0.6441  0.1336 -1.0121
11517TIP3    H256043   3.464   4.513  11.510  0.8307 -0.0011  0.8045
11518TIP3   OH256044   4.275   2.142   2.250  0.0264  0.3987  0.1622
11518TIP3    H156045   4.273   2.238   2.252 -0.1707  0.4631 -2.0678
11518TIP3    H256046   4.367   2.120   2.245  0.0551  0.4719  0.3513
11519TIP3   OH256047   2.154   6.646   2.028  0.1768 -0.9762  0.5486
11519TIP3    H156048   2.146   6.633   2.122 -0.8426  0.2180  0.6346
11519TIP3    H256049   2.092   6.716   2.008  0.1484 -1.4386 -1.0577
11520TIP3   OH256050   0.034   1.473   3.967 -0.3571 -0.5168  0.1036
11520TIP3    H156051   0.048   1.550   3.911  1.1839 -2.6330 -2.5510
11520TIP3    H256052  -0.056   1.447   3.950 -0.4435 -0.1196 -0.0555
11521TIP3   OH256053   4.813   2.994  12.529 -0.1975  0.4284 -0.1337
11521TIP3    H156054   4.861   2.911  12.528  1.2256  1.2238 -0.5135
11521TIP3    H256055   4.795   3.011  12.436 -2.1967 -0.3943  0.0855
11522TIP3   OH256056   0.946   4.742   4.186 -0.0846  0.1327  0.0120
11522TIP3    H156057   0.865   4.764   4.232  1.6551  0.1629  3.2680
11522TIP3    H256058   0.929   4.657   4.147 -1.7511  0.2202  0.5129
11523TIP3   OH256059   4.182   5.366  11.854 -0.2227  0.6311 -0.3717
11523TIP3    H156060   4.234   5.288  11.839 -1.2132 -0.3604  1.1534
11523TIP3    H256061   4.135   5.348  11.936 -1.8735  2.0551 -0.9739
11524TIP3   OH256062   3.850   0.063  15.246 -0.1199 -0.3043 -0.4801
11524TIP3    H156063   3.925   0.054  15.306  0.7836 -0.5263 -1.6323
11524TIP3    H256064   3.836  -0.026  15.213 -1.1808 -0.3436  0.0646
11525TIP3   OH256065   0.762   4.248  16.344  0.4380  0.3079  0.2871
11525TIP3    H156066   0.843   4.278  16.303  0.1991 -1.2270 -1.3721
11525TIP3    H256067   0.694   4.306  16.308  0.4007 -0.2755 -0.6160
11526TIP3   OH256068   6.663   6.211   2.602  0.0061 -0.0853 -0.1096
11526TIP3    H156069   6.747   6.215   2.648 -0.1008  0.4880  0.0398
11526TIP3    H256070   6.672   6.273   2.530 -0.5580  0.5457  0.3571
11527TIP3   OH256071   6.582   3.388   0.507 -0.4096 -0.0092 -0.0936
11527TIP3    H156072   6.621   3.310   0.465  1.3114 -0.2182  1.7992
11527TIP3    H256073   6.606   3.379   0.599 -1.9008  1.7786  0.4783
11528TIP3   OH256074   5.598   5.315  12.868 -0.0254 -0.7958  0.6887
11528TIP3    H156075   5.687   5.300  12.836 -0.2594  0.1039 -0.4132
11528TIP3    H256076   5.547   5.336  12.789 -0.9324 -0.0183  1.4614
11529TIP3   OH256077   1.629   2.532  14.026  0.3320  0.1727 -0.3021
11529TIP3    H156078   1.570   2.587  14.077  0.2612  0.9301 -1.1845
11529TIP3    H256079   1.605   2.550  13.935  0.8248 -0.7459 -0.6179
11530TIP3   OH256080   6.011   6.014   5.229 -0.7277 -0.0017  0.6657
11530TIP3    H156081   6.013   5.940   5.169  1.4790  0.0496  0.6496
11530TIP3    H256082   5.984   6.089   5.175  0.6625 -0.0727 -0.1412
11531TIP3   OH256083   2.738   3.014   1.105 -0.3838  0.4609  0.2647
11531TIP3    H156084   2.793   3.016   1.183  1.3236 -1.2590 -0.8428
11531TIP3    H256085   2.798   2.990   1.034 -2.2401  0.2111 -1.2621
11532TIP3   OH256086   0.629   4.074   1.286 -0.3276  0.0504  0.5322
11532TIP3    H156087   0.687   4.016   1.236 -1.0868  0.2824 -0.6282
11532TIP3    H256088   0.564   4.103   1.223 -1.6151 -0.0653  1.7758
11533TIP3   OH256089   0.801   1.865  11.674  0.7753 -0.5198 -0.4219
11533TIP3    H156090   0.840   1.784  11.643  1.0711  0.1483 -1.8217
11533TIP3    H256091   0.801   1.857  11.770  1.6154 -1.7733 -0.5247
11534TIP3   OH256092   2.315   2.656   0.224 -0.0916  0.1728 -0.1689
11534TIP3    H156093   2.324   2.566   0.256 -0.1831 -0.1637 -1.0591
11534TIP3    H256094   2.226   2.660   0.190 -0.0180  0.5430 -0.3179
11535TIP3   OH256095   6.728   6.059  14.591 -0.4686  0.3414  0.3670
11535TIP3    H156096   6.782   6.077  14.514  1.4139  2.4107  2.1224
11535TIP3    H256097   6.790   6.023  14.655 -1.5740  0.7422  1.6731
11536TIP3   OH256098   3.400   1.731  10.885  0.2034  0.5310  0.2604
11536TIP3    H156099   3.466   1.800  10.886  0.6077  0.1397  0.5782
11536TIP3    H256100   3.393   1.706  10.793  0.7660  0.3157  0.2745
11537TIP3   OH256101   6.619   0.249  16.715 -0.1904  0.4145 -0.3768
11537TIP3    H156102   6.706   0.286  16.726 -0.5310  1.6982 -1.8182
11537TIP3    H256103   6.570   0.280  16.791  0.7141 -0.6791  0.6716
11538TIP3   OH256104   3.106   1.667  11.396  0.0982 -0.1498 -0.7063
11538TIP3    H156105   3.097   1.571  11.396  0.2411 -0.1727  0.7992
11538TIP3    H256106   3.150   1.686  11.313 -0.4314 -1.3380 -1.2733
11539TIP3   OH256107   6.447   1.459   6.295  0.2355 -0.2807 -0.6701
11539TIP3    H156108   6.530   1.417   6.272 -1.3182 -3.3585 -1.0059
11539TIP3    H256109   6.458   1.485   6.386  2.0589  0.6278 -1.1399
11540TIP3   OH256110   1.710   1.069  11.388 -0.1996 -0.0234  0.4686
11540TIP3    H156111   1.731   1.152  11.430 -2.1149  0.4358  0.6022
11540TIP3    H256112   1.773   1.007  11.424 -1.5795  0.4168  3.8662
11541TIP3   OH256113   6.515   0.107  15.832 -0.5796 -0.0755  0.1208
11541TIP3    H156114   6.574   0.154  15.891 -0.4256 -3.8166  3.1355
11541TIP3    H256115   6.428   0.141  15.854 -0.1322  1.4575 -0.4114
11542TIP3   OH256116   1.227   4.403  12.739 -0.0132 -0.0642 -0.7530
11542TIP3    H156117   1.312   4.408  12.696 -0.2995  0.8621 -1.2360
11542TIP3    H256118   1.171   4.358  12.676 -0.0148 -0.1990 -0.6561
11543TIP3   OH256119   5.474   2.894  16.162 -0.4134 -0.0740  0.0067
11543TIP3    H156120   5.558   2.905  16.116  0.3054 -0.5333  1.1695
11543TIP3    H256121   5.424   2.972  16.139  0.5349  0.4658 -0.2867
11544TIP3   OH256122   0.749   3.926  16.635  0.4246  0.3985  0.3903
11544TIP3    H156123   0.752   3.872  16.556 -0.1218 -1.2917  1.5027
11544TIP3    H256124   0.840   3.927  16.667  0.5523  0.6662  0.0233
11545TIP3   OH256125   5.222   5.023  12.732  0.0064  0.0749  0.0318
11545TIP3    H156126   5.171   5.103  12.718  0.5015  0.4597  0.3755
11545TIP3    H256127   5.303   5.037  12.683  0.3219  0.0135  0.5278
11546TIP3   OH256128   0.555   3.031   1.630 -0.0732 -0.4367 -0.1237
11546TIP3    H156129   0.613   3.069   1.564  1.7950 -0.5347  1.4397
11546TIP3    H256130   0.594   3.054   1.713 -1.3680 -1.9709  0.9488
11547TIP3   OH256131   6.013   3.386  12.409  0.4756  0.2464 -0.0011
11547TIP3    H156132   6.004   3.291  12.402 -1.4821  0.3198  1.1975
11547TIP3    H256133   6.049   3.412  12.324  1.4713 -1.5960 -0.1787
11548TIP3   OH256134   0.744   2.163   1.559 -0.3915  0.3596  0.2227
11548TIP3    H156135   0.662   2.203   1.587 -0.2796 -0.4363  1.7681
11548TIP3    H256136   0.730   2.069   1.569  0.7150  0.2172  0.5397
11549TIP3   OH256137   1.116   3.826   0.015 -0.1533  0.3571 -0.4563
11549TIP3    H156138   1.073   3.908   0.037 -2.0027 -1.0848  1.5320
11549TIP3    H256139   1.139   3.787   0.099  3.0769  0.0056 -1.4170
11550TIP3   OH256140   6.733   3.165  14.358 -0.3283 -0.0665 -0.1619
11550TIP3    H156141   6.783   3.136  14.434 -1.2583 -1.2545  0.0029
11550TIP3    H256142   6.745   3.096  14.293  0.1162  0.7414 -0.9506
11551TIP3   OH256143   0.827   3.072   5.786  0.0621 -0.1837 -0.3199
11551TIP3    H156144   0.825   3.162   5.818 -0.7646 -0.1397 -0.4925
11551TIP3    H256145   0.751   3.030   5.827  0.4747 -0.8143 -0.1994
11552TIP3   OH256146   4.067   4.514   0.263 -0.1518 -0.3556  0.3156
11552TIP3    H156147   4.077   4.608   0.277  0.9503 -0.4565  0.2324
11552TIP3    H256148   3.972   4.499   0.267 -0.1922  0.3821  2.7752
11553TIP3   OH256149   2.494   6.621   1.839 -0.5872  0.3306 -0.0669
11553TIP3    H156150   2.502   6.532   1.875 -0.7363 -0.0517 -0.9630
11553TIP3    H256151   2.565   6.670   1.881 -0.7697 -0.1061  0.7562
11554TIP3   OH256152   5.812   6.362  15.831 -0.0504  0.4055 -0.3018
11554TIP3    H156153   5.723   6.377  15.799  0.2110 -1.0620 -1.7917
11554TIP3    H256154   5.833   6.273  15.803  1.4318  0.2810  1.1458
11555TIP3   OH256155   5.291   0.228   4.014  0.8649 -0.0469 -0.0308
11555TIP3    H156156   5.261   0.258   3.928  0.9641 -1.1528 -0.4517
11555TIP3    H256157   5.213   0.230   4.069  0.4949 -0.7616 -0.5316
11556TIP3   OH256158   2.241   2.812   6.436  0.1388  0.0821  0.2969
11556TIP3    H156159   2.260   2.896   6.478  2.4847 -0.9541  1.3956
11556TIP3    H256160   2.208   2.757   6.507  0.3498 -0.4885 -0.0484
11557TIP3   OH256161   4.167   2.330  13.856 -0.5185  0.6784 -0.0529
11557TIP3    H156162   4.176   2.295  13.944  1.7933  2.8529  0.6377
11557TIP3    H256163   4.214   2.413  13.858 -2.2663  1.8253 -2.7564
11558TIP3   OH256164   2.352   6.177  13.692  0.4244 -0.5552 -0.4877
11558TIP3    H156165   2.397   6.247  13.738 -0.9839 -1.4534  2.4048
11558TIP3    H256166   2.266   6.213  13.671  0.3742 -0.7757 -0.6658
11559TIP3   OH256167   0.358   2.489   6.555 -0.1057  0.1156 -0.5317
11559TIP3    H156168   0.400   2.481   6.640 -1.7886 -3.2410  0.0796
11559TIP3    H256169   0.412   2.437   6.496 -0.5723 -0.0054 -0.8553
11560TIP3   OH256170   3.609   0.802  16.369  0.1269 -0.2898  0.4097
11560TIP3    H156171   3.668   0.726  16.363 -0.8590 -0.9915 -0.7732
11560TIP3    H256172   3.543   0.786  16.301 -2.4199 -0.3773  2.8247
11561TIP3   OH256173   0.850   2.023  16.440  0.3066  0.5509 -0.3143
11561TIP3    H156174   0.784   1.991  16.379  0.1984  0.3833 -0.1102
11561TIP3    H256175   0.926   1.966  16.426  0.3559  0.6498 -0.4465
11562TIP3   OH256176   3.028   3.396   2.378  0.0635 -0.4784 -0.1854
11562TIP3    H156177   3.034   3.375   2.472 -1.7688 -0.2606 -0.0027
11562TIP3    H256178   2.950   3.350   2.348  1.2199 -1.4085 -1.8674
11563TIP3   OH256179   5.906   0.220   0.740 -0.5627  0.4764 -0.6728
11563TIP3    H156180   5.972   0.267   0.688  1.0852 -0.5615  0.4420
11563TIP3    H256181   5.924   0.245   0.830  0.3065 -2.2090 -0.0542
11564TIP3   OH256182   4.270   6.682   3.446 -0.2792 -0.2237  0.0464
11564TIP3    H156183   4.358   6.713   3.425 -0.1919 -0.5396 -0.0464
11564TIP3    H256184   4.217   6.711   3.372 -0.0997 -0.7459 -0.2861
11565TIP3   OH256185   0.553   6.132  13.600  0.3067  0.0631  0.2742
11565TIP3    H156186   0.495   6.172  13.666 -0.4702  0.2222 -0.4978
11565TIP3    H256187   0.497   6.069  13.554  0.9044 -0.1986 -0.0969
11566TIP3   OH256188   0.777   4.854   6.538 -0.1147 -0.0603 -0.1148
11566TIP3    H156189   0.718   4.884   6.468 -0.9973 -2.9314 -0.6694
11566TIP3    H256190   0.731   4.873   6.619 -1.1964 -0.9596 -0.5049
11567TIP3   OH256191   6.126   5.383   6.772  0.4712  0.5467  0.4010
11567TIP3    H156192   6.078   5.309   6.808  3.5742 -2.3088 -1.0817
11567TIP3    H256193   6.126   5.448   6.842  0.5459 -2.1847  3.0083
11568TIP3   OH256194   6.027   3.114  12.017 -0.1748 -0.2253 -0.0314
11568TIP3    H156195   6.102   3.086  11.964  0.5294  0.5948  0.5077
11568TIP3    H256196   6.011   3.041  12.077  0.1515 -0.4338 -0.1937
11569TIP3   OH256197   3.460   6.735   2.182 -0.3361 -0.5532  0.2900
11569TIP3    H156198   3.490   6.732   2.273  1.8586  0.4106 -0.3697
11569TIP3    H256199   3.452   6.829   2.163  1.4330 -0.6798 -1.1907
11570TIP3   OH256200   3.906   0.383   3.198  0.4398 -0.3102 -0.0568
11570TIP3    H156201   3.893   0.431   3.116 -0.3436 -0.6323 -0.1316
11570TIP3    H256202   3.833   0.321   3.200  0.1337  0.0898  1.1606
11571TIP3   OH256203   1.287   0.649  15.308 -0.0844 -0.1620  0.1001
11571TIP3    H156204   1.331   0.563  15.313 -0.2704 -0.1534  2.4506
11571TIP3    H256205   1.197   0.631  15.334 -0.9474  0.2322 -2.4838
11572TIP3   OH256206   1.476   6.583   2.254  0.5250  0.5827 -0.0333
11572TIP3    H156207   1.454   6.533   2.176 -0.5611  0.2530  0.4675
11572TIP3    H256208   1.517   6.519   2.313 -0.8777  0.2592  0.6127
11573TIP3   OH256209   4.729   1.021   5.949  0.3202 -0.4829 -0.0978
11573TIP3    H156210   4.659   1.012   5.884  1.0299 -1.6499 -0.7254
11573TIP3    H256211   4.700   1.091   6.007 -1.3765 -0.9798 -0.3365
11574TIP3   OH256212   0.665   0.311   2.158 -0.3244 -0.5477  0.1746
11574TIP3    H156213   0.614   0.303   2.238 -0.5574  0.0674  0.0873
11574TIP3    H256214   0.600   0.329   2.090 -0.1337 -1.1230 -0.1644
11575TIP3   OH256215   0.868   4.406   1.912  0.5509  0.6114  0.1337
11575TIP3    H156216   0.924   4.473   1.871  1.1511  0.8883  1.3722
11575TIP3    H256217   0.893   4.407   2.004  0.7762 -1.5500  0.1226
11576TIP3   OH256218   3.839   1.718  14.126 -0.0560  0.3972  0.0324
11576TIP3    H156219   3.816   1.811  14.129  0.4355  0.5371 -0.3883
11576TIP3    H256220   3.789   1.683  14.052 -0.3298  0.3040  0.2634
11577TIP3   OH256221   4.836   1.788  16.016 -0.0342  0.1959 -0.1618
11577TIP3    H156222   4.883   1.839  15.950  1.3805  0.0364  0.6872
11577TIP3    H256223   4.777   1.850  16.057  0.3236  0.7081 -0.4126
11578TIP3   OH256224   3.411   2.513   3.578 -0.2060 -0.4234 -0.2446
11578TIP3    H156225   3.376   2.594   3.540 -0.3782 -0.3992 -0.0361
11578TIP3    H256226   3.460   2.543   3.655  1.5298 -0.3019 -1.3566
11579TIP3   OH256227   4.951   0.191   1.718  0.3336  0.0833 -0.2402
11579TIP3    H156228   4.981   0.133   1.647 -0.0859 -0.5914  0.1284
11579TIP3    H256229   5.017   0.181   1.786 -0.3537 -0.8688  0.2934
11580TIP3   OH256230   1.526   2.129  11.750  0.3649 -0.4544 -0.2053
11580TIP3    H156231   1.601   2.089  11.794 -1.3018 -1.2579  2.0099
11580TIP3    H256232   1.481   2.056  11.708 -1.4317 -0.6293  1.9450
11581TIP3   OH256233   4.340   6.023   6.133 -0.3268 -0.5851 -0.1717
11581TIP3    H156234   4.361   6.045   6.224  2.0788  1.7374 -1.2382
11581TIP3    H256235   4.246   6.004   6.135 -0.3351 -0.5193  2.7806
11582TIP3   OH256236   0.360   1.755  15.478  0.2730  0.2968  0.1072
11582TIP3    H156237   0.296   1.808  15.524 -0.7308  0.1341 -1.0793
11582TIP3    H256238   0.380   1.683  15.538 -2.8916 -1.2965 -0.6686
11583TIP3   OH256239   2.652   5.225  16.845  0.3106  0.5130  0.0354
11583TIP3    H156240   2.667   5.134  16.820  0.1754  0.3542  0.5195
11583TIP3    H256241   2.616   5.220  16.934  1.2521  1.0727  0.4644
11584TIP3   OH256242   3.493   6.639   0.322 -0.9153 -0.0552  0.0798
11584TIP3    H156243   3.487   6.733   0.306 -0.1274  0.5102  2.9480
11584TIP3    H256244   3.473   6.628   0.414  0.2153 -2.5738  0.0775
11585TIP3   OH256245   4.463   0.673   2.655 -0.4287  0.3893 -0.4202
11585TIP3    H156246   4.558   0.663   2.657 -0.7381 -3.4519 -1.1592
11585TIP3    H256247   4.446   0.738   2.587  1.6002 -0.4418 -1.7551
11586TIP3   OH256248   1.237   2.873  15.391  0.5277 -0.2846 -0.1159
11586TIP3    H156249   1.248   2.779  15.403  1.6437 -0.3020 -1.1839
11586TIP3    H256250   1.164   2.881  15.330 -0.0818 -0.4259  0.5876
11587TIP3   OH256251   2.442   3.087   2.187  0.2438 -0.2232 -0.4346
11587TIP3    H156252   2.373   3.142   2.151 -1.1810 -1.4700  0.3848
11587TIP3    H256253   2.442   3.108   2.281 -0.6649 -2.0016 -0.0276
11588TIP3   OH256254   0.863   1.139   2.897  0.4812  0.0672  0.5984
11588TIP3    H156255   0.838   1.084   2.971  0.0658  2.7526  2.5420
11588TIP3    H256256   0.793   1.206   2.892  0.9125  0.3882 -1.7226
11589TIP3   OH256257   4.375   1.885   5.856  0.2935 -0.5037 -0.3692
11589TIP3    H156258   4.352   1.832   5.779  0.5951 -2.1868  0.6781
11589TIP3    H256259   4.330   1.842   5.929  0.0610  1.0449  0.4116
11590TIP3   OH256260   2.247   2.651   1.027 -0.1788 -0.2887  0.2674
11590TIP3    H156261   2.252   2.731   1.080 -0.5179 -0.4325  0.5133
11590TIP3    H256262   2.222   2.583   1.089 -0.0144 -0.5641  0.0304
11591TIP3   OH256263   0.765   5.741   1.220  0.2745 -0.2805 -0.1495
11591TIP3    H156264   0.783   5.647   1.223  0.0266 -0.3036  0.7389
11591TIP3    H256265   0.680   5.746   1.176 -0.3432 -0.5665  0.9962
11592TIP3   OH256266   2.913   5.451   2.948 -0.7953  0.0717 -0.4257
11592TIP3    H156267   2.862   5.508   2.892 -0.4970  1.3538  0.5903
11592TIP3    H256268   2.926   5.501   3.029 -0.7983 -1.5331  0.6070
11593TIP3   OH256269   5.739   0.810  13.782  0.3049  0.1379 -0.1719
11593TIP3    H156270   5.663   0.823  13.837 -0.0122 -1.0695 -0.3073
11593TIP3    H256271   5.814   0.817  13.841 -0.0230 -0.9350  0.3776
11594TIP3   OH256272   0.940   3.267  11.036  0.9596  0.4642 -0.2454
11594TIP3    H156273   0.975   3.178  11.039  1.5567  0.7369  1.9619
11594TIP3    H256274   1.017   3.323  11.027  0.5287  0.7389 -2.4236
11595TIP3   OH256275   5.078   6.133   2.333 -0.3344 -0.0854  0.7826
11595TIP3    H156276   5.012   6.198   2.311 -0.9989 -0.9544  0.2005
11595TIP3    H256277   5.142   6.139   2.262 -0.3985 -0.0811  0.7255
11596TIP3   OH256278   0.823   0.019  15.870 -0.2564 -0.5207 -0.1939
11596TIP3    H156279   0.832   0.102  15.822 -2.5722 -0.2716 -0.2398
11596TIP3    H256280   0.859   0.037  15.956  3.9450 -0.9542 -1.7460
11597TIP3   OH256281   4.667   5.874   0.281 -0.0226 -0.2950  0.5564
11597TIP3    H156282   4.642   5.966   0.265  0.3808  0.0292  1.7889
11597TIP3    H256283   4.638   5.828   0.202  1.1639  1.1497 -0.7687
11598TIP3   OH256284   4.696   1.626  15.200 -0.4267 -0.6460 -0.1066
11598TIP3    H156285   4.742   1.707  15.223 -1.3677  0.0395 -0.5685
11598TIP3    H256286   4.698   1.573  15.279  0.1914 -0.1600  0.2053
11599TIP3   OH256287   0.608   6.253  17.202  0.0896 -0.4107  0.4364
11599TIP3    H156288   0.561   6.177  17.236  0.5069 -1.0974 -0.5039
11599TIP3    H256289   0.624   6.232  17.110  0.1244  0.8593  0.1454
11600TIP3   OH256290   1.028   0.516  13.046 -0.2538 -0.6108 -0.0093
11600TIP3    H156291   1.082   0.465  13.107  0.9139  0.6796  0.0437
11600TIP3    H256292   0.994   0.588  13.098 -0.3394 -0.2490 -0.5618
11601TIP3   OH256293   2.852   1.048  11.333  0.8998  0.1928  0.5155
11601TIP3    H156294   2.814   1.043  11.245  2.0005  0.8281 -0.0057
11601TIP3    H256295   2.795   1.108  11.380 -0.5980 -1.3697  0.7035
11602TIP3   OH256296   1.104   1.728   5.516  0.1890 -0.3094  0.6429
11602TIP3    H156297   1.072   1.818   5.504  1.3399  0.3725  2.4670
11602TIP3    H256298   1.026   1.674   5.504 -0.1192  0.7558 -2.5278
11603TIP3   OH256299   6.504   4.439  11.952  0.3162 -0.2942 -0.2185
11603TIP3    H156300   6.548   4.467  11.872 -0.9172  0.2339 -0.7236
11603TIP3    H256301   6.466   4.353  11.930  2.3576 -1.4675  0.6917
11604TIP3   OH256302   1.384   6.182  11.080 -0.3498 -0.1024 -0.5189
11604TIP3    H156303   1.363   6.264  11.124 -1.0857  0.1156 -1.2767
11604TIP3    H256304   1.301   6.135  11.073 -0.0253 -0.6847 -0.5636
11605TIP3   OH256305   3.995   1.561  10.341 -0.3449 -0.4524  0.3768
11605TIP3    H156306   4.064   1.625  10.322  0.5585 -1.4293  0.3317
11605TIP3    H256307   4.035   1.500  10.403 -1.9142  0.2696  2.1522
11606TIP3   OH256308   6.452   2.622  11.504 -0.5411  0.7881  0.0135
11606TIP3    H156309   6.416   2.546  11.458 -0.4067 -0.5357  2.0346
11606TIP3    H256310   6.403   2.696  11.470 -3.1665 -0.6370  0.5805
11607TIP3   OH256311   6.449   4.356   0.689  0.0759  0.5428  0.0202
11607TIP3    H156312   6.442   4.276   0.636  0.7298  1.2363 -1.1225
11607TIP3    H256313   6.519   4.406   0.648  0.6078  1.0819  1.5646
11608TIP3   OH256314   3.454   0.787  11.943  0.0766  0.3705  0.4343
11608TIP3    H156315   3.363   0.758  11.939  0.0711  0.5819 -1.0828
11608TIP3    H256316   3.502   0.725  11.888  0.6647  0.9396  0.2976
11609TIP3   OH256317   4.545   1.590   1.096 -0.9709 -0.0549 -0.3790
11609TIP3    H156318   4.619   1.600   1.155  0.4984  0.5933 -2.2817
11609TIP3    H256319   4.536   1.495   1.084 -2.8332 -0.3492  2.7176
11610TIP3   OH256320   5.720   4.683  11.998 -0.4937  0.0391  0.2668
11610TIP3    H156321   5.698   4.731  11.919 -0.4165  0.1283  0.2991
11610TIP3    H256322   5.812   4.660  11.988  0.1237  1.9393  1.2975
11611TIP3   OH256323   0.358   6.362   5.933  0.4347  0.1199 -0.0281
11611TIP3    H156324   0.289   6.354   5.867 -0.0779 -1.0668  0.6440
11611TIP3    H256325   0.311   6.374   6.016  1.0336 -0.7613  0.4449
11612TIP3   OH256326   1.074   1.591   4.726  0.0190  0.2551 -0.1813
11612TIP3    H156327   1.123   1.583   4.644 -1.7733 -2.0467 -1.0765
11612TIP3    H256328   1.138   1.567   4.794 -0.2014 -4.4111 -1.4559
11613TIP3   OH256329   2.608   3.874   2.658  0.0304  0.4835  0.1585
11613TIP3    H156330   2.581   3.943   2.719  1.0618  1.6555 -0.6785
11613TIP3    H256331   2.693   3.845   2.690  0.1570  0.4571 -0.1954
11614TIP3   OH256332   5.415   0.829  16.910  0.1054  0.3775  0.6293
11614TIP3    H156333   5.431   0.739  16.937  0.7267  0.6571  1.1938
11614TIP3    H256334   5.377   0.821  16.823  1.6145 -0.3619  0.0204
11615TIP3   OH256335   3.127   5.612  16.665  0.2347  0.6174  0.3814
11615TIP3    H156336   3.085   5.673  16.603 -2.1656 -1.4061 -0.0331
11615TIP3    H256337   3.085   5.528  16.648  1.9888 -0.7113  2.4458
11616TIP3   OH256338   5.014   5.463   1.788  0.2444 -0.0636 -0.2203
11616TIP3    H156339   5.068   5.398   1.742 -0.2166 -0.2066 -0.5616
11616TIP3    H256340   4.965   5.413   1.852 -0.2450 -0.0789 -0.6037
11617TIP3   OH256341   4.323   1.452  16.132 -0.0995  0.3451  0.0259
11617TIP3    H156342   4.258   1.419  16.194 -0.0358  1.3495  0.6416
11617TIP3    H256343   4.273   1.472  16.053 -0.4971  0.9169  0.4260
11618TIP3   OH256344   4.939   4.959   6.470 -0.0700  0.1223 -0.7735
11618TIP3    H156345   4.853   5.000   6.480 -0.2239 -0.2669 -0.4603
11618TIP3    H256346   4.924   4.867   6.489  0.8697  0.4340  1.7807
11619TIP3   OH256347   1.094   1.523   1.182  0.2297  0.2045 -0.0117
11619TIP3    H156348   1.101   1.581   1.258  0.7516 -0.6858  0.6264
11619TIP3    H256349   1.156   1.452   1.200 -1.5967 -1.4260 -0.0097
11620TIP3   OH256350   1.733   4.521  14.064  0.4425 -0.4286  0.2952
11620TIP3    H156351   1.741   4.615  14.078 -2.1470 -0.0484 -0.5882
11620TIP3    H256352   1.816   4.496  14.024  1.4331  1.3442  1.1870
11621TIP3   OH256353   6.557   0.908   5.928  0.0355  0.5865 -0.2178
11621TIP3    H156354   6.588   0.829   5.971 -0.8715  0.2641 -0.1362
11621TIP3    H256355   6.468   0.919   5.960 -1.1790 -0.4246 -2.9917
11622TIP3   OH256356   2.877   1.778  16.705  0.0823 -0.1207  0.0430
11622TIP3    H156357   2.857   1.729  16.785 -1.6578 -0.4159 -0.5508
11622TIP3    H256358   2.925   1.715  16.650 -1.3013 -0.8943 -0.3202
11623TIP3   OH256359   1.219   4.297  14.073  0.6064 -0.1543  0.1184
11623TIP3    H156360   1.173   4.362  14.125  0.3567 -0.2107 -0.0316
11623TIP3    H256361   1.230   4.222  14.131 -0.0134 -0.3626 -0.0314
11624TIP3   OH256362   2.158   0.156  15.318  0.0788  0.2199 -0.7963
11624TIP3    H156363   2.092   0.218  15.348  0.0943 -0.6975  1.2190
11624TIP3    H256364   2.112   0.072  15.314  0.7139 -0.1315 -0.8855
11625TIP3   OH256365   4.452   5.038  16.310 -0.3473  0.1414  0.1416
11625TIP3    H156366   4.458   4.961  16.254  1.2242 -0.7561  1.4599
11625TIP3    H256367   4.508   5.017  16.385 -2.2080  1.3803  1.9351
11626TIP3   OH256368   3.829   5.814   0.677  0.3305 -0.2813  0.2591
11626TIP3    H156369   3.908   5.771   0.643 -0.6963 -0.8380 -1.5071
11626TIP3    H256370   3.769   5.741   0.695 -0.4092  0.2399 -0.0928
11627TIP3   OH256371   6.217   0.816  15.127 -0.0646 -0.7434 -0.5103
11627TIP3    H156372   6.225   0.907  15.101  1.8820 -0.4965  0.9277
11627TIP3    H256373   6.284   0.770  15.076 -0.2587 -1.2022 -0.3594
11628TIP3   OH256374   6.515   6.501  12.556 -0.2742  0.7140 -0.3984
11628TIP3    H156375   6.598   6.471  12.595 -0.9134 -1.4954 -0.6749
11628TIP3    H256376   6.531   6.498  12.461 -1.0560 -0.9098 -0.4874
11629TIP3   OH256377   2.058   4.983  11.697 -0.0188  0.5817  0.5245
11629TIP3    H156378   2.091   5.061  11.653 -0.0319 -0.6825 -1.7990
11629TIP3    H256379   2.133   4.949  11.746  1.3832 -0.5883 -2.3219
11630TIP3   OH256380   1.307   3.167  15.399  0.1316  0.1309 -0.1412
11630TIP3    H156381   1.262   3.082  15.396  0.2138  0.1451 -2.5920
11630TIP3    H256382   1.242   3.227  15.435 -1.0286 -0.3234 -1.4608
11631TIP3   OH256383   2.528   5.795  12.235 -0.5215  1.0837  0.3851
11631TIP3    H156384   2.555   5.876  12.278 -0.0980  0.6134  0.9958
11631TIP3    H256385   2.600   5.734  12.249 -0.3419  0.9394 -1.0421
11632TIP3   OH256386   6.278   4.284   5.987 -0.2340  0.2313  0.1437
11632TIP3    H156387   6.365   4.296   5.949  0.3237  1.6682  1.7872
11632TIP3    H256388   6.249   4.373   6.008  0.1454 -0.5326  4.4062
11633TIP3   OH256389   5.955   1.994   0.261 -0.7732 -0.3737  0.8132
11633TIP3    H156390   5.979   2.075   0.216 -0.8431 -1.2219 -0.8090
11633TIP3    H256391   6.008   1.993   0.340  1.1914 -0.0168 -0.4527
11634TIP3   OH256392   5.681   0.496  15.167 -0.1791  0.2255  0.2204
11634TIP3    H156393   5.643   0.579  15.137 -1.0851 -0.7592 -1.4736
11634TIP3    H256394   5.723   0.517  15.250 -0.9461  2.2461  0.1270
11635TIP3   OH256395   3.531   0.627   1.194  0.2856  0.2578 -0.5879
11635TIP3    H156396   3.595   0.556   1.187  1.0405  0.8770 -0.0315
11635TIP3    H256397   3.473   0.615   1.118  0.1203 -1.2215 -0.2481
11636TIP3   OH256398   4.488   6.142   2.067 -0.0592  0.1900  0.2858
11636TIP3    H156399   4.521   6.133   1.978 -0.4424 -1.0061  0.2517
11636TIP3    H256400   4.526   6.068   2.115 -0.6781  0.2213  0.8496
11637TIP3   OH256401   1.019   6.816   1.468  0.1934  0.2426  0.2693
11637TIP3    H156402   0.949   6.813   1.534 -1.5398 -1.2786 -1.5846
11637TIP3    H256403   1.036   6.725   1.446  1.1635  0.7070 -0.9731
11638TIP3   OH256404   2.624   2.188  13.721  0.3199  0.3517  0.0411
11638TIP3    H156405   2.704   2.220  13.679 -0.1831  0.9362 -0.4703
11638TIP3    H256406   2.583   2.131  13.656  0.6322 -0.4588  0.5349
11639TIP3   OH256407   2.838   6.561   1.366 -0.0092  0.4819  0.1027
11639TIP3    H156408   2.903   6.497   1.338 -0.5032 -0.0108  0.0706
11639TIP3    H256409   2.758   6.510   1.381 -0.6397  1.1958 -0.7401
11640TIP3   OH256410   1.213   4.236   5.325  0.3026  0.0662  0.0952
11640TIP3    H156411   1.306   4.219   5.339 -0.2191 -1.5204  1.7984
11640TIP3    H256412   1.203   4.330   5.341  1.4333  0.0650  0.8607
11641TIP3   OH256413   3.970   0.948  13.673 -0.1325  0.2732  1.0914
11641TIP3    H156414   3.957   0.912  13.761 -0.7474  0.2627  0.9994
11641TIP3    H256415   3.914   1.026  13.671 -0.2926  0.1454  0.6300
11642TIP3   OH256416   1.847   4.039   6.429 -0.1147 -0.0986 -0.3495
11642TIP3    H156417   1.850   4.066   6.337 -0.3761 -0.4096 -0.4496
11642TIP3    H256418   1.874   4.117   6.477  0.8054 -0.1775 -0.7336
11643TIP3   OH256419   5.107   5.430  15.627 -0.5519  0.0891  0.0559
11643TIP3    H156420   5.083   5.471  15.709  0.2614 -1.9282  1.3559
11643TIP3    H256421   5.190   5.470  15.602 -0.2971 -0.0116  0.7553
11644TIP3   OH256422   2.931   6.071   2.182  0.1156  0.1305 -0.2784
11644TIP3    H156423   2.945   6.163   2.164  3.2942 -0.3986 -0.7283
11644TIP3    H256424   2.882   6.038   2.107  1.2129  0.9141 -1.3443
11645TIP3   OH256425   3.706   4.366  14.512 -0.2311  0.7755  0.5404
11645TIP3    H156426   3.640   4.366  14.581 -1.5945  1.0970 -0.7476
11645TIP3    H256427   3.656   4.362  14.430  1.3630  0.2278 -0.4321
11646TIP3   OH256428   2.591   0.606   1.831  0.3475 -0.1143 -0.5482
11646TIP3    H156429   2.578   0.696   1.861  0.8834  0.2724 -1.4736
11646TIP3    H256430   2.640   0.614   1.749  0.8290 -1.2660 -0.3898
11647TIP3   OH256431   3.212   4.541  14.449  0.2535  0.2472  0.0976
11647TIP3    H156432   3.245   4.621  14.407  0.4701  0.5099  0.7665
11647TIP3    H256433   3.133   4.519  14.400  1.3583 -0.3393 -1.4644
11648TIP3   OH256434   6.107   5.522  16.054 -0.3491  0.1729  0.3751
11648TIP3    H156435   6.146   5.443  16.090  2.0980  0.5717 -1.2828
11648TIP3    H256436   6.095   5.580  16.129  0.9194 -0.5238  1.1317
11649TIP3   OH256437   5.927   1.685   3.323 -0.7771  0.3829  0.2625
11649TIP3    H156438   5.917   1.628   3.399 -2.2318  0.1290 -0.1009
11649TIP3    H256439   5.841   1.686   3.282  0.0234  0.4027 -1.4694
11650TIP3   OH256440   2.514   3.900  13.754 -0.5489  0.0264  0.4562
11650TIP3    H156441   2.420   3.888  13.765 -1.0091  1.8789 -1.0144
11650TIP3    H256442   2.530   3.876  13.662  0.3152  0.2546  0.5465
11651TIP3   OH256443   0.245   2.031  12.157  0.0795  0.1224  0.2182
11651TIP3    H156444   0.264   2.027  12.251 -1.0819 -1.6738  0.3996
11651TIP3    H256445   0.209   2.119  12.144 -0.7088  0.0350  1.6464
11652TIP3   OH256446   6.333   1.499  15.885 -0.1029  1.1259 -0.3078
11652TIP3    H156447   6.383   1.519  15.963 -0.0787  0.3199 -0.1067
11652TIP3    H256448   6.388   1.437  15.836 -1.1505 -0.2626  0.2227
11653TIP3   OH256449   0.069   0.416  16.099  0.1949  0.0338  0.5720
11653TIP3    H156450   0.097   0.368  16.020  1.5701  2.1943 -0.3107
11653TIP3    H256451   0.010   0.483  16.066 -1.4660 -0.8214  1.7580
11654TIP3   OH256452   1.185   2.004   4.410  0.3145  0.3588  0.2690
11654TIP3    H156453   1.114   1.952   4.447 -0.7348  2.1455  0.7938
11654TIP3    H256454   1.150   2.093   4.403  1.2391  0.5559 -2.9213
11655TIP3   OH256455   0.550   4.134  13.559  0.0093  0.2017  0.7556
11655TIP3    H156456   0.594   4.210  13.597 -1.6359  2.2141 -1.2150
11655TIP3    H256457   0.457   4.150  13.575 -0.3600 -1.3513  0.2235
11656TIP3   OH256458   5.362   0.374   2.897  0.0863 -0.2070  0.2337
11656TIP3    H156459   5.301   0.381   2.823  1.1116 -0.6689 -0.6655
11656TIP3    H256460   5.322   0.428   2.966 -0.7759  0.3965 -0.7203
11657TIP3   OH256461   4.649   5.657   1.415  0.1640  0.6467 -0.5302
11657TIP3    H156462   4.704   5.700   1.349  2.5738 -1.3766  0.0735
11657TIP3    H256463   4.560   5.682   1.391  1.1464  1.9909 -3.0514
11658TIP3   OH256464   3.070   2.053  14.800  0.1990  0.4377 -0.6298
11658TIP3    H156465   3.062   2.129  14.857 -0.7387 -0.1215  0.0033
11658TIP3    H256466   3.136   1.998  14.842  1.5747  1.3407 -1.5961
11659TIP3   OH256467   4.842   0.950  10.547  0.8259 -0.0546  0.2492
11659TIP3    H156468   4.754   0.947  10.512 -0.3489  0.8925  2.9920
11659TIP3    H256469   4.898   0.966  10.471 -1.3401 -0.5490 -1.4941
11660TIP3   OH256470   2.383   1.259  13.611 -0.4478 -0.7761 -0.3252
11660TIP3    H156471   2.322   1.193  13.643 -0.8886 -1.9239 -3.3421
11660TIP3    H256472   2.467   1.214  13.605 -0.2999 -0.4857 -0.4617
11661TIP3   OH256473   3.191   0.511   1.369 -0.0507 -0.2024 -0.2073
11661TIP3    H156474   3.119   0.555   1.415 -0.9154 -0.0276 -1.6898
11661TIP3    H256475   3.270   0.548   1.408 -0.7403 -0.7142  1.7600
11662TIP3   OH256476   4.184   6.037  13.630  0.2817  0.4268 -0.0439
11662TIP3    H156477   4.127   6.082  13.568  0.2464  1.1020  0.4679
11662TIP3    H256478   4.144   6.053  13.715  0.9032  0.3832  0.2586
11663TIP3   OH256479   1.122   3.974  16.963 -0.5474  0.0983 -0.3220
11663TIP3    H156480   1.104   3.943  16.874 -2.1978  0.5366 -0.1417
11663TIP3    H256481   1.109   4.069  16.958  2.3099  0.5529 -0.3263
11664TIP3   OH256482   0.897   4.580   0.138 -0.5091 -0.1222  0.0437
11664TIP3    H156483   0.865   4.490   0.143  1.3281 -0.8283 -0.5163
11664TIP3    H256484   0.925   4.601   0.227  0.7945 -0.7604 -0.2167
11665TIP3   OH256485   4.767   4.594   4.661  0.4389  0.0521 -0.3725
11665TIP3    H156486   4.728   4.529   4.602  1.5435 -1.4022  0.4895
11665TIP3    H256487   4.855   4.609   4.626  0.2272  1.0323 -0.5116
11666TIP3   OH256488   3.554   5.450  14.579  0.3245  0.4670  0.0655
11666TIP3    H156489   3.474   5.471  14.626  1.3490  1.5789  1.3557
11666TIP3    H256490   3.530   5.457  14.486 -1.5933 -1.3124  0.3822
11667TIP3   OH256491   6.209   6.257   0.597 -0.0082  0.0335 -0.4043
11667TIP3    H156492   6.135   6.202   0.623  0.6390 -0.7798 -0.2684
11667TIP3    H256493   6.278   6.195   0.572  0.8017  0.7783 -0.0522
11668TIP3   OH256494   1.081   5.392  15.982  0.6733 -0.1216  0.3138
11668TIP3    H156495   1.010   5.330  16.000  0.6477 -1.1519 -3.0114
11668TIP3    H256496   1.161   5.343  15.999  0.6360 -0.4710 -0.5238
11669TIP3   OH256497   2.743   6.514  16.694  0.0293  0.1100 -0.1537
11669TIP3    H156498   2.740   6.431  16.742  2.1934  0.7853  1.2176
11669TIP3    H256499   2.652   6.531  16.670 -0.4895 -2.4512 -0.1240
11670TIP3   OH256500   0.469   1.817   6.010 -0.8582  0.1937  0.8016
11670TIP3    H156501   0.499   1.889   6.065 -0.1477  1.0504 -0.6841
11670TIP3    H256502   0.499   1.738   6.055  1.7061  0.9641  0.5063
11671TIP3   OH256503   6.091   5.382   5.757  0.7279  0.9805 -0.2866
11671TIP3    H156504   6.021   5.317   5.748 -0.3193  1.8753  1.2345
11671TIP3    H256505   6.162   5.348   5.702 -1.2079  0.4991 -2.6033
11672TIP3   OH256506   5.700   2.419  16.587  0.7938  0.2346  0.0572
11672TIP3    H156507   5.630   2.467  16.629  2.2218  1.8540  0.6384
11672TIP3    H256508   5.660   2.336  16.559 -1.9287  2.1344 -1.8536
11673TIP3   OH256509   4.715   1.139  15.065 -0.0952 -0.3656  0.5762
11673TIP3    H156510   4.673   1.218  15.099 -0.4601 -1.0864  1.8234
11673TIP3    H256511   4.795   1.170  15.024 -1.0424  0.8412 -0.3894
11674TIP3   OH256512   3.413   6.816   6.450 -0.5181  0.1397  0.1914
11674TIP3    H156513   3.475   6.751   6.483 -0.7942  0.0731  0.5845
11674TIP3    H256514   3.468   6.892   6.428 -0.0415 -0.7136 -1.5716
11675TIP3   OH256515   5.647   5.805  15.474  0.7235  0.1124  0.2723
11675TIP3    H156516   5.625   5.760  15.555 -0.8969 -0.5196 -0.5017
11675TIP3    H256517   5.613   5.893  15.486 -0.9100 -0.4258 -0.3203
11676TIP3   OH256518   4.158   2.077   2.543 -0.1182  0.1400 -0.1214
11676TIP3    H156519   4.210   2.025   2.605 -0.7669 -0.2540  0.0916
11676TIP3    H256520   4.213   2.080   2.464  0.0573 -0.6253 -0.0384
11677TIP3   OH256521   1.870   5.730  16.737  0.2845 -0.4597  0.5921
11677TIP3    H156522   1.917   5.795  16.685  1.2901 -0.0288  2.0179
11677TIP3    H256523   1.827   5.674  16.672  1.5185  0.0577 -0.7020
11678TIP3   OH256524   1.485   5.007   4.503  0.6242 -0.1570  0.6038
11678TIP3    H156525   1.393   5.025   4.520  0.8008  0.3774  1.0148
11678TIP3    H256526   1.529   5.022   4.587  1.3324  1.3091 -0.0105
11679TIP3   OH256527   3.625   5.340  11.962  0.0919  0.9106  0.3807
11679TIP3    H156528   3.651   5.411  12.020 -0.3489  0.8614  0.6416
11679TIP3    H256529   3.529   5.341  11.963  0.0563  1.8501 -1.4923
11680TIP3   OH256530   3.512   2.675   2.595  0.1439 -0.1282 -0.2749
11680TIP3    H156531   3.573   2.685   2.522  0.3243 -2.1582 -0.4232
11680TIP3    H256532   3.494   2.764   2.623  0.5729  0.6621 -2.3975
11681TIP3   OH256533   2.114   0.584  12.152  0.1856  0.6233  0.4138
11681TIP3    H156534   2.175   0.515  12.179  1.2899  1.3242 -0.2313
11681TIP3    H256535   2.162   0.632  12.085  0.3136  3.3810  2.3844
11682TIP3   OH256536   4.903   5.484   3.744  0.1517 -0.2559  0.5295
11682TIP3    H156537   4.991   5.462   3.775  0.0416 -1.0949  0.2503
11682TIP3    H256538   4.856   5.510   3.823 -0.7216 -4.2984  1.4680
11683TIP3   OH256539   2.113   0.314  13.122  0.7941  0.2453  0.0192
11683TIP3    H156540   2.152   0.277  13.042 -1.4307 -1.7506 -0.2031
11683TIP3    H256541   2.055   0.383  13.090 -0.1295 -0.5827 -0.1015
11684TIP3   OH256542   5.615   4.197  11.784  0.8629  0.2510  0.0791
11684TIP3    H156543   5.629   4.292  11.786  0.5017  0.2825  1.5918
11684TIP3    H256544   5.602   4.172  11.876 -1.8829 -0.8252 -0.5304
11685TIP3   OH256545   3.250   6.022  12.993  0.3888  0.2301 -0.0743
11685TIP3    H156546   3.242   6.117  13.000  0.0984  0.2566 -0.6872
11685TIP3    H256547   3.331   6.009  12.943  0.1958  0.1734 -0.3768
11686TIP3   OH256548   3.105   6.206   3.365  0.1602  0.7296  0.0597
11686TIP3    H156549   3.134   6.151   3.438  2.4533  1.5264 -0.2061
11686TIP3    H256550   3.122   6.296   3.395  1.4064  1.0460 -1.5442
11687TIP3   OH256551   3.070   6.316   1.629  0.0859  0.2691  0.2122
11687TIP3    H156552   3.054   6.410   1.621  1.6548  0.7630  2.5203
11687TIP3    H256553   3.165   6.307   1.626  0.0415 -1.0272  2.0796
11688TIP3   OH256554   1.244   1.918  15.886  0.3908  0.0753  0.2862
11688TIP3    H156555   1.264   1.948  15.797 -0.7177 -0.3663 -0.1319
11688TIP3    H256556   1.251   1.996  15.941  1.4115  0.2823 -0.1355
11689TIP3   OH256557   2.633   0.805   3.154 -0.2323  0.6027  0.1978
11689TIP3    H156558   2.701   0.759   3.204 -0.2280  0.4092  0.0151
11689TIP3    H256559   2.664   0.895   3.148  0.6205  0.2527 -0.9431
11690TIP3   OH256560   2.203   0.002   3.235  0.5503  0.1111 -0.7077
11690TIP3    H156561   2.221   0.013   3.328 -1.8822  1.0470 -0.3149
11690TIP3    H256562   2.202  -0.092   3.221  2.7021 -0.0193 -0.1849
11691TIP3   OH256563   5.635   5.368   0.922  0.2144  0.7175  0.3237
11691TIP3    H156564   5.721   5.408   0.914  0.6416 -0.3834 -0.7504
11691TIP3    H256565   5.642   5.313   1.001 -0.1176  2.0793  1.3225
11692TIP3   OH256566   2.876   5.903  10.842  0.5273  0.2405 -0.3588
11692TIP3    H156567   2.911   5.858  10.765  0.0032 -0.7229 -0.0394
11692TIP3    H256568   2.940   5.971  10.862  0.5159  0.6915 -1.8346
11693TIP3   OH256569   3.568   4.461  15.171  0.4884 -0.0696 -0.3637
11693TIP3    H156570   3.527   4.377  15.151  2.7569 -1.6332  1.3651
11693TIP3    H256571   3.643   4.466  15.111  1.5305 -0.2513  0.8854
11694TIP3   OH256572   4.632   6.144  13.926  0.4306 -0.0694  0.2347
11694TIP3    H156573   4.699   6.128  13.860  0.4687  0.6507  0.0911
11694TIP3    H256574   4.567   6.075  13.913  0.6772 -0.2070 -0.2453
11695TIP3   OH256575   2.470   1.626  14.540 -0.4450 -0.2606 -0.1797
11695TIP3    H156576   2.519   1.646  14.620  4.2791  1.1911 -3.2312
11695TIP3    H256577   2.481   1.532  14.527 -1.1607 -0.4853  0.8055
11696TIP3   OH256578   4.240   6.182  15.350  1.0080  0.0135 -0.1627
11696TIP3    H156579   4.202   6.110  15.300 -0.4651  1.1786 -0.7456
11696TIP3    H256580   4.279   6.239  15.284  2.9086 -0.6438  0.3531
11697TIP3   OH256581   6.080   1.949   4.336  0.1312  0.2252  0.0683
11697TIP3    H156582   6.122   1.867   4.360 -0.7443 -0.1672  0.2967
11697TIP3    H256583   6.098   1.959   4.242  3.0612  1.4681  0.7087
11698TIP3   OH256584   6.183   0.408  14.545 -0.2546 -0.4322 -0.5061
11698TIP3    H156585   6.093   0.389  14.519 -0.8710 -0.8249  1.7603
11698TIP3    H256586   6.220   0.323  14.568  0.1421 -0.0729  0.1921
11699TIP3   OH256587   4.063   5.956   2.939  0.2701  0.0207  0.0320
11699TIP3    H156588   4.004   5.905   2.883 -0.6152  0.3677  0.6350
11699TIP3    H256589   4.008   5.987   3.010  0.8268  1.7173 -0.2460
11700TIP3   OH256590   4.578   4.866  11.194  0.0603  0.1118  0.1362
11700TIP3    H156591   4.654   4.866  11.136 -1.3529 -0.6361 -1.7379
11700TIP3    H256592   4.513   4.920  11.149 -0.9921 -0.3251  1.1099
11701TIP3   OH256593   4.752   0.666   5.573 -0.6642 -0.0550 -0.2901
11701TIP3    H156594   4.662   0.695   5.559 -0.4684  0.4130 -0.5901
11701TIP3    H256595   4.774   0.698   5.661 -0.5973  0.3313 -0.4455
11702TIP3   OH256596   3.805   3.722   4.510  0.1636  0.0417 -0.1261
11702TIP3    H156597   3.818   3.809   4.473 -1.4360  0.4266  0.1944
11702TIP3    H256598   3.717   3.697   4.483 -0.4130 -0.3579  2.0426
11703TIP3   OH256599   3.225   4.492  15.033  0.1459  0.1534 -0.3540
11703TIP3    H156600   3.150   4.459  15.082  0.9933 -0.7369  0.3583
11703TIP3    H256601   3.230   4.437  14.955  0.0495  0.2182 -0.4046
11704TIP3   OH256602   6.082   5.558  15.429  0.2652  0.6986 -0.8509
11704TIP3    H156603   6.175   5.565  15.409  0.3401  1.4967 -0.2572
11704TIP3    H256604   6.075   5.588  15.520 -0.2912 -1.2327 -0.2399
11705TIP3   OH256605   0.902   2.909   1.101 -0.3836  0.5219  0.5946
11705TIP3    H156606   0.947   2.988   1.128 -1.1294  1.1915 -0.0827
11705TIP3    H256607   0.958   2.837   1.130  1.2308  1.3419 -0.4634
11706TIP3   OH256608   0.798   6.132   4.842 -0.1029  1.0884 -0.0144
11706TIP3    H156609   0.819   6.147   4.749 -0.1096 -0.6457 -0.3225
11706TIP3    H256610   0.862   6.066   4.869  0.0031  1.7124  1.2749
11707TIP3   OH256611   1.770   4.191  16.874  0.5852  0.4286  0.0945
11707TIP3    H156612   1.767   4.095  16.870  0.9988  0.3495  1.4388
11707TIP3    H256613   1.679   4.218  16.883  0.4007  0.2041 -1.0861
11708TIP3   OH256614   5.807   6.358  17.006 -0.1127  0.3978 -0.3275
11708TIP3    H156615   5.795   6.363  16.911  2.1135  0.3360 -0.6152
11708TIP3    H256616   5.845   6.442  17.030  0.7881 -0.1863  0.2905
11709TIP3   OH256617   1.788   5.722   2.757 -0.1457 -0.4788  0.2750
11709TIP3    H156618   1.729   5.648   2.746  0.0741 -1.1291  3.1903
11709TIP3    H256619   1.874   5.688   2.731 -0.3902 -0.6408 -0.3334
11710TIP3   OH256620   4.473   6.033  14.978 -0.3719 -0.7762 -0.6682
11710TIP3    H156621   4.480   5.942  14.948 -0.9016 -0.9040 -0.4170
11710TIP3    H256622   4.529   6.037  15.055 -1.0210 -1.1199 -0.1686
11711TIP3   OH256623   6.074   2.089  13.209 -0.4109  0.7168  0.1934
11711TIP3    H156624   6.060   2.182  13.227  1.0947  0.6869  1.5525
11711TIP3    H256625   6.126   2.088  13.128 -0.5178  1.0556  0.1208
11712TIP3   OH256626   0.487   6.314   4.264  1.2453 -0.2726  0.2217
11712TIP3    H156627   0.453   6.400   4.237  0.7622 -0.3380  0.6005
11712TIP3    H256628   0.440   6.252   4.209  0.2177 -0.4107  1.2137
11713TIP3   OH256629   6.651   3.445  17.089  0.1658  0.3197 -0.0056
11713TIP3    H156630   6.629   3.388  17.163  1.7350  1.0495  1.0842
11713TIP3    H256631   6.663   3.531  17.129  4.4025  0.0660 -0.5018
11714TIP3   OH256632   3.478   3.319  16.290 -0.0919 -0.7028  0.2186
11714TIP3    H156633   3.483   3.261  16.366 -0.9010 -1.9272 -0.6516
11714TIP3    H256634   3.384   3.330  16.274  0.0208  1.6357  0.9536
11715TIP3   OH256635   0.606   6.480   1.370 -0.1762 -0.4208  0.7353
11715TIP3    H156636   0.552   6.418   1.420  0.7346 -0.8657  1.1880
11715TIP3    H256637   0.686   6.488   1.421 -0.5559  1.7095  1.0594
11716TIP3   OH256638   3.926   3.923  13.668 -0.3296  0.0166  0.3084
11716TIP3    H156639   3.974   4.002  13.642 -1.8236  0.4902 -1.0878
11716TIP3    H256640   3.839   3.955  13.692 -0.9463 -1.2050 -0.2713
11717TIP3   OH256641   5.041   3.410  11.315 -0.2905  0.1136 -0.2042
11717TIP3    H156642   5.052   3.399  11.221  0.9486 -1.7377  0.1146
11717TIP3    H256643   5.046   3.504  11.329  1.5418  0.2827 -1.7754
11718TIP3   OH256644   1.561   6.628   2.717 -0.2600  0.1546  0.5094
11718TIP3    H156645   1.554   6.662   2.627  0.6080  1.7094  1.0107
11718TIP3    H256646   1.567   6.533   2.706  1.4001  0.4076 -1.1969
11719TIP3   OH256647   4.189   1.966   3.899  0.7902 -0.4500  0.1476
11719TIP3    H156648   4.245   2.041   3.882 -1.3913  1.2723  0.3597
11719TIP3    H256649   4.122   1.970   3.830 -0.6539 -0.8713  1.4935
11720TIP3   OH256650   2.447   2.164   2.835 -0.3823 -0.5491 -0.2629
11720TIP3    H156651   2.523   2.217   2.858  0.3337 -0.8190 -1.9276
11720TIP3    H256652   2.464   2.134   2.746 -2.1523 -1.1438 -0.4336
11721TIP3   OH256653   2.937   0.381  12.024  0.1752 -0.1669  0.2710
11721TIP3    H156654   3.019   0.399  12.070  0.9528  0.1934 -1.2058
11721TIP3    H256655   2.963   0.367  11.933 -1.3258 -0.8154 -0.0765
11722TIP3   OH256656   5.819   4.019  15.308  0.2611  0.1439  0.4693
11722TIP3    H156657   5.829   4.080  15.235 -0.6085  0.7837  0.8798
11722TIP3    H256658   5.750   3.959  15.280 -0.6688  0.9021  1.0947
11723TIP3   OH256659   4.785   0.561   4.905  0.0715  0.6018  0.4183
11723TIP3    H156660   4.721   0.570   4.834 -0.1166 -0.6785  0.4232
11723TIP3    H256661   4.741   0.599   4.981 -0.0829  1.1339  0.0747
11724TIP3   OH256662   2.469   2.521  11.735  0.0876  0.0514  0.1101
11724TIP3    H156663   2.458   2.526  11.640 -0.7627  0.4677  0.2167
11724TIP3    H256664   2.514   2.439  11.750 -1.3159 -0.8639 -0.5410
11725TIP3   OH256665   1.917   1.121   2.186 -0.6724  0.0921  0.1313
11725TIP3    H156666   2.006   1.128   2.153 -0.6183 -0.6510  0.1237
11725TIP3    H256667   1.924   1.144   2.279 -0.5650  0.5667  0.0090
11726TIP3   OH256668   6.742   1.512   0.758  0.7045  0.1410 -0.7675
11726TIP3    H156669   6.805   1.564   0.809 -0.6516 -0.4733  1.5928
11726TIP3    H256670   6.721   1.438   0.814 -1.9585  0.2073 -1.6293
11727TIP3   OH256671   6.479   1.876  15.388  0.6458  0.0975  0.1682
11727TIP3    H156672   6.428   1.910  15.314  1.9913  0.3411 -0.6615
11727TIP3    H256673   6.534   1.950  15.415 -1.1691  0.6023  2.6475
11728TIP3   OH256674   3.325   5.919  17.261 -0.8415 -0.1798  0.2000
11728TIP3    H156675   3.283   5.881  17.184 -1.9534 -2.8393  2.0128
11728TIP3    H256676   3.348   6.008  17.236 -1.3559 -0.9368 -3.1081
11729TIP3   OH256677   0.092   0.130  16.987  0.1285  0.0288  0.5382
11729TIP3    H156678   0.126   0.121  16.898 -0.9748  1.1903 -0.0051
11729TIP3    H256679   0.027   0.200  16.982  0.8563  0.8913  2.4940
11730TIP3   OH256680   3.756   3.534   3.583  0.6847 -0.4252  0.7767
11730TIP3    H156681   3.732   3.461   3.641 -1.4579  0.1156  0.5771
11730TIP3    H256682   3.741   3.501   3.495 -1.8319  0.7801  0.7329
11731TIP3   OH256683   4.238   3.134   5.357 -0.1941 -0.3082  0.1661
11731TIP3    H156684   4.316   3.122   5.412 -0.0380  0.9162  0.2309
11731TIP3    H256685   4.234   3.055   5.304 -1.2546 -2.2771  3.0439
11732TIP3   OH256686   2.289   4.885  15.110  0.1672  0.2519  0.2516
11732TIP3    H156687   2.222   4.948  15.085 -0.1243  0.1374  0.7462
11732TIP3    H256688   2.248   4.831  15.178  0.7157  0.0992  0.4648
11733TIP3   OH256689   2.167   1.159   5.025 -0.0895  0.0080  0.4186
11733TIP3    H156690   2.155   1.065   5.012 -1.9227  0.1132  1.2105
11733TIP3    H256691   2.081   1.191   5.051  0.7095  1.7751  0.9903
11734TIP3   OH256692   5.082   2.587  13.192  0.6252  0.4858  0.3542
11734TIP3    H156693   5.016   2.654  13.176 -1.0554 -1.5852 -1.8315
11734TIP3    H256694   5.156   2.612  13.138 -0.3869  0.0780 -1.2714
11735TIP3   OH256695   3.415   5.056  14.485 -0.2093  0.5695 -0.1970
11735TIP3    H156696   3.399   5.013  14.569 -0.9429  1.1741 -0.0195
11735TIP3    H256697   3.468   4.994  14.436  0.4520  0.3147  0.8157
11736TIP3   OH256698   4.970   2.863   0.805 -0.3921  0.0535 -0.6215
11736TIP3    H156699   5.060   2.835   0.789  0.0971  1.5828 -0.6549
11736TIP3    H256700   4.922   2.782   0.825  0.9715 -0.7694 -0.6532
11737TIP3   OH256701   5.328   5.384   1.016 -0.0208 -0.6463  0.5269
11737TIP3    H156702   5.270   5.458   1.032  0.4558 -0.5385  1.8076
11737TIP3    H256703   5.292   5.342   0.938  1.1647  2.3923 -1.7658
11738TIP3   OH256704   6.375   5.836   6.367 -0.0626 -0.1780  0.0172
11738TIP3    H156705   6.408   5.748   6.350  0.7069 -0.3392  2.2062
11738TIP3    H256706   6.280   5.829   6.356  0.2379 -0.5880 -2.5934
11739TIP3   OH256707   0.596   4.630   4.330 -0.2834 -0.0095  0.0249
11739TIP3    H156708   0.637   4.680   4.400  0.1348  1.1524 -1.0225
11739TIP3    H256709   0.502   4.640   4.344 -0.1982  0.1532  0.4699
11740TIP3   OH256710   6.134   2.056   5.421  0.4674  0.3100  0.0744
11740TIP3    H156711   6.188   2.135   5.413 -1.8375  2.0611  1.1394
11740TIP3    H256712   6.160   2.018   5.506  1.8257 -0.3103 -0.5969
11741TIP3   OH256713   2.427   2.756   0.853  0.4804  0.3092 -0.3936
11741TIP3    H156714   2.495   2.809   0.896  0.1811  0.5539 -0.2201
11741TIP3    H256715   2.370   2.728   0.925  1.9618 -2.2367 -0.1605
11742TIP3   OH256716   4.114   4.076  10.999 -0.5195 -0.1262  0.1104
11742TIP3    H156717   4.091   4.163  10.967  0.0449 -0.3208 -0.8275
11742TIP3    H256718   4.044   4.019  10.968 -1.1435  0.0671  1.1365
11743TIP3   OH256719   2.624   4.677   5.995  0.5862 -0.0433 -0.1010
11743TIP3    H156720   2.638   4.710   5.906  2.6208 -1.4381 -0.3251
11743TIP3    H256721   2.534   4.644   5.994  0.0030  1.5341 -1.1195
11744TIP3   OH256722   6.775   4.152   4.994 -0.1063  0.6097 -0.4397
11744TIP3    H156723   6.753   4.239   4.960 -1.4945  0.8866  1.1146
11744TIP3    H256724   6.693   4.118   5.030  0.7469 -0.7422  0.2972
11745TIP3   OH256725   5.727   3.561  12.269 -0.4017 -0.4407  0.4910
11745TIP3    H156726   5.689   3.486  12.314 -2.6758  0.3342 -0.1028
11745TIP3    H256727   5.787   3.599  12.334 -0.6701 -1.6353  1.4674
11746TIP3   OH256728   5.858   0.579   0.253  0.0629 -0.4808  0.5248
11746TIP3    H156729   5.875   0.487   0.275 -0.2809 -0.1694  2.1054
11746TIP3    H256730   5.812   0.614   0.329  0.6988  1.1585  0.1673
11747TIP3   OH256731   4.704   5.525   1.108  0.1371  0.3792  0.1789
11747TIP3    H156732   4.712   5.610   1.152  0.0272  0.5591 -0.1490
11747TIP3    H256733   4.667   5.467   1.174  0.8266  0.4223  0.6132
11748TIP3   OH256734   5.848   2.390   6.156  1.0311  0.4348 -0.5691
11748TIP3    H156735   5.927   2.395   6.102  0.6080 -0.3307 -1.2836
11748TIP3    H256736   5.776   2.391   6.092  0.5138 -0.1008  0.0023
11749TIP3   OH256737   3.383   6.368  13.536  0.5125 -0.4293 -0.3226
11749TIP3    H156738   3.309   6.334  13.484  1.3527 -1.1415 -1.0642
11749TIP3    H256739   3.450   6.390  13.471  1.4958 -1.1242  0.4544
11750TIP3   OH256740   0.008   4.390   5.839 -0.3370 -0.5767 -0.5124
11750TIP3    H156741  -0.042   4.427   5.766 -0.2729 -0.8609 -0.7012
11750TIP3    H256742   0.090   4.440   5.839 -1.0855  0.6813  0.5297
11751TIP3   OH256743   1.516   6.395   5.276  0.5179 -0.4747 -0.2969
11751TIP3    H156744   1.577   6.335   5.319  0.2946  0.5908  1.5704
11751TIP3    H256745   1.449   6.338   5.238  0.3350 -1.4351  1.4059
11752TIP3   OH256746   2.129   0.210  14.994 -0.3346 -0.1382 -0.1681
11752TIP3    H156747   2.073   0.282  15.023 -0.3413 -0.2186  0.0158
11752TIP3    H256748   2.083   0.131  15.021  0.9213 -0.1905  1.9428
11753TIP3   OH256749   0.677   2.622   5.039  0.0452  0.7580  0.2076
11753TIP3    H156750   0.716   2.586   5.119  1.7634  1.3357 -0.3271
11753TIP3    H256751   0.673   2.716   5.055 -0.3291  0.7919 -0.0913
11754TIP3   OH256752   1.675   2.649  11.979 -0.2834 -0.3945 -0.3354
11754TIP3    H156753   1.660   2.714  12.048 -0.5694 -1.9478  1.0901
11754TIP3    H256754   1.695   2.568  12.026  1.1517 -1.1099 -2.0893
11755TIP3   OH256755   2.176   3.797  14.503  0.5493  0.2359 -0.5376
11755TIP3    H156756   2.243   3.865  14.511 -0.9866  1.8208 -0.8375
11755TIP3    H256757   2.129   3.820  14.423 -1.8527  0.5136  0.9050
11756TIP3   OH256758   2.008   1.046  12.853 -0.0625  0.0610 -0.6223
11756TIP3    H156759   2.033   1.138  12.859  1.8636 -0.3728 -1.4726
11756TIP3    H256760   2.091   0.999  12.855 -0.9486 -1.5816 -1.4792
11757TIP3   OH256761   4.490   3.707   4.808  0.3580  0.1327 -0.4257
11757TIP3    H156762   4.571   3.660   4.826 -0.1212 -0.0394  1.3786
11757TIP3    H256763   4.507   3.796   4.837 -1.0431 -0.5758  2.7353
11758TIP3   OH256764   0.882   1.000  12.718 -0.1411  0.0973  0.7513
11758TIP3    H156765   0.962   1.019  12.768  0.2780  1.1408 -0.3021
11758TIP3    H256766   0.913   0.984  12.629 -1.0701  0.0509  0.4347
11759TIP3   OH256767   3.112   5.162   5.215  0.2278 -0.8233  0.1880
11759TIP3    H156768   3.092   5.084   5.164  1.1707 -1.4826  0.7952
11759TIP3    H256769   3.043   5.167   5.281 -1.7978  0.8414 -2.0235
11760TIP3   OH256770   4.433   5.629   1.815 -0.1999 -0.1061 -0.2939
11760TIP3    H156771   4.406   5.699   1.874  0.3211 -1.1538  1.2289
11760TIP3    H256772   4.354   5.608   1.765 -0.3691  1.5150 -0.7253
11761TIP3   OH256773   1.377   5.476   0.240 -0.2870  0.2546 -0.1285
11761TIP3    H156774   1.366   5.455   0.147  2.5882 -3.5838  0.2800
11761TIP3    H256775   1.471   5.489   0.250 -0.8583  3.5276  1.7801
11762TIP3   OH256776   1.336   3.186  13.783 -0.0395  0.0165 -0.0183
11762TIP3    H156777   1.255   3.153  13.821 -0.5110  0.7734 -0.3420
11762TIP3    H256778   1.403   3.123  13.810 -0.2236  0.9320  2.6586
11763TIP3   OH256779   1.058   2.612  12.508  0.8706  0.2839  0.1307
11763TIP3    H156780   0.996   2.618  12.581  0.8866  0.6216  0.1160
11763TIP3    H256781   1.089   2.701  12.496 -0.0488  0.4536 -1.0871
11764TIP3   OH256782   3.596   0.812  12.570  0.0986 -0.1332  0.1762
11764TIP3    H156783   3.677   0.850  12.535 -0.0550  0.6495  0.6492
11764TIP3    H256784   3.625   0.736  12.620  0.6039  0.3845  0.6936
11765TIP3   OH256785   5.628   0.617   5.408  0.4181  0.1985 -0.0985
11765TIP3    H156786   5.541   0.588   5.434  0.3441  2.0543  1.8297
11765TIP3    H256787   5.613   0.691   5.349  0.6817  0.8682  0.6679
11766TIP3   OH256788   5.606   1.111   5.461 -0.3094  0.4441 -0.3537
11766TIP3    H156789   5.515   1.092   5.440 -0.5485  0.6727  0.4573
11766TIP3    H256790   5.657   1.052   5.406 -0.9640 -0.1499 -0.3243
11767TIP3   OH256791   0.660   1.909  14.954  0.4816 -0.1919  0.2716
11767TIP3    H156792   0.691   1.898  15.044  0.7284 -0.9742  0.0974
11767TIP3    H256793   0.740   1.912  14.901  0.3075 -1.3457 -0.0873
11768TIP3   OH256794   0.152   3.812  16.225 -0.1133 -0.1306 -0.6950
11768TIP3    H156795   0.115   3.730  16.192  1.5580 -0.8545 -0.8080
11768TIP3    H256796   0.233   3.786  16.269 -0.2055  1.3180  0.3439
11769TIP3   OH256797   3.708   1.421  13.518  0.0081 -0.0320 -0.2244
11769TIP3    H156798   3.782   1.457  13.567  0.7343 -1.4575 -0.2367
11769TIP3    H256799   3.663   1.498  13.482  0.2020  0.9653  1.6002
11770TIP3   OH256800   4.571   1.395   0.290  0.1812  0.6701 -0.0594
11770TIP3    H156801   4.566   1.469   0.230  0.7140  0.6050 -0.1785
11770TIP3    H256802   4.496   1.407   0.349 -2.0283 -0.7773 -2.4534
11771TIP3   OH256803   5.372   6.548  11.173  0.1380 -0.4341  0.1421
11771TIP3    H156804   5.319   6.590  11.240  0.0750 -1.5458  0.8003
11771TIP3    H256805   5.317   6.478  11.139  0.9654 -1.2466  0.4516
11772TIP3   OH256806   0.050   4.398  12.686 -0.0497  0.0463  0.2161
11772TIP3    H156807   0.026   4.378  12.595 -1.6905  0.8697  0.4501
11772TIP3    H256808   0.137   4.358  12.697 -0.6035 -1.6063 -1.1527
11773TIP3   OH256809   5.714   5.069  15.090  0.3337 -0.2921  0.5207
11773TIP3    H156810   5.725   5.161  15.065  0.4189  0.1819  2.2457
11773TIP3    H256811   5.696   5.071  15.184 -0.2710 -2.0087  0.4726
11774TIP3   OH256812   5.430   2.761   0.071  0.2415  0.7988  0.0024
11774TIP3    H156813   5.516   2.802   0.067  0.2565  0.8191  0.4578
11774TIP3    H256814   5.371   2.826   0.033  0.0207  1.9498  2.2051
11775TIP3   OH256815   3.429   5.291  12.842 -0.1353  0.1312  1.2160
11775TIP3    H156816   3.508   5.267  12.794  1.1822  1.4267  2.6975
11775TIP3    H256817   3.457   5.299  12.933 -2.1274 -0.0946  1.8773
11776TIP3   OH256818   5.152   6.804  12.456 -0.0182  0.0930  0.3212
11776TIP3    H156819   5.232   6.851  12.476 -0.9386  0.9595  2.0201
11776TIP3    H256820   5.179   6.712  12.448  1.4406  0.6190 -1.0807
11777TIP3   OH256821   1.138   0.896   3.430  0.2345 -1.0834 -0.2565
11777TIP3    H156822   1.197   0.826   3.457  0.3270 -1.4631 -1.4058
11777TIP3    H256823   1.054   0.874   3.471  0.3019 -1.7859 -0.4932
11778TIP3   OH256824   5.508   1.161   4.250  0.1146  0.1210  0.2938
11778TIP3    H156825   5.556   1.101   4.307  0.7812  0.3405 -0.0329
11778TIP3    H256826   5.567   1.235   4.238 -0.2240  0.3010 -0.2853
11779TIP3   OH256827   0.635   0.693  14.594  0.1579 -0.1562 -0.5613
11779TIP3    H156828   0.695   0.619  14.581  1.3745  1.1805 -3.0235
11779TIP3    H256829   0.692   0.770  14.590 -1.2511  0.9802  0.8522
11780TIP3   OH256830   6.071   2.539   5.188 -0.5494  0.2216 -0.2935
11780TIP3    H156831   6.043   2.482   5.116 -0.1320  0.1245 -0.3792
11780TIP3    H256832   6.052   2.628   5.157 -0.7038  0.1594 -0.3766
11781TIP3   OH256833   2.316   3.929  14.146 -0.6852 -0.2076 -0.5343
11781TIP3    H156834   2.312   3.885  14.231 -1.9042 -0.7916 -0.8785
11781TIP3    H256835   2.394   3.985  14.151 -1.0127  0.1217  1.1383
11782TIP3   OH256836   1.112   4.612  11.560  0.0098  0.4499  0.3219
11782TIP3    H156837   1.049   4.546  11.531 -0.4554  1.2086 -0.3844
11782TIP3    H256838   1.169   4.626  11.485 -1.5204  2.7999 -0.4428
11783TIP3   OH256839   5.317   0.109  14.429  0.1169  0.2290  0.0616
11783TIP3    H156840   5.382   0.094  14.360  0.8583 -0.1138  0.8292
11783TIP3    H256841   5.254   0.170  14.390  0.0286 -0.6666 -1.2353
11784TIP3   OH256842   5.212   4.999  16.795  0.2233  0.2148 -0.1951
11784TIP3    H156843   5.245   5.046  16.719  1.5107 -0.3190  0.0295
11784TIP3    H256844   5.130   5.043  16.816  0.1156  0.6918 -1.5721
11785TIP3   OH256845   5.795   5.734   2.603 -0.1499 -0.2410  0.3851
11785TIP3    H156846   5.826   5.730   2.694  0.2188  1.5466  0.3698
11785TIP3    H256847   5.744   5.815   2.599  0.3235 -0.0004 -1.1335
11786TIP3   OH256848   0.198   4.918  10.794 -0.0622 -0.2154  0.2340
11786TIP3    H156849   0.107   4.890  10.785 -0.0794 -0.9985  2.4910
11786TIP3    H256850   0.239   4.894  10.711 -1.5797 -1.1779 -0.2566
11787TIP3   OH256851   1.159   3.894   2.753 -0.4247  0.1512 -0.0150
11787TIP3    H156852   1.080   3.947   2.763 -0.4897  0.6851 -3.0854
11787TIP3    H256853   1.161   3.839   2.832 -2.7301  1.5634  1.0685
11788TIP3   OH256854   6.021   4.986  10.829  0.0832  0.4527 -0.3077
11788TIP3    H156855   6.114   4.964  10.835 -0.3872 -2.1513 -2.0655
11788TIP3    H256856   6.010   5.020  10.741 -0.6067  0.9306 -0.0387
11789TIP3   OH256857   6.618   5.891  13.451  0.3738 -0.7064  0.3065
11789TIP3    H156858   6.571   5.837  13.514  0.3974 -0.9171  0.1443
11789TIP3    H256859   6.680   5.831  13.410  1.2173 -0.2925  0.9594
11790TIP3   OH256860   1.042   6.106  14.193  0.2090 -0.2525 -0.3475
11790TIP3    H156861   0.998   6.187  14.219  1.2700 -0.7708  3.2304
11790TIP3    H256862   1.095   6.131  14.117  0.5883  2.4319  0.7502
11791TIP3   OH256863   0.236   3.384   3.830  0.1906  0.1842 -0.4076
11791TIP3    H156864   0.145   3.398   3.806  0.6292  2.2558 -0.9035
11791TIP3    H256865   0.239   3.403   3.924 -0.0886 -0.9058 -0.1735
11792TIP3   OH256866   1.070   4.224  14.982  0.2832 -0.1019 -0.0916
11792TIP3    H156867   1.111   4.288  15.040  0.0216  1.2140 -1.3112
11792TIP3    H256868   0.978   4.249  14.981  0.2009 -0.4207 -0.6767
11793TIP3   OH256869   4.948   2.297  16.427  0.5874  0.1616  0.0539
11793TIP3    H156870   4.874   2.269  16.373  0.8853  0.1880 -0.3732
11793TIP3    H256871   4.946   2.237  16.502 -0.1900  0.5101  0.3187
11794TIP3   OH256872   2.867   2.082  16.990  0.0204  0.1448 -0.3150
11794TIP3    H156873   2.800   2.147  17.011  0.4172  0.2972  0.5321
11794TIP3    H256874   2.925   2.126  16.928  1.1819  1.1807  1.4601
11795TIP3   OH256875   5.842   6.028  13.018 -0.0355 -0.2665 -0.1232
11795TIP3    H156876   5.890   6.099  12.976 -0.8306  0.5494  0.3179
11795TIP3    H256877   5.812   5.973  12.946  2.5232 -1.4414 -0.3491
11796TIP3   OH256878   5.457   1.660  13.221 -0.9088 -0.9815  0.2411
11796TIP3    H156879   5.378   1.695  13.262 -0.8731 -1.9083  1.1177
11796TIP3    H256880   5.435   1.652  13.128 -1.8220 -1.2026  0.4817
11797TIP3   OH256881   2.084   6.459   5.714 -0.3287  0.1781  0.8999
11797TIP3    H156882   2.092   6.371   5.752 -0.5215  0.3277  1.2874
11797TIP3    H256883   2.063   6.515   5.788 -1.0139  0.4254  0.5214
11798TIP3   OH256884   4.874   1.082   5.543 -0.9084 -0.3252 -0.1001
11798TIP3    H156885   4.901   1.116   5.628 -1.0104  0.7133 -0.4722
11798TIP3    H256886   4.786   1.048   5.558 -0.0636 -2.1994  0.7225
11799TIP3   OH256887   1.365   6.704   4.332  0.5657  0.1147 -0.2292
11799TIP3    H156888   1.317   6.752   4.264 -0.5841 -1.2206 -0.3814
11799TIP3    H256889   1.362   6.761   4.408  2.4684  1.9490 -1.4683
11800TIP3   OH256890   6.778   2.391   4.569  0.7948 -0.6897 -0.8083
11800TIP3    H156891   6.861   2.374   4.615  0.4283  1.3095  0.6402
11800TIP3    H256892   6.802   2.451   4.499  0.5171  0.1663 -0.1715
11801TIP3   OH256893   3.670   4.337   1.306  0.4204 -0.0698  0.1587
11801TIP3    H156894   3.724   4.372   1.235  1.6207 -1.1088  0.5228
11801TIP3    H256895   3.597   4.398   1.315  1.5234  1.3386 -0.3920
11802TIP3   OH256896   6.648   4.824   6.014  0.8129 -0.0376 -0.1149
11802TIP3    H156897   6.568   4.824   5.962 -0.6228 -1.3555  1.9777
11802TIP3    H256898   6.709   4.770   5.964 -0.5675 -1.3691 -0.4039
11803TIP3   OH256899   6.552   1.370  14.965 -0.0129 -0.2019 -0.0458
11803TIP3    H156900   6.585   1.395  14.879  0.1278 -0.1956  0.0093
11803TIP3    H256901   6.478   1.312  14.947 -1.5091  1.7232 -0.1917
11804TIP3   OH256902   6.686   5.316   5.629 -0.1130  0.4200 -0.2777
11804TIP3    H156903   6.653   5.229   5.651  0.1536 -0.0700 -1.7022
11804TIP3    H256904   6.708   5.356   5.713  0.9634 -1.3851  0.3326
11805TIP3   OH256905   5.179   0.826   2.755  0.1200 -0.3778  0.3672
11805TIP3    H156906   5.235   0.752   2.731  0.4929  0.8952 -3.0112
11805TIP3    H256907   5.233   0.881   2.811  1.0826 -0.8965 -0.0488
11806TIP3   OH256908   1.832   6.563  14.733  0.2412  0.0379  0.0165
11806TIP3    H156909   1.882   6.515  14.799 -0.4890 -0.2827  0.3412
11806TIP3    H256910   1.759   6.505  14.712  0.3962  0.2030 -0.9708
11807TIP3   OH256911   2.763   6.736   4.731 -0.0635  0.1046 -0.4321
11807TIP3    H156912   2.764   6.641   4.719 -0.4936  0.0466 -0.0315
11807TIP3    H256913   2.671   6.761   4.721 -0.2945  0.1878  1.5471
11808TIP3   OH256914   3.966   2.718  16.294 -0.0427  0.2359  0.2921
11808TIP3    H156915   4.019   2.647  16.330  0.2558 -0.1362 -0.8400
11808TIP3    H256916   3.928   2.680  16.214 -0.9847  0.9113  0.4120
11809TIP3   OH256917   0.779   3.490  10.951 -0.3373 -0.4477  0.7601
11809TIP3    H156918   0.837   3.418  10.925 -0.8564 -0.7870  0.5108
11809TIP3    H256919   0.823   3.569  10.921  0.0445 -0.6969  0.6629
11810TIP3   OH256920   6.257   5.037   4.855 -0.3691  0.1251 -0.3498
11810TIP3    H156921   6.330   5.059   4.913 -0.0974  0.5493 -0.8517
11810TIP3    H256922   6.247   4.943   4.864  0.1070  0.0953 -0.1188
11811TIP3   OH256923   3.392   5.738   5.883 -0.0984 -0.4534  0.0737
11811TIP3    H156924   3.456   5.778   5.943 -0.9419 -0.2080  0.8310
11811TIP3    H256925   3.383   5.801   5.812 -2.1931  1.2616  1.7765
11812TIP3   OH256926   3.249   2.088   5.390 -0.4473 -0.0552 -0.0247
11812TIP3    H156927   3.276   2.020   5.451 -2.8665  0.4303  1.6656
11812TIP3    H256928   3.312   2.158   5.402  1.5554 -1.6050 -1.1576
11813TIP3   OH256929   0.650   2.189   0.773  0.3035 -0.4594  0.2053
11813TIP3    H156930   0.617   2.240   0.699  0.7402  0.4756  0.6373
11813TIP3    H256931   0.737   2.161   0.746  0.9569  0.9095  0.8149
11814TIP3   OH256932   3.057   3.949   4.166 -0.0202 -0.1092 -0.5267
11814TIP3    H156933   3.136   4.002   4.181  0.4311 -1.0079  0.3152
11814TIP3    H256934   3.077   3.864   4.206 -1.6306 -0.1612  0.1963
11815TIP3   OH256935   3.420   4.175  16.189  0.3403 -0.6268 -0.6857
11815TIP3    H156936   3.482   4.172  16.116  0.4256 -1.0060 -0.5985
11815TIP3    H256937   3.400   4.084  16.208  2.5362 -0.6987  1.6385
11816TIP3   OH256938   2.615   2.529  11.435  0.0203  0.6939  0.1199
11816TIP3    H156939   2.671   2.514  11.512  0.5138 -0.8470 -0.5179
11816TIP3    H256940   2.676   2.535  11.362 -0.7136 -3.2463 -0.9191
11817TIP3   OH256941   1.029   6.326  14.816 -0.2351  0.1157 -0.0632
11817TIP3    H156942   0.934   6.326  14.829  0.1150  2.0329  2.9578
11817TIP3    H256943   1.056   6.238  14.844 -1.1974 -0.8808 -2.1098
11818TIP3   OH256944   2.993   4.725   4.511  0.0299 -0.0737  0.2233
11818TIP3    H156945   3.037   4.769   4.439 -0.5949  0.4925  0.1840
11818TIP3    H256946   2.900   4.731   4.490 -0.0176 -2.6288 -0.4865
11819TIP3   OH256947   5.713   4.136   0.249 -0.0696  0.1299 -0.5864
11819TIP3    H156948   5.622   4.165   0.236  0.6113  2.3092 -0.6853
11819TIP3    H256949   5.765   4.198   0.199  1.4770 -1.2662 -0.7331
11820TIP3   OH256950   5.065   2.152  11.389  0.3006 -1.1814 -0.2506
11820TIP3    H156951   5.041   2.203  11.465  1.3209 -0.6096 -0.3089
11820TIP3    H256952   5.030   2.201  11.314  1.9666 -0.1523 -0.3630
11821TIP3   OH256953   4.099   5.539   5.359  0.2664  0.3389 -0.0037
11821TIP3    H156954   4.107   5.618   5.305  0.4043  0.2245 -0.1549
11821TIP3    H256955   4.178   5.489   5.339  0.4997  0.4650  0.5842
11822TIP3   OH256956   1.040   2.105  14.768 -0.0230 -0.3501 -0.3971
11822TIP3    H156957   1.130   2.113  14.801 -0.9116  2.1099  1.6954
11822TIP3    H256958   1.048   2.117  14.674  1.8946 -0.4442 -0.2779
11823TIP3   OH256959   6.076   6.681   4.866  0.3137  0.0846 -0.0400
11823TIP3    H156960   6.076   6.653   4.774 -0.8555 -3.2363  0.9307
11823TIP3    H256961   5.995   6.730   4.876  0.0486 -0.2411 -0.5668
11824TIP3   OH256962   0.170   4.402   1.946 -0.8397  0.4806  0.3193
11824TIP3    H156963   0.142   4.493   1.960 -1.0540  0.4902 -0.1878
11824TIP3    H256964   0.218   4.404   1.863 -0.2373  0.2626  0.6574
11825TIP3   OH256965   1.449   0.416  11.982 -0.1068  0.2064 -1.2137
11825TIP3    H156966   1.429   0.334  12.028 -1.0786  0.5952 -0.9190
11825TIP3    H256967   1.542   0.430  11.996 -0.4236  0.4032  0.7844
11826TIP3   OH256968   3.489   6.792   2.456  0.1032  0.0211  0.5549
11826TIP3    H156969   3.420   6.792   2.523 -0.0693  0.7512  0.3800
11826TIP3    H256970   3.517   6.883   2.451  0.7813 -0.1984  0.3110
11827TIP3   OH256971   5.189   2.102  11.729  0.0492 -0.2932  0.4539
11827TIP3    H156972   5.131   2.061  11.793 -1.3185 -0.5515 -0.9162
11827TIP3    H256973   5.131   2.156  11.675  1.3371  0.7524  0.0853
11828TIP3   OH256974   3.914   0.849   5.548  0.4977  0.6232 -0.2132
11828TIP3    H156975   3.891   0.942   5.539  1.4451  1.3434  3.6265
11828TIP3    H256976   3.883   0.825   5.635  2.3193 -2.0304 -0.2307
11829TIP3   OH256977   6.604   3.598   1.967 -0.0859  0.1815  0.0631
11829TIP3    H156978   6.698   3.594   1.952  0.4174  0.5441  2.8819
11829TIP3    H256979   6.586   3.523   2.024 -1.2500  1.0343  0.8356
11830TIP3   OH256980   1.702   2.511   2.238 -0.1980 -0.4935  0.0746
11830TIP3    H156981   1.695   2.601   2.267 -1.1703 -0.3162 -0.6825
11830TIP3    H256982   1.653   2.460   2.303 -0.2387 -0.3980  0.1171
11831TIP3   OH256983   0.873   0.179  10.643  0.4141 -0.2841 -0.3674
11831TIP3    H156984   0.789   0.172  10.687  1.5650  1.6451  2.2789
11831TIP3    H256985   0.855   0.232  10.565 -0.8002  0.1489  0.2017
11832TIP3   OH256986   5.600   4.431  15.115  0.4126  0.0226  0.0244
11832TIP3    H156987   5.605   4.526  15.114  1.0316  0.0180  1.8932
11832TIP3    H256988   5.652   4.404  15.191  2.5533 -1.9420 -2.0356
11833TIP3   OH256989   5.094   1.485   2.071  0.1690 -0.0618  0.0519
11833TIP3    H156990   5.101   1.399   2.028 -1.1012  0.8244 -2.0224
11833TIP3    H256991   5.031   1.471   2.142 -0.2861 -0.7919 -0.4836
11834TIP3   OH256992   0.460   4.170  15.712 -0.2876 -0.3001 -0.0706
11834TIP3    H156993   0.382   4.201  15.666 -0.0366  0.0144 -0.2901
11834TIP3    H256994   0.463   4.223  15.792  0.0756  0.1723 -0.3892
11835TIP3   OH256995   3.343   0.134  13.869 -0.3305 -0.4798  0.3247
11835TIP3    H156996   3.281   0.088  13.813  0.5083 -1.7757  0.4207
11835TIP3    H256997   3.362   0.216  13.822 -0.5242 -1.0221 -0.7257
11836TIP3   OH256998   3.135   6.134  14.558 -0.2389  0.1165  0.1107
11836TIP3    H156999   3.184   6.078  14.498  0.1657  1.3049 -0.6844
11836TIP3    H257000   3.198   6.156  14.627 -0.4570 -0.5565  0.5317
11837TIP3   OH257001   3.872   2.373   4.741 -0.4128  0.2553  0.5864
11837TIP3    H157002   3.859   2.467   4.735  0.2580  0.2804 -0.5409
11837TIP3    H257003   3.942   2.362   4.806  0.5911  0.6218 -0.4212
11838TIP3   OH257004   2.271   4.965  15.642  0.0372  0.2326  0.1798
11838TIP3    H157005   2.366   4.973  15.635  0.1823 -0.5899  1.0341
11838TIP3    H257006   2.256   4.949  15.736 -0.7813 -1.5876 -0.2435
11839TIP3   OH257007   3.578   4.306  12.403 -0.1858 -0.2400  0.2094
11839TIP3    H157008   3.563   4.303  12.308  0.8535  1.2235 -0.0104
11839TIP3    H257009   3.670   4.328  12.413 -0.9107  2.4478  1.5377
11840TIP3   OH257010   0.957   1.925  15.849 -0.4128  0.3855  0.1561
11840TIP3    H157011   0.882   1.944  15.792  0.1250 -0.7728 -0.9388
11840TIP3    H257012   1.021   1.883  15.792  0.3492 -0.2852  1.4874
11841TIP3   OH257013   2.221   2.481   1.259  0.0158  0.0691  0.2871
11841TIP3    H157014   2.291   2.520   1.311 -1.3495  1.8961  0.8271
11841TIP3    H257015   2.145   2.478   1.318 -1.0202  0.4017 -0.9958
11842TIP3   OH257016   0.339   4.892   1.487  0.0006 -0.0314 -0.2475
11842TIP3    H157017   0.404   4.926   1.548 -1.5143  0.5741  1.0651
11842TIP3    H257018   0.384   4.823   1.438  1.5883  0.3536  0.6742
11843TIP3   OH257019   0.624   6.009  13.082 -0.2258 -0.7006 -0.2549
11843TIP3    H157020   0.587   6.093  13.056 -0.9383 -0.6194  0.9647
11843TIP3    H257021   0.548   5.951  13.089 -0.1708 -0.5236  2.3157
11844TIP3   OH257022   2.142   4.982   3.475 -0.0192 -0.3757 -0.1649
11844TIP3    H157023   2.111   4.942   3.556 -1.7233 -2.2088 -1.6973
11844TIP3    H257024   2.154   4.909   3.414  0.8609  1.0127 -1.7077
11845TIP3   OH257025   6.331   2.356   5.713 -0.0507 -0.8051 -0.0960
11845TIP3    H157026   6.338   2.446   5.746  0.4707 -0.5990 -0.7481
11845TIP3    H257027   6.244   2.327   5.740  0.3055 -0.6031  1.3431
11846TIP3   OH257028   6.275   2.439   4.553  0.1177  0.1919 -0.3572
11846TIP3    H157029   6.293   2.376   4.484  1.3876 -0.1021  0.2133
11846TIP3    H257030   6.362   2.472   4.577 -0.2342 -0.2698  1.6164
11847TIP3   OH257031   0.989   2.731  13.616 -0.2554 -0.0361 -0.1706
11847TIP3    H157032   0.966   2.781  13.694  0.2832 -0.3240  0.1789
11847TIP3    H257033   0.927   2.761  13.549 -0.2494  0.7478  0.1622
11848TIP3   OH257034   0.733   0.131   2.964 -0.0879  0.4828 -0.1375
11848TIP3    H157035   0.799   0.067   2.937  0.9628  1.2542  0.5730
11848TIP3    H257036   0.711   0.107   3.053 -0.8962  0.1204 -0.4357
11849TIP3   OH257037   2.908   1.288  14.564  0.3229  0.4355 -0.3505
11849TIP3    H157038   2.868   1.334  14.638  3.2857  1.1616  0.8967
11849TIP3    H257039   2.897   1.347  14.490 -1.5507  0.2674 -0.2206
11850TIP3   OH257040   4.867   4.493   0.933 -0.2518  0.4272  0.1683
11850TIP3    H157041   4.844   4.431   1.003  3.1845  0.0093  0.9937
11850TIP3    H257042   4.787   4.545   0.921 -1.8039 -1.2837  2.4827
11851TIP3   OH257043   1.453   6.523  10.512  0.2880  0.1181 -0.5109
11851TIP3    H157044   1.393   6.466  10.465  0.2367 -0.5422  0.3556
11851TIP3    H257045   1.532   6.471  10.525  0.6078  0.5762 -0.5845
11852TIP3   OH257046   4.367   5.385  16.592 -0.4835  0.2202 -0.4560
11852TIP3    H157047   4.384   5.397  16.499 -0.6254  0.3907 -0.4593
11852TIP3    H257048   4.454   5.368  16.630 -0.3232  0.9330 -0.4988
11853TIP3   OH257049   2.403   4.501  15.391 -0.7186 -0.1021  0.1601
11853TIP3    H157050   2.404   4.545  15.476  0.9286 -0.4909  0.3731
11853TIP3    H257051   2.323   4.449  15.391 -1.9912  1.7939  0.4598
11854TIP3   OH257052   2.435   6.171  15.522  0.4000 -0.2442  0.5511
11854TIP3    H157053   2.519   6.201  15.555  0.2728  0.0483  0.6147
11854TIP3    H257054   2.448   6.078  15.503  1.1022  0.0954 -0.6582
11855TIP3   OH257055   4.908   4.508  14.301  0.1348 -0.1387  0.3297
11855TIP3    H157056   4.949   4.508  14.215 -1.1817 -0.4669 -0.2924
11855TIP3    H257057   4.945   4.585  14.344  0.6805  0.1131 -0.5768
11856TIP3   OH257058   6.789   6.210  15.465 -0.7162  0.1075 -0.3813
11856TIP3    H157059   6.736   6.133  15.444  0.6669 -0.9192 -0.2202
11856TIP3    H257060   6.755   6.239  15.550 -1.0112 -0.5453 -0.2660
11857TIP3   OH257061   3.085   6.721  14.689 -0.2595  0.2062 -0.1802
11857TIP3    H157062   3.168   6.760  14.716 -0.7216  0.5725  0.7509
11857TIP3    H257063   3.036   6.793  14.651 -0.1469 -0.0133 -0.7387
11858TIP3   OH257064   4.740   6.612  14.121  0.2426 -0.5569  0.2810
11858TIP3    H157065   4.786   6.584  14.200  3.4966 -1.1627 -1.7332
11858TIP3    H257066   4.686   6.537  14.097 -0.5552 -0.4697  1.7323
11859TIP3   OH257067   0.780   5.520   4.863  0.6203  0.0208  0.5313
11859TIP3    H157068   0.840   5.450   4.837  1.7858  1.4551 -0.7467
11859TIP3    H257069   0.743   5.551   4.781  1.8953  2.4610  0.8224
11860TIP3   OH257070   6.232   2.245   1.128 -0.2262  0.3657  0.5680
11860TIP3    H157071   6.219   2.328   1.082  1.1351  1.4677  2.1443
11860TIP3    H257072   6.159   2.239   1.189 -1.5045 -0.6426 -1.0154
11861TIP3   OH257073   0.465   3.276   2.426 -0.2992  0.0895 -0.0706
11861TIP3    H157074   0.390   3.221   2.403 -0.9855  0.6080  0.8592
11861TIP3    H257075   0.441   3.315   2.511  1.3062 -0.2490  0.5655
11862TIP3   OH257076   3.576   1.736  15.687  0.6986 -0.3892  0.3945
11862TIP3    H157077   3.661   1.706  15.719 -0.4296 -3.4815  0.6127
11862TIP3    H257078   3.513   1.673  15.722 -1.3075 -0.1378 -2.5612
11863TIP3   OH257079   5.096   4.175  14.376  0.6755 -0.8133  0.5431
11863TIP3    H157080   5.095   4.089  14.419  0.0157  0.0670  2.3282
11863TIP3    H257081   5.187   4.204  14.384  1.0772 -1.6364 -0.7283
11864TIP3   OH257082   3.606   4.775   2.418 -0.2145  0.5935  0.7746
11864TIP3    H157083   3.688   4.811   2.384 -0.3856 -0.8831 -1.3462
11864TIP3    H257084   3.556   4.851   2.447  1.3131  1.6293  0.7239
11865TIP3   OH257085   0.170   4.912  15.180  0.0588  0.5615  0.0789
11865TIP3    H157086   0.176   5.007  15.189  1.1393  0.5888 -0.7756
11865TIP3    H257087   0.260   4.881  15.192 -0.1742 -0.2885 -0.3150
11866TIP3   OH257088   3.054   6.526   4.528 -0.3802 -0.2394 -0.1207
11866TIP3    H157089   3.137   6.496   4.564  0.5128 -0.0847 -1.9904
11866TIP3    H257090   3.022   6.452   4.476 -1.4081 -0.2955  0.5778
11867TIP3   OH257091   3.013   3.034   1.225 -0.2983 -0.0957  0.0062
11867TIP3    H157092   2.972   2.973   1.286 -2.4181  1.2983  0.0290
11867TIP3    H257093   3.043   3.107   1.280 -0.5045  0.2824 -0.3760
11868TIP3   OH257094   5.739   2.087   6.145  0.6181  0.4131  0.0595
11868TIP3    H157095   5.710   2.014   6.201  0.1431  0.3396 -0.2777
11868TIP3    H257096   5.680   2.159   6.167  1.3963  0.8491  0.7429
11869TIP3   OH257097   0.737   5.459   2.612  0.6319 -0.0550 -0.2456
11869TIP3    H157098   0.739   5.429   2.703  0.0839  2.3666  0.6036
11869TIP3    H257099   0.828   5.482   2.592  0.7655 -0.6647 -0.3202
11870TIP3   OH257100   1.362   5.068   0.200 -0.0160  0.0603  0.3566
11870TIP3    H157101   1.357   5.017   0.281 -0.0565  0.2946  0.5017
11870TIP3    H257102   1.363   5.002   0.131 -1.1546 -0.1174  0.4934
11871TIP3   OH257103   1.191   4.672   3.128 -0.0522 -0.1602  0.1393
11871TIP3    H157104   1.103   4.636   3.116 -0.6762  1.0686  0.9192
11871TIP3    H257105   1.225   4.684   3.039 -1.4086  1.1150 -0.2265
11872TIP3   OH257106   0.503   4.043  16.984  0.1070  0.3488 -0.2982
11872TIP3    H157107   0.538   4.115  16.932 -1.3534 -0.5608 -2.6202
11872TIP3    H257108   0.412   4.034  16.955 -0.9481  0.1751  2.8436
11873TIP3   OH257109   3.419   2.198  11.657  0.4153  0.5221  0.5869
11873TIP3    H157110   3.418   2.118  11.604  0.3877  0.3319  0.8703
11873TIP3    H257111   3.411   2.166  11.747 -0.1571  0.8731  0.6635
11874TIP3   OH257112   0.398   4.311  14.070 -0.2870  0.1178 -0.1374
11874TIP3    H157113   0.471   4.252  14.054  1.2224  1.4438  1.6237
11874TIP3    H257114   0.430   4.397  14.041 -1.1957  0.6781  0.5093
11875TIP3   OH257115   1.774   1.901  12.633 -0.1249 -0.5430 -0.1561
11875TIP3    H157116   1.687   1.887  12.671 -0.4579  0.3057 -0.5851
11875TIP3    H257117   1.818   1.958  12.696 -1.3657  2.4962 -1.9312
11876TIP3   OH257118   0.670   1.398   3.870 -0.4267  0.2326 -0.0108
11876TIP3    H157119   0.625   1.418   3.953  0.8191 -0.1176  0.7557
11876TIP3    H257120   0.758   1.434   3.881 -0.4189  0.6787 -1.4059
11877TIP3   OH257121   5.843   4.782   4.108  0.5503  0.1142 -0.3372
11877TIP3    H157122   5.759   4.796   4.065  0.9388  1.5446 -0.6677
11877TIP3    H257123   5.866   4.692   4.086 -1.4247 -0.6691  0.7102
11878TIP3   OH257124   0.342   0.238  11.721  0.0595 -0.1858  0.1377
11878TIP3    H157125   0.342   0.333  11.734  3.7888 -0.2108  0.8523
11878TIP3    H257126   0.381   0.225  11.635  0.2974 -1.0787  0.3731
11879TIP3   OH257127   0.699   6.623   4.820  0.6061 -0.2404  0.0606
11879TIP3    H157128   0.740   6.542   4.852 -0.0220 -0.5210  0.1684
11879TIP3    H257129   0.772   6.683   4.806  0.9743 -0.3862  1.2538
11880TIP3   OH257130   3.053   0.594   5.278 -0.0960  0.3859  0.2302
11880TIP3    H157131   2.969   0.614   5.320  0.2736 -0.0406  1.1831
11880TIP3    H257132   3.062   0.499   5.285 -0.0043  0.3078 -0.7890
11881TIP3   OH257133   5.692   0.100  15.075  0.2486 -0.2668 -0.3884
11881TIP3    H157134   5.729   0.128  15.159 -1.7249 -1.2604  0.8459
11881TIP3    H257135   5.704   0.176  15.018  3.1580 -0.1857  0.2687
11882TIP3   OH257136   6.252   2.812  11.687  0.6300  0.2491 -0.1454
11882TIP3    H157137   6.290   2.729  11.715  1.6657 -0.7250 -4.0546
11882TIP3    H257138   6.159   2.792  11.673  0.3958  0.3864  1.1668
11883TIP3   OH257139   0.523   1.715  16.765  0.6799 -0.0107  0.8838
11883TIP3    H157140   0.436   1.725  16.726  0.5769  0.2264  1.1730
11883TIP3    H257141   0.543   1.801  16.801  0.8692 -0.1695  1.1591
11884TIP3   OH257142   5.920   4.302  16.843  0.6592  0.0384 -0.0937
11884TIP3    H157143   5.903   4.386  16.886 -1.5199 -0.4292 -0.0207
11884TIP3    H257144   5.914   4.237  16.912 -0.5398 -0.4706 -0.6583
11885TIP3   OH257145   5.653   1.360   3.081 -0.1984 -0.2194 -0.3169
11885TIP3    H157146   5.607   1.281   3.054 -1.0366  0.7470 -1.7581
11885TIP3    H257147   5.746   1.337   3.073 -0.4214 -0.3058 -3.0926
11886TIP3   OH257148   0.441   6.420  12.649 -0.6162 -0.1785  1.0118
11886TIP3    H157149   0.493   6.481  12.701  0.5193  1.6003 -2.0720
11886TIP3    H257150   0.505   6.365  12.605 -1.4190  0.2907 -0.7746
11887TIP3   OH257151   0.515   3.669   1.185  0.0206 -0.1776  0.1180
11887TIP3    H157152   0.602   3.705   1.171  0.5145 -1.5738 -0.5458
11887TIP3    H257153   0.526   3.574   1.175 -1.5223 -0.3969  0.2680
11888TIP3   OH257154   0.281   0.886   2.999  0.5139  0.1015  0.6147
11888TIP3    H157155   0.350   0.931   3.047  0.4150  1.2745 -0.3403
11888TIP3    H257156   0.269   0.937   2.919 -1.1629 -0.3171  0.5734
11889TIP3   OH257157   2.123   5.295  13.650  0.0170  0.4855 -0.8994
11889TIP3    H157158   2.194   5.264  13.707 -2.2076  0.4188  1.9110
11889TIP3    H257159   2.120   5.231  13.579  1.8775 -0.2653 -0.3250
11890TIP3   OH257160   5.417   2.419  10.906  0.6639 -0.8558 -0.0843
11890TIP3    H157161   5.431   2.395  10.814  0.4699  0.1503 -0.3889
11890TIP3    H257162   5.492   2.475  10.927 -0.0816  0.1652 -0.0990
11891TIP3   OH257163   1.108   1.423   4.287  0.0456 -1.1569  0.2281
11891TIP3    H157164   1.046   1.474   4.236 -1.7172 -1.0776  2.3561
11891TIP3    H257165   1.149   1.364   4.224 -1.8215 -0.8515 -1.3052
11892TIP3   OH257166   0.629   3.044  13.344 -0.0266  0.2835 -0.3177
11892TIP3    H157167   0.724   3.037  13.334  0.2754  2.2585  0.7636
11892TIP3    H257168   0.608   3.131  13.311 -1.3169  0.2700  0.4281
11893TIP3   OH257169   2.992   0.889  17.058 -0.0466  0.3626 -0.2149
11893TIP3    H157170   2.952   0.834  16.991  0.4402 -0.7634  0.4024
11893TIP3    H257171   3.045   0.829  17.110 -1.6050  0.9220  2.1291
11894TIP3   OH257172   0.010   4.164  17.083  0.2678 -0.2206  0.3234
11894TIP3    H157173   0.043   4.167  17.173 -0.2701  3.1487  0.4807
11894TIP3    H257174  -0.085   4.156  17.093  0.3479 -1.8848 -0.0235
11895TIP3   OH257175   0.879   2.918  14.895  0.1104 -0.0334 -0.2580
11895TIP3    H157176   0.947   2.910  14.829  0.9418 -0.0713  0.5839
11895TIP3    H257177   0.806   2.959  14.850  0.9217  0.5813 -1.0209
11896TIP3   OH257178   6.581   2.428  16.358  0.0835 -0.0050 -0.9450
11896TIP3    H157179   6.674   2.417  16.380 -0.3688 -0.2726  0.9732
11896TIP3    H257180   6.552   2.340  16.334  0.0348 -0.1596 -0.3270
11897TIP3   OH257181   5.852   2.388   5.340  0.3089  0.1861 -0.2178
11897TIP3    H157182   5.866   2.296   5.318  1.4907  0.5022 -0.8428
11897TIP3    H257183   5.876   2.436   5.261 -1.7797  0.9513 -0.3981
11898TIP3   OH257184   5.804   3.203   0.535 -0.2019 -0.1057  0.3862
11898TIP3    H157185   5.760   3.125   0.504 -0.7171 -0.9903  3.1740
11898TIP3    H257186   5.791   3.202   0.630  1.5391  2.2663  0.7097
11899TIP3   OH257187   6.213   1.225   3.548 -0.2746  0.1369 -0.0624
11899TIP3    H157188   6.159   1.182   3.615 -1.7152 -0.0720 -1.3203
11899TIP3    H257189   6.260   1.294   3.596 -0.6734 -0.5252  1.3071
11900TIP3   OH257190   2.699   1.862   1.090 -1.3955  0.3188  0.0059
11900TIP3    H157191   2.701   1.805   1.014 -0.0050  0.3750 -0.0118
11900TIP3    H257192   2.750   1.939   1.064 -3.5984  1.8006 -0.1378
11901TIP3   OH257193   4.778   1.504  10.741 -0.0607  0.0365 -0.4448
11901TIP3    H157194   4.867   1.540  10.749 -0.4060  0.6610  0.8658
11901TIP3    H257195   4.789   1.423  10.693  1.3638 -0.3916  0.5572
11902TIP3   OH257196   3.309   2.592  12.040 -0.1369  0.4200  0.9346
11902TIP3    H157197   3.356   2.650  11.979  0.7846 -2.3361 -1.0843
11902TIP3    H257198   3.219   2.626  12.041  0.5830  2.3769  0.4538
11903TIP3   OH257199   2.524   1.212   5.316  0.2760  0.1159 -0.3186
11903TIP3    H157200   2.454   1.247   5.261  0.2695  0.7471  0.0900
11903TIP3    H257201   2.529   1.271   5.390 -0.0625 -1.0217  0.6297
11904TIP3   OH257202   6.174   4.676   1.787 -0.9003 -0.1167 -0.1977
11904TIP3    H157203   6.262   4.639   1.790 -0.8727 -0.0728 -0.4641
11904TIP3    H257204   6.181   4.749   1.725 -0.5824  1.3028  1.4770
11905TIP3   OH257205   0.738   2.438  13.693 -0.1953 -0.4020  0.0145
11905TIP3    H157206   0.652   2.398  13.691 -0.0231 -0.7730  0.0140
11905TIP3    H257207   0.736   2.503  13.623 -0.3873 -0.5944 -0.1576
11906TIP3   OH257208   1.441   2.133  10.971 -1.0056 -0.3973 -0.1476
11906TIP3    H157209   1.485   2.194  10.911 -0.4012  0.6119  1.2904
11906TIP3    H257210   1.513   2.097  11.024 -2.0276  2.8602  3.6928
11907TIP3   OH257211   4.677   6.207   2.869 -0.0904  0.0018 -0.8503
11907TIP3    H157212   4.765   6.211   2.907 -0.2939  0.1036 -0.3813
11907TIP3    H257213   4.627   6.152   2.930 -1.0653  2.1354  0.3375
11908TIP3   OH257214   2.789   3.447  16.447  0.4457  0.0652  0.5388
11908TIP3    H157215   2.861   3.413  16.393 -0.6424 -1.4220 -0.0183
11908TIP3    H257216   2.824   3.526  16.487  1.7949  0.3385 -1.1372
11909TIP3   OH257217   5.974   5.128  11.672  0.6009 -0.3785 -0.4517
11909TIP3    H157218   6.034   5.202  11.686  1.9465 -0.7053 -3.9266
11909TIP3    H257219   5.917   5.157  11.600 -1.9021 -1.0048  1.2173
11910TIP3   OH257220   2.336   4.135   6.362 -1.2628  0.1643  0.1070
11910TIP3    H157221   2.322   4.059   6.305  2.8415 -1.5355  1.2164
11910TIP3    H257222   2.311   4.104   6.449 -1.1529  0.6069  0.2931
11911TIP3   OH257223   2.321   0.929  14.833 -0.1178  0.3917 -0.2851
11911TIP3    H157224   2.378   0.988  14.783 -1.0190  0.8995 -0.7341
11911TIP3    H257225   2.371   0.848  14.839  0.6763  0.8424 -0.6311
11912TIP3   OH257226   6.513   3.969   1.464 -0.9095 -0.1763 -0.3885
11912TIP3    H157227   6.537   3.881   1.494 -0.9087 -0.1234 -0.2308
11912TIP3    H257228   6.557   3.978   1.379 -2.1373 -0.9012 -1.1147
11913TIP3   OH257229   4.913   5.815   4.142 -0.0824 -0.4543  0.2247
11913TIP3    H157230   4.971   5.740   4.129 -0.1619 -0.5458  0.4032
11913TIP3    H257231   4.903   5.853   4.054  3.3092  1.8428  0.7377
11914TIP3   OH257232   2.276   5.198  12.950 -0.3817  0.0787 -0.3200
11914TIP3    H157233   2.284   5.260  12.878  0.9446  0.6283  0.2863
11914TIP3    H257234   2.295   5.113  12.910  2.3544  0.6073 -0.2594
11915TIP3   OH257235   5.807   3.567  16.963  0.1712 -0.1880  0.0187
11915TIP3    H157236   5.845   3.654  16.975 -1.4570  0.6489 -0.7920
11915TIP3    H257237   5.776   3.566  16.873 -0.1458 -1.4963  0.1242
11916TIP3   OH257238   4.671   4.782   1.997 -0.0399  0.0548  0.1038
11916TIP3    H157239   4.602   4.728   2.036  0.5468 -1.0004 -0.2923
11916TIP3    H257240   4.728   4.804   2.071 -0.6524  0.7141  0.3862
11917TIP3   OH257241   1.617   2.973  16.837 -0.5098  0.2501  0.2322
11917TIP3    H157242   1.526   3.002  16.841 -0.4548  0.5617 -0.5797
11917TIP3    H257243   1.665   3.051  16.807 -0.1144 -0.1867 -0.2724
11918TIP3   OH257244   0.616   2.576   5.446 -0.3463 -0.1400  0.6303
11918TIP3    H157245   0.655   2.663   5.457  0.8301 -0.7156  0.9957
11918TIP3    H257246   0.527   2.595   5.416  1.1170  1.1156 -3.1815
11919TIP3   OH257247   0.420   3.912   3.376  0.0792  0.8901  0.0640
11919TIP3    H157248   0.351   3.872   3.323 -0.1183  0.6558  0.4950
11919TIP3    H257249   0.379   3.928   3.461  0.7416  0.1659  0.5272
11920TIP3   OH257250   0.434   0.202   4.400  0.8498 -0.5156  0.1462
11920TIP3    H157251   0.504   0.151   4.359  0.9312 -1.1948  1.0927
11920TIP3    H257252   0.411   0.151   4.478  0.0311  0.2476  0.4068
11921TIP3   OH257253   5.047   0.512   2.799 -0.2896 -0.3988 -0.0827
11921TIP3    H157254   5.084   0.424   2.811 -1.2013 -0.8314 -0.3765
11921TIP3    H257255   5.040   0.521   2.704  0.3561  0.2278 -0.0711
11922TIP3   OH257256   6.387   6.229   1.336  0.2573  0.1479 -0.0437
11922TIP3    H157257   6.405   6.145   1.377  0.0418 -0.2521 -0.7640
11922TIP3    H257258   6.473   6.272   1.332  0.8431 -1.1313 -2.0820
11923TIP3   OH257259   4.855   4.740   3.959 -0.1051  0.1676  0.3314
11923TIP3    H157260   4.847   4.704   3.871 -0.3009 -2.0259  1.2186
11923TIP3    H257261   4.765   4.756   3.988 -0.1298 -0.7084  0.7584
11924TIP3   OH257262   6.165   4.900  12.297 -0.4919  0.0212  0.3037
11924TIP3    H157263   6.207   4.832  12.350  0.1141  1.5414  1.8032
11924TIP3    H257264   6.237   4.945  12.254 -0.8989 -0.3216 -0.7552
11925TIP3   OH257265   4.982   1.997  14.631  0.1653  0.4985 -0.4407
11925TIP3    H157266   4.914   2.045  14.679  0.7533 -0.3604  1.2718
11925TIP3    H257267   5.017   1.934  14.694  1.6675  0.0438 -1.6888
11926TIP3   OH257268   3.196   1.338  11.873  0.1289  0.0412  0.1656
11926TIP3    H157269   3.204   1.247  11.846  0.7050 -0.0551  0.6513
11926TIP3    H257270   3.245   1.343  11.956 -0.1255  0.7273  0.2773
11927TIP3   OH257271   4.376   3.673   2.287 -0.4382  0.1619  0.3543
11927TIP3    H157272   4.453   3.670   2.343  0.1892 -0.1742 -0.5250
11927TIP3    H257273   4.388   3.601   2.225 -0.4552  1.3760 -1.0848
11928TIP3   OH257274   6.314   5.730   2.851 -0.4118  0.1543 -0.0972
11928TIP3    H157275   6.268   5.735   2.935 -1.8360 -2.2493 -0.6799
11928TIP3    H257276   6.356   5.815   2.842 -1.5948  1.0522  2.2777
11929TIP3   OH257277   4.755   3.759   5.669  0.4317  0.0075  0.3667
11929TIP3    H157278   4.787   3.765   5.578  0.1373 -1.1521  0.1725
11929TIP3    H257279   4.831   3.726   5.718  1.3075  2.8449  0.9804
11930TIP3   OH257280   3.736   4.949   3.892 -0.8214  0.8213  0.5932
11930TIP3    H157281   3.829   4.931   3.882 -1.2380 -0.9269 -0.3669
11930TIP3    H257282   3.725   5.039   3.864  0.6366  1.1436  1.0426
11931TIP3   OH257283   1.068   0.213   3.112  0.5531 -0.2994  0.2586
11931TIP3    H157284   1.111   0.147   3.057 -0.6822  1.3842 -2.8788
11931TIP3    H257285   1.100   0.297   3.078  0.8964  0.7997  3.1478
11932TIP3   OH257286   5.756   0.458  12.213 -0.1116 -0.4449 -0.0265
11932TIP3    H157287   5.709   0.405  12.149  0.5322 -1.9234  0.7176
11932TIP3    H257288   5.757   0.546  12.175 -0.3794 -1.1539 -1.7044
11933TIP3   OH257289   0.144   0.670   1.077  0.3939  0.7427  0.2524
11933TIP3    H157290   0.130   0.576   1.089  1.0275  0.7515  1.0626
11933TIP3    H257291   0.061   0.710   1.104  0.0663  0.4188 -0.2481
11934TIP3   OH257292   4.869   4.870   4.625  0.6303 -0.2387 -0.3146
11934TIP3    H157293   4.839   4.807   4.691 -1.6302  1.4881  0.3687
11934TIP3    H257294   4.791   4.890   4.573  1.6477  0.9069 -1.4540
11935TIP3   OH257295   2.169   6.400   0.213 -0.3085  0.0488  0.0751
11935TIP3    H157296   2.132   6.438   0.293  0.0601  0.0179  0.2630
11935TIP3    H257297   2.094   6.365   0.166 -1.0007  3.1717 -1.2753
11936TIP3   OH257298   5.216   3.822   1.863  0.4085 -0.2649  0.5974
11936TIP3    H157299   5.164   3.741   1.863  0.7999 -0.5152  1.0774
11936TIP3    H257300   5.305   3.794   1.885  0.5913  0.2647  0.5392
11937TIP3   OH257301   3.179   4.174  12.320 -0.4982 -0.2221  0.5540
11937TIP3    H157302   3.221   4.181  12.406 -0.7585  1.6097  0.5553
11937TIP3    H257303   3.085   4.182  12.338 -0.5955 -0.4389  0.1516
11938TIP3   OH257304   0.544   5.688   5.925  1.0774  0.1984 -0.0360
11938TIP3    H157305   0.592   5.726   5.998 -0.0491  0.5467  0.5267
11938TIP3    H257306   0.565   5.595   5.928  1.2188  0.2510  0.5780
11939TIP3   OH257307   0.348   0.987   5.473 -0.3042 -0.2091  0.1285
11939TIP3    H157308   0.324   1.047   5.544 -0.7275 -0.6873  0.3963
11939TIP3    H257309   0.408   0.925   5.514 -1.0292 -0.8562  0.2302
11940TIP3   OH257310   4.355   1.261   0.820  0.4328 -0.5230 -0.5879
11940TIP3    H157311   4.269   1.299   0.836  0.8914  0.1496  0.3185
11940TIP3    H257312   4.372   1.277   0.727 -0.2155 -0.2505 -0.6619
11941TIP3   OH257313   0.804   6.404   0.295  0.0264  0.7670  0.3575
11941TIP3    H157314   0.833   6.381   0.207 -0.8417  1.4765 -0.1253
11941TIP3    H257315   0.873   6.460   0.330  0.3910  0.4525  0.1431
11942TIP3   OH257316   5.470   1.799   3.114 -0.4835  0.1330  0.1014
11942TIP3    H157317   5.532   1.729   3.137 -0.4430 -0.6689 -2.3361
11942TIP3    H257318   5.521   1.879   3.119 -0.5379  0.0481  2.9723
11943TIP3   OH257319   3.891   5.605   2.954 -0.0869  0.0487 -0.5961
11943TIP3    H157320   3.868   5.698   2.956 -0.7842 -0.0791 -1.8383
11943TIP3    H257321   3.811   5.559   2.976  0.3225 -0.2549  0.2666
11944TIP3   OH257322   0.080   5.614  11.971 -0.4079 -0.0004  0.4288
11944TIP3    H157323   0.058   5.682  11.908  2.2395 -0.0837 -0.6542
11944TIP3    H257324   0.142   5.657  12.031  3.9396 -2.2435 -2.2134
11945TIP3   OH257325   2.957   2.812   0.563  0.3032 -0.6008 -0.2697
11945TIP3    H157326   2.938   2.778   0.651  0.0212 -0.5986 -0.3291
11945TIP3    H257327   3.020   2.750   0.526 -0.5755 -1.3300 -0.5617
11946TIP3   OH257328   1.759   5.750  11.681 -0.2187 -0.2053  1.2966
11946TIP3    H157329   1.736   5.836  11.716 -0.9847 -0.6915  2.0309
11946TIP3    H257330   1.854   5.754  11.667 -0.4882  1.3018 -0.2649
11947TIP3   OH257331   1.660   6.419   4.943  0.0488  0.2203 -0.1044
11947TIP3    H157332   1.592   6.365   4.982 -0.4210  0.3184 -0.7807
11947TIP3    H257333   1.694   6.367   4.870  1.1601 -0.1080  0.6330
11948TIP3   OH257334   2.585   2.932  11.305  0.2861  0.0417 -0.1478
11948TIP3    H157335   2.589   2.908  11.212  1.6116 -0.0432 -0.0868
11948TIP3    H257336   2.520   3.002  11.309 -2.1053 -2.1121 -0.6375
11949TIP3   OH257337   1.569   6.783  13.738 -0.3759 -0.2043 -0.3111
11949TIP3    H157338   1.559   6.770  13.643  3.0914  0.1039 -0.7811
11949TIP3    H257339   1.541   6.700  13.776 -2.4480 -0.1082 -1.5058
11950TIP3   OH257340   2.421   1.961   5.514 -0.1327 -0.3123 -0.3724
11950TIP3    H157341   2.506   1.918   5.511  0.0078 -0.0825  0.4125
11950TIP3    H257342   2.400   1.977   5.422  0.0098 -1.6658 -0.6579
11951TIP3   OH257343   0.825   0.101   5.194 -0.3776  0.2830  0.1137
11951TIP3    H157344   0.840   0.154   5.272 -1.1621  1.5383 -0.5846
11951TIP3    H257345   0.896   0.125   5.134 -0.3494  0.0402  0.0468
11952TIP3   OH257346   1.055   0.466   5.323  0.6553 -0.0011  0.0054
11952TIP3    H157347   1.102   0.383   5.318 -1.1796 -1.0068 -0.8572
11952TIP3    H257348   1.090   0.518   5.251  1.8293  0.0009  0.5659
11953TIP3   OH257349   2.544   2.576  15.404 -0.4130  0.2513  0.9653
11953TIP3    H157350   2.562   2.666  15.432 -1.6310  0.3250  1.5526
11953TIP3    H257351   2.448   2.571  15.401 -0.3398 -0.7078 -0.1242
11954TIP3   OH257352   5.796   2.948   5.819 -0.1104  0.1814  0.0135
11954TIP3    H157353   5.754   2.877   5.771 -0.8079  0.6066 -0.0058
11954TIP3    H257354   5.724   3.006   5.844  0.0608 -0.7173  2.7414
11955TIP3   OH257355   3.460   2.368  10.822 -0.1267 -0.2003  0.3396
11955TIP3    H157356   3.546   2.411  10.818  0.0807 -0.5789  0.6429
11955TIP3    H257357   3.457   2.329  10.910 -0.4861 -0.4460  0.2178
11956TIP3   OH257358   6.719   6.121  13.506 -0.6173 -0.1061 -0.1411
11956TIP3    H157359   6.813   6.103  13.513 -0.8722 -0.4199  3.3062
11956TIP3    H257360   6.680   6.035  13.487 -0.3686 -0.2713  0.0902
11957TIP3   OH257361   0.595   0.037   5.706 -0.3175 -0.7374  0.7104
11957TIP3    H157362   0.665   0.089   5.746  0.2118  0.4310 -1.6624
11957TIP3    H257363   0.640  -0.030   5.656 -0.7776  0.7191 -1.7797
11958TIP3   OH257364   6.018   6.567  16.502 -0.1541 -0.1535  0.5341
11958TIP3    H157365   6.111   6.560  16.522 -0.1790  1.4077  1.3150
11958TIP3    H257366   6.003   6.503  16.433  1.2836 -1.1297  1.1192
11959TIP3   OH257367   4.568   1.218  16.200 -0.0034 -0.2698  0.3116
11959TIP3    H157368   4.532   1.136  16.234  0.2306 -0.6501 -0.3568
11959TIP3    H257369   4.529   1.286  16.256 -0.6587 -0.7880  0.4961
11960TIP3   OH257370   2.496   3.810   6.728  0.5480 -0.2625 -0.4390
11960TIP3    H157371   2.505   3.748   6.656 -0.8195 -0.6629 -0.2813
11960TIP3    H257372   2.561   3.782   6.793  1.0860 -0.5079 -1.0797
11961TIP3   OH257373   1.183   3.611   4.422  0.2468  0.0512 -0.2055
11961TIP3    H157374   1.191   3.541   4.486  0.7651  0.6624  0.4037
11961TIP3    H257375   1.272   3.623   4.389  0.0838  0.1345 -0.6235
11962TIP3   OH257376   1.996   3.776   3.670 -0.1530 -0.0964 -0.7104
11962TIP3    H157377   2.038   3.856   3.638 -0.1035  1.2225  2.4876
11962TIP3    H257378   2.053   3.705   3.639  1.2336  1.2718 -1.3424
11963TIP3   OH257379   2.319   0.623   5.604 -0.0624  0.2029 -0.1089
11963TIP3    H157380   2.352   0.711   5.616  0.3887  0.1367 -0.8022
11963TIP3    H257381   2.361   0.571   5.672 -0.1821  0.4839  0.1792
11964TIP3   OH257382   0.575   4.375  14.448  0.3922 -0.0262 -0.0433
11964TIP3    H157383   0.506   4.423  14.493 -0.8942 -0.1065 -1.8750
11964TIP3    H257384   0.654   4.428  14.461 -0.1991  0.5379  1.2942
11965TIP3   OH257385   5.118   6.692  15.465  0.2341  0.2339 -0.0149
11965TIP3    H157386   5.160   6.742  15.396  0.4003 -0.7067 -0.6013
11965TIP3    H257387   5.055   6.753  15.504 -2.3532 -0.2511 -3.2516
11966TIP3   OH257388   0.610   4.148   5.126 -0.6268 -0.5206 -0.1783
11966TIP3    H157389   0.676   4.124   5.061 -0.9793  1.0940 -1.1701
11966TIP3    H257390   0.598   4.069   5.179  0.9565 -1.3075 -0.9626
11967TIP3   OH257391   5.743   2.582  12.758  0.1753  0.7032  0.4615
11967TIP3    H157392   5.668   2.553  12.706 -0.0543  1.3666  0.4162
11967TIP3    H257393   5.755   2.512  12.823  0.7767 -0.3745 -0.7802
11968TIP3   OH257394   5.771   2.579   5.549  0.0866 -0.3738 -0.1626
11968TIP3    H157395   5.786   2.510   5.484  1.0164  0.1753 -0.5369
11968TIP3    H257396   5.784   2.536   5.633  3.1333 -0.0816 -0.4569
11969TIP3   OH257397   4.703   4.316   2.469  0.2724 -0.1861  0.3796
11969TIP3    H157398   4.782   4.306   2.522 -0.1355  0.7576  1.1861
11969TIP3    H257399   4.642   4.251   2.504  0.1402  0.1705  0.8152
11970TIP3   OH257400   5.206   3.501   5.098  0.2994 -0.0521  0.2584
11970TIP3    H157401   5.146   3.470   5.030  0.5452  0.3050 -0.1194
11970TIP3    H257402   5.155   3.566   5.146  0.7306  1.0302 -0.7268
11971TIP3   OH257403   2.876   2.849   3.545 -0.1646  0.1650  0.5999
11971TIP3    H157404   2.799   2.868   3.491 -0.1000  1.9025  1.0708
11971TIP3    H257405   2.848   2.777   3.602 -0.8713 -0.3811 -0.4275
11972TIP3   OH257406   1.100   6.552   3.687  0.4430 -0.1231 -0.0632
11972TIP3    H157407   1.090   6.621   3.621  0.9751  1.7547  1.7774
11972TIP3    H257408   1.193   6.528   3.683 -0.1963 -2.4929 -2.3551
11973TIP3   OH257409   4.019   6.248  12.988 -0.2238  0.1957 -0.0311
11973TIP3    H157410   4.056   6.301  13.060  0.4014 -0.0206 -0.1851
11973TIP3    H257411   4.012   6.160  13.024  0.6029 -0.0276 -0.4042
11974TIP3   OH257412   2.805   3.786   5.860 -0.1796  0.2032 -0.8525
11974TIP3    H157413   2.713   3.762   5.852 -0.2657  0.0356  0.4573
11974TIP3    H257414   2.808   3.879   5.837 -0.7726  0.3526 -0.3346
11975TIP3   OH257415   6.322   5.243  13.651 -0.2199  0.0783 -0.2787
11975TIP3    H157416   6.403   5.192  13.654 -0.0464  0.2606 -1.5634
11975TIP3    H257417   6.322   5.293  13.732  1.8858  1.4718 -1.0782
11976TIP3   OH257418   4.767   4.488   0.175  0.1595  0.7192 -0.4734
11976TIP3    H157419   4.730   4.482   0.087  1.0039  0.4378 -0.8154
11976TIP3    H257420   4.842   4.429   0.173  0.9375  1.6868  0.0547
11977TIP3   OH257421   4.681   0.216   1.884  0.6642  0.3930  0.2588
11977TIP3    H157422   4.603   0.265   1.860  0.3580  0.2703  0.9962
11977TIP3    H257423   4.725   0.198   1.800  0.4919  1.4316 -0.0555
11978TIP3   OH257424   1.690   6.780  10.719  0.1439  0.4817 -0.8849
11978TIP3    H157425   1.603   6.816  10.699 -0.3601 -0.0474  0.2888
11978TIP3    H257426   1.750   6.831  10.664 -0.9997  0.2309 -2.4131
11979TIP3   OH257427   5.884   0.073  17.244  0.2532 -0.0342  0.1099
11979TIP3    H157428   5.882   0.163  17.213 -3.5096  0.5657  1.7303
11979TIP3    H257429   5.965   0.066  17.296  0.5680  2.4008 -0.0352
11980TIP3   OH257430   1.588   1.297  10.992 -0.4883  0.2175  0.2100
11980TIP3    H157431   1.634   1.223  11.032 -2.1107 -0.1865  1.3882
11980TIP3    H257432   1.649   1.331  10.927  0.3411 -2.0937 -0.2766
11981TIP3   OH257433   6.733   5.394  13.811 -0.7481  0.7251  0.4278
11981TIP3    H157434   6.708   5.368  13.900  0.7110  0.1237  0.6677
11981TIP3    H257435   6.733   5.489  13.813  0.4676  0.7052  1.4095
11982TIP3   OH257436   3.858   3.572   0.997  0.1897  0.1565  0.4883
11982TIP3    H157437   3.823   3.574   0.908 -0.7316 -3.3580  0.7273
11982TIP3    H257438   3.947   3.537   0.987  0.7940  1.5775  0.7641
11983TIP3   OH257439   4.941   3.353  16.769  0.3237 -0.3398 -0.4136
11983TIP3    H157440   4.920   3.272  16.816  0.0854  0.3704  0.7334
11983TIP3    H257441   4.904   3.340  16.682  1.5580 -2.0381 -0.6957
11984TIP3   OH257442   1.972   0.058   2.525 -0.4761 -0.2027 -0.3511
11984TIP3    H157443   1.953   0.104   2.607  1.1084  0.8985 -0.5834
11984TIP3    H257444   2.029   0.118   2.477 -0.7159 -1.2027 -1.9059
11985TIP3   OH257445   5.346   1.156  16.352  0.1173 -0.4231  0.1863
11985TIP3    H157446   5.327   1.138  16.445  0.7719  1.6033  0.7455
11985TIP3    H257447   5.263   1.140  16.308 -1.0545  1.5558  1.5902
11986TIP3   OH257448   3.812   6.418   1.938  0.1271 -0.0029 -0.6398
11986TIP3    H157449   3.777   6.343   1.987  0.5142 -0.2948 -0.8035
11986TIP3    H257450   3.765   6.494   1.973  1.1561 -0.0640  0.9402
11987TIP3   OH257451   6.203   3.734   4.862  0.5169  0.5894 -0.2522
11987TIP3    H157452   6.173   3.665   4.922  0.0371  0.6633 -0.4016
11987TIP3    H257453   6.190   3.815   4.911  1.5156  0.5369  0.0954
11988TIP3   OH257454   0.861   2.410   5.521  0.3444  0.1320 -0.0565
11988TIP3    H157455   0.791   2.421   5.584  0.9250  0.3777  0.5447
11988TIP3    H257456   0.846   2.322   5.484 -0.2673  0.1793  0.0703
11989TIP3   OH257457   5.008   4.645  10.563 -0.2603  0.4056 -0.0303
11989TIP3    H157458   5.092   4.600  10.554 -0.4522 -0.3140  1.6547
11989TIP3    H257459   5.015   4.720  10.503  1.8804  0.7877  0.6408
11990TIP3   OH257460   4.660   2.491  17.197  0.0621 -0.4816  0.1764
11990TIP3    H157461   4.722   2.549  17.241  0.2494  0.7887 -1.6933
11990TIP3    H257462   4.712   2.447  17.130 -1.0994  0.8607 -1.6454
11991TIP3   OH257463   4.644   2.038   2.933  0.0465  0.5697  0.1897
11991TIP3    H157464   4.692   2.072   2.857 -0.5404  1.3987  0.1907
11991TIP3    H257465   4.606   1.955   2.902  0.9272  0.2299 -0.0074
11992TIP3   OH257466   2.206   6.776  12.053 -0.1107 -0.0731  0.1622
11992TIP3    H157467   2.161   6.695  12.031 -2.3630  1.2992 -0.4930
11992TIP3    H257468   2.145   6.824  12.109  0.8021  1.5453 -0.1687
11993TIP3   OH257469   3.874   5.255   0.717 -1.0423  0.2888 -0.2498
11993TIP3    H157470   3.916   5.283   0.798  2.0324  0.5550 -1.8522
11993TIP3    H257471   3.902   5.319   0.652 -3.6434  0.2172 -1.5100
11994TIP3   OH257472   0.648   1.013   4.921 -0.6049  0.5425 -0.0857
11994TIP3    H157473   0.642   1.030   5.015 -0.4813 -0.5095  0.1244
11994TIP3    H257474   0.742   1.008   4.904 -0.6227  0.9507 -0.3100
11995TIP3   OH257475   6.290   2.838   2.382 -0.9026  0.1928  0.0660
11995TIP3    H157476   6.225   2.844   2.452  1.2568  0.6473  2.1123
11995TIP3    H257477   6.306   2.929   2.356 -1.9264  0.0065 -1.2686
11996TIP3   OH257478   1.130   6.483  12.879 -0.2932 -0.4042  0.1041
11996TIP3    H157479   1.155   6.393  12.900  0.1561 -0.3286 -0.0964
11996TIP3    H257480   1.167   6.498  12.792  0.5384  0.3293  0.5810
11997TIP3   OH257481   5.571   6.477  15.613  0.2780 -0.3127  0.0642
11997TIP3    H157482   5.508   6.419  15.656 -0.2663 -1.1594 -1.8135
11997TIP3    H257483   5.541   6.565  15.636 -1.7354 -0.6976 -0.9495
11998TIP3   OH257484   5.823   0.382  17.168 -0.5636 -0.6604  0.2003
11998TIP3    H157485   5.738   0.404  17.207  0.3664  2.2729  0.6471
11998TIP3    H257486   5.887   0.431  17.219  1.3743 -2.2861 -0.5773
11999TIP3   OH257487   2.682   4.658   0.173 -0.1727  0.2317 -0.7833
11999TIP3    H157488   2.731   4.731   0.210  0.2401 -1.3526  1.9725
11999TIP3    H257489   2.596   4.663   0.215 -0.9941  0.5654 -2.4570
12000TIP3   OH257490   3.528   4.464   5.863  0.2364  0.0579  0.0731
12000TIP3    H157491   3.610   4.463   5.813 -1.4588 -3.1562 -2.8209
12000TIP3    H257492   3.553   4.498   5.949  4.4188  0.0092 -1.0183
12001TIP3   OH257493   2.459   3.128  15.374  0.0945 -0.2633  0.2792
12001TIP3    H157494   2.441   3.165  15.461 -0.6706  0.1719 -0.0593
12001TIP3    H257495   2.458   3.204  15.315 -3.1676 -0.9824 -0.6802
12002TIP3   OH257496   0.704   0.592  12.613  0.1938  0.3206 -0.3346
12002TIP3    H157497   0.624   0.631  12.578 -0.1108 -1.4081 -1.6603
12002TIP3    H257498   0.673   0.526  12.675  0.6548  0.9980  0.6337
12003TIP3   OH257499   3.612   2.989   2.262 -0.0459  0.5324 -0.3536
12003TIP3    H157500   3.540   3.018   2.206  0.2382 -1.6957 -1.9376
12003TIP3    H257501   3.685   3.048   2.240 -0.2310  0.3087 -1.6300
12004TIP3   OH257502   0.285   6.258  16.736  0.1592 -0.2555  0.8853
12004TIP3    H157503   0.256   6.167  16.729 -1.5872  0.4006 -1.0041
12004TIP3    H257504   0.207   6.309  16.717  1.5532  1.6265  0.0867
12005TIP3   OH257505   1.103   6.480   6.433  0.0111 -0.4142 -0.3629
12005TIP3    H157506   1.036   6.435   6.383  1.5789 -1.5013 -1.5336
12005TIP3    H257507   1.068   6.484   6.522 -1.7939 -0.5175 -1.0567
12006TIP3   OH257508   0.486   2.677   1.851 -0.6070 -0.4549 -0.3836
12006TIP3    H157509   0.561   2.733   1.873 -1.2525 -0.4935  2.0093
12006TIP3    H257510   0.514   2.589   1.877 -1.1227 -0.6212 -0.3885
12007TIP3   OH257511   5.202   6.034  16.523 -0.6158 -0.0993 -0.0351
12007TIP3    H157512   5.206   6.086  16.603 -1.0870 -0.0425 -0.0441
12007TIP3    H257513   5.136   6.078  16.470 -2.7822 -2.0445  0.9357
12008TIP3   OH257514   4.745   6.453  11.030  0.5308  0.0782 -0.5274
12008TIP3    H157515   4.840   6.445  11.016  1.0103  2.1654  1.3455
12008TIP3    H257516   4.735   6.451  11.126 -1.1935  1.1269 -0.6753
12009TIP3   OH257517   0.926   3.711   0.683  0.3342 -0.5890  0.1228
12009TIP3    H157518   0.842   3.749   0.708  1.5644  2.8871 -0.7582
12009TIP3    H257519   0.977   3.709   0.764  0.3099 -0.2800  0.1438
12010TIP3   OH257520   2.807   0.683   1.136  0.1423 -0.2460 -0.4353
12010TIP3    H157521   2.801   0.660   1.229 -0.5650 -1.9291 -0.8706
12010TIP3    H257522   2.867   0.758   1.134  0.1450 -0.1574  1.3718
12011TIP3   OH257523   4.073   3.470   6.345 -0.1132  0.2355 -0.4172
12011TIP3    H157524   4.139   3.530   6.308  0.3840 -0.3855 -0.5498
12011TIP3    H257525   4.061   3.500   6.435  1.3946 -0.5053  0.0467
12012TIP3   OH257526   4.918   6.340  13.625  0.0482  0.4757  0.2319
12012TIP3    H157527   4.838   6.377  13.662 -0.1536  1.2433 -0.9406
12012TIP3    H257528   4.974   6.416  13.608  1.1718 -0.0800  1.3435
12013TIP3   OH257529   5.167   5.252   0.852 -0.3340 -0.1210  0.2040
12013TIP3    H157530   5.138   5.165   0.879  0.5767 -0.8715 -1.1543
12013TIP3    H257531   5.098   5.285   0.795 -0.1007 -0.4915 -0.2984
12014TIP3   OH257532   5.122   5.145  13.383 -0.4851  0.1380  0.4889
12014TIP3    H157533   5.146   5.197  13.459 -1.3868 -1.3219  1.8038
12014TIP3    H257534   5.065   5.202  13.331 -2.3345  0.1476  2.4446
12015TIP3   OH257535   2.159   3.145   1.755  0.1055  0.1966  0.1924
12015TIP3    H157536   2.070   3.116   1.734  0.4752  0.5429 -2.0123
12015TIP3    H257537   2.202   3.066   1.787  0.2994 -1.1457 -3.1462
12016TIP3   OH257538   6.375   6.458  17.089  0.5897 -0.8449 -0.2686
12016TIP3    H157539   6.289   6.430  17.121  0.1191 -0.2518 -1.0006
12016TIP3    H257540   6.380   6.422  17.001  0.9027 -0.4841 -0.3972
12017TIP3   OH257541   5.189   4.659   5.526  0.5611  0.2223 -0.1803
12017TIP3    H157542   5.207   4.623   5.439 -0.5338 -0.8306  0.0119
12017TIP3    H257543   5.218   4.750   5.521  0.9227  0.0457 -1.5053
12018TIP3   OH257544   5.910   5.125  16.281 -0.0589 -0.0559 -0.7694
12018TIP3    H157545   5.846   5.099  16.214  0.8269 -0.2438 -1.5542
12018TIP3    H257546   5.884   5.214  16.305 -0.2872  0.0820 -1.4938
12019TIP3   OH257547   3.404   6.366   0.193  0.0876  0.0692 -0.5001
12019TIP3    H157548   3.485   6.400   0.154 -0.3829  0.3121 -1.2858
12019TIP3    H257549   3.425   6.354   0.286  0.9957  0.2144 -0.6810
12020TIP3   OH257550   2.984   5.261   0.770  0.0493  0.1971  0.2004
12020TIP3    H157551   3.035   5.194   0.816  0.1725  0.4210  0.3910
12020TIP3    H257552   3.045   5.333   0.758 -0.6864  1.1239  1.9023
12021TIP3   OH257553   1.851   1.970   5.641  0.4382 -0.0187  0.6213
12021TIP3    H157554   1.863   2.040   5.706 -0.1497 -0.1324  0.8511
12021TIP3    H257555   1.856   1.889   5.692  0.3505 -0.1195  0.4680
12022TIP3   OH257556   3.680   3.514  14.076 -0.5910  0.2256 -0.3635
12022TIP3    H157557   3.656   3.577  14.144  3.6098 -0.6942  2.1467
12022TIP3    H257558   3.763   3.548  14.040  1.1679 -3.1624  0.2741
12023TIP3   OH257559   0.530   2.404   1.900 -0.1604  0.1976  0.1064
12023TIP3    H157560   0.502   2.343   1.832  1.1627 -1.2450  0.8219
12023TIP3    H257561   0.621   2.380   1.918  0.2621  2.1312  0.6873
12024TIP3   OH257562   3.181   5.118   0.903 -0.0840 -0.4322 -0.0097
12024TIP3    H157563   3.263   5.134   0.856 -0.0045 -1.2987 -0.1877
12024TIP3    H257564   3.209   5.079   0.987 -0.2340  0.9042  0.6634
12025TIP3   OH257565   3.350   0.283   5.276  0.3400  0.4065 -0.4099
12025TIP3    H157566   3.302   0.365   5.263  1.5665  1.3999  1.0559
12025TIP3    H257567   3.281   0.217   5.287 -0.6634  1.2092 -1.7294
12026TIP3   OH257568   2.850   4.077  14.633 -0.5294  0.5562 -0.1564
12026TIP3    H157569   2.938   4.057  14.663 -0.9645 -1.4017 -0.1693
12026TIP3    H257570   2.862   4.118  14.547  0.3613  0.4143 -0.0970
12027TIP3   OH257571   2.947   1.542   0.328  0.6633  0.1575  0.8885
12027TIP3    H157572   2.906   1.601   0.391 -1.2316 -0.3534  0.1608
12027TIP3    H257573   2.875   1.489   0.294  1.8135 -0.2683 -0.9644
12028TIP3   OH257574   2.947   1.956   5.518  0.0749  0.4808 -0.4375
12028TIP3    H157575   3.008   2.016   5.560  0.2897  0.0564 -0.1519
12028TIP3    H257576   2.914   2.006   5.442 -0.6769  1.4225  0.4932
12029TIP3   OH257577   0.561   1.003  14.736  0.1163 -0.2132  0.2323
12029TIP3    H157578   0.506   0.927  14.721  0.7480 -0.6614  0.1953
12029TIP3    H257579   0.504   1.078  14.716 -0.2681 -0.6892 -0.4693
12030TIP3   OH257580   1.261   3.191   0.620  0.1336  0.3598 -0.2664
12030TIP3    H157581   1.297   3.132   0.686  0.2571 -0.0247 -0.6777
12030TIP3    H257582   1.329   3.197   0.553 -0.4536 -0.1580 -0.9174
12031TIP3   OH257583   1.464   2.933  17.210  0.5074  0.0414 -0.1748
12031TIP3    H157584   1.401   2.967  17.274 -0.7319 -0.4438 -1.1060
12031TIP3    H257585   1.513   3.010  17.182 -0.8112  0.7281 -0.6701
12032TIP3   OH257586   6.540   0.773   1.394 -0.5087  0.0031  0.3718
12032TIP3    H157587   6.594   0.796   1.470  1.9660  0.7180 -1.5467
12032TIP3    H257588   6.529   0.678   1.400  1.1204 -0.1746  0.7168
12033TIP3   OH257589   0.663   6.016  12.323 -0.0246  0.5933  0.7625
12033TIP3    H157590   0.657   6.052  12.235  1.3201 -0.4172  0.2321
12033TIP3    H257591   0.573   6.007  12.352 -0.4734  1.0346 -0.4773
12034TIP3   OH257592   2.323   1.337   2.562 -0.1118 -0.0734 -0.3777
12034TIP3    H157593   2.236   1.301   2.549  0.7550 -2.4300  0.1463
12034TIP3    H257594   2.317   1.384   2.645 -1.0321  0.2795 -0.6372
12035TIP3   OH257595   2.093   1.831  12.980 -0.3468 -0.8516  0.0301
12035TIP3    H157596   2.077   1.847  13.073 -1.0414 -0.5158 -0.1421
12035TIP3    H257597   2.054   1.907  12.936 -0.6733 -1.3686 -0.5788
12036TIP3   OH257598   1.765   3.789   6.397  0.1024 -0.2949 -0.1190
12036TIP3    H157599   1.827   3.722   6.424  0.5266 -0.2443 -0.9314
12036TIP3    H257600   1.806   3.872   6.421  1.0179 -0.1912 -1.9090
12037TIP3   OH257601   5.892   2.418  12.287  0.3021  0.0999  0.5026
12037TIP3    H157602   5.846   2.501  12.303 -0.1799 -0.3899  1.7400
12037TIP3    H257603   5.935   2.399  12.371  0.5455 -0.8081  0.1670
12038TIP3   OH257604   5.693   5.297  14.055 -0.4000 -0.0729 -0.2629
12038TIP3    H157605   5.760   5.341  14.107 -0.1648 -0.9739  0.2071
12038TIP3    H257606   5.735   5.278  13.971 -0.7388  1.2596 -0.7445
12039TIP3   OH257607   2.145   4.087   1.121 -0.3562 -0.2062 -0.2743
12039TIP3    H157608   2.108   4.128   1.200 -1.2030  0.5368 -1.0388
12039TIP3    H257609   2.239   4.084   1.137 -0.4240  0.8358  0.3647
12040TIP3   OH257610   2.971   1.331   4.840 -0.0367  0.0649  0.0994
12040TIP3    H157611   2.877   1.328   4.821 -0.1590 -1.7535  0.9532
12040TIP3    H257612   2.986   1.421   4.868 -1.0495  1.0741 -2.4062
12041TIP3   OH257613   2.542   3.843  15.828 -0.1780 -0.0057 -0.5760
12041TIP3    H157614   2.483   3.818  15.900  1.1968 -2.0037 -0.1010
12041TIP3    H257615   2.625   3.865  15.872  0.1879  0.3415 -1.4383
12042TIP3   OH257616   1.957   6.641  15.797 -0.2679 -0.1840  0.6536
12042TIP3    H157617   2.041   6.683  15.813 -0.8136  1.3405 -0.3339
12042TIP3    H257618   1.915   6.696  15.731 -2.0136 -0.9528  1.0885
12043TIP3   OH257619   0.893   5.855   0.590  0.5485  0.6306 -0.0913
12043TIP3    H157620   0.818   5.856   0.530  0.7129 -0.8527 -0.3512
12043TIP3    H257621   0.854   5.841   0.677  0.4593  0.5806 -0.1392
12044TIP3   OH257622   4.042   4.282  13.791 -0.4797  0.0817 -0.3338
12044TIP3    H157623   4.102   4.208  13.781 -0.6775 -0.1443  0.1596
12044TIP3    H257624   4.009   4.298  13.703  0.1620  0.0906 -0.5770
12045TIP3   OH257625   2.475   4.962   1.399  0.5032  0.2548 -0.4218
12045TIP3    H157626   2.383   4.969   1.377  0.7517  1.4589 -1.1442
12045TIP3    H257627   2.498   5.047   1.436  1.5492  0.3176 -1.1769
12046TIP3   OH257628   6.448   5.236  12.273 -0.1432 -0.0117  0.4135
12046TIP3    H157629   6.539   5.247  12.249 -0.2556 -0.5312 -0.2702
12046TIP3    H257630   6.442   5.271  12.362  0.2414  2.0497 -0.3570
12047TIP3   OH257631   4.372   4.998   5.219  0.1501 -0.2871 -0.2317
12047TIP3    H157632   4.441   5.062   5.208 -0.7989  0.5786 -1.1991
12047TIP3    H257633   4.291   5.049   5.223 -0.5862 -1.3796 -0.7059
12048TIP3   OH257634   1.456   5.819   2.056  0.0989 -0.2527 -0.2552
12048TIP3    H157635   1.476   5.727   2.037  0.8261 -0.0204 -0.6099
12048TIP3    H257636   1.405   5.815   2.138 -0.0719 -0.9816 -0.3885
12049TIP3   OH257637   6.022   0.088  13.609  0.0055  0.1249  0.6368
12049TIP3    H157638   5.984   0.154  13.668  1.6174 -0.2264  2.1111
12049TIP3    H257639   6.018   0.129  13.522  0.0594  1.7699  1.3783
12050TIP3   OH257640   1.535   5.452   2.363  0.1000  0.4027  0.4781
12050TIP3    H157641   1.624   5.417   2.367 -0.9246 -2.3046  0.1722
12050TIP3    H257642   1.493   5.403   2.293 -2.5036 -0.3631  2.5150
12051TIP3   OH257643   3.119   0.553   3.020 -0.5145  0.0280  0.0400
12051TIP3    H157644   3.120   0.541   2.925 -0.7820  0.5802 -0.0356
12051TIP3    H257645   3.033   0.590   3.038 -0.5202 -0.2193  0.5170
12052TIP3   OH257646   3.082   4.079  11.172  0.3788 -0.0748  0.1118
12052TIP3    H157647   3.113   4.079  11.263  0.4434 -0.2140  0.0896
12052TIP3    H257648   3.065   3.987  11.153 -2.7733  0.2740  1.0532
12053TIP3   OH257649   4.111   6.138  13.871  0.2553 -0.3880 -0.2348
12053TIP3    H157650   4.106   6.140  13.966  0.5261 -0.2411 -0.2256
12053TIP3    H257651   4.165   6.214  13.847 -0.7007  0.2099 -0.5589
12054TIP3   OH257652   1.418   3.557  12.341  0.0902 -0.5248 -0.4562
12054TIP3    H157653   1.408   3.497  12.415 -0.6487  0.0063 -0.1273
12054TIP3    H257654   1.439   3.499  12.267  1.2370 -1.0100  0.2489
12055TIP3   OH257655   0.907   1.043  16.736 -0.2577 -0.3758  0.2783
12055TIP3    H157656   0.882   0.957  16.769  0.9328 -1.5263 -1.7235
12055TIP3    H257657   0.830   1.075  16.689  0.1313 -1.4812 -1.1376
12056TIP3   OH257658   3.196   1.284  12.709 -0.3124 -0.5345 -0.1598
12056TIP3    H157659   3.168   1.341  12.638 -0.7060 -1.5584 -0.8362
12056TIP3    H257660   3.247   1.340  12.767  1.0021  0.0464 -1.8527
12057TIP3   OH257661   1.983   5.549  14.358 -0.0994  0.2201 -0.6309
12057TIP3    H157662   1.955   5.639  14.370  1.3656  0.7172 -0.8590
12057TIP3    H257663   2.005   5.518  14.446  0.2730  0.3857 -0.6650
12058TIP3   OH257664   2.259   5.975  16.880 -0.3256  0.5532  0.1913
12058TIP3    H157665   2.196   5.988  16.951 -1.9391 -2.3176 -0.6294
12058TIP3    H257666   2.219   6.018  16.804  0.0277  1.0923  0.3031
12059TIP3   OH257667   0.933   6.352  16.398 -0.2383 -0.5439 -0.2043
12059TIP3    H157668   0.862   6.406  16.435 -0.5947 -0.3440 -1.1602
12059TIP3    H257669   1.003   6.415  16.379  0.2151 -0.7463  0.7709
12060TIP3   OH257670   6.028   1.712  16.096  0.6094  0.6541 -0.1709
12060TIP3    H157671   5.940   1.716  16.134  0.6450  1.8039 -0.1943
12060TIP3    H257672   6.013   1.718  16.002  0.5539 -1.6890 -0.3232
12061TIP3   OH257673   1.050   6.518   4.355  0.5349 -0.3155  0.7848
12061TIP3    H157674   1.015   6.602   4.383 -1.0166 -0.6495 -0.1334
12061TIP3    H257675   1.111   6.493   4.425  1.1887  1.6673  0.9471
12062TIP3   OH257676   2.716   3.216  13.965  0.3360 -0.4194 -0.1513
12062TIP3    H157677   2.637   3.255  14.002  0.5546 -0.9864  0.9139
12062TIP3    H257678   2.717   3.127  13.998  2.1907  0.0198  1.0211
12063TIP3   OH257679   5.716   6.074  16.236  0.1772 -0.4120  0.4106
12063TIP3    H157680   5.742   6.011  16.168 -0.5611 -0.5484  0.2492
12063TIP3    H257681   5.705   6.021  16.315 -2.3546 -0.8105 -0.1788
12064TIP3   OH257682   5.343   0.224  10.485 -0.2416 -0.1794  0.1778
12064TIP3    H157683   5.333   0.234  10.579  0.3755 -0.0390  0.2318
12064TIP3    H257684   5.383   0.138  10.474 -1.3682 -0.6850 -0.0234
12065TIP3   OH257685   5.959   0.845  14.003  0.4548  0.2692  0.4508
12065TIP3    H157686   5.920   0.757  14.005  0.6074  0.2107  1.2991
12065TIP3    H257687   6.052   0.829  13.986  0.4747  0.2607  0.5642
12066TIP3   OH257688   2.774   4.083  12.111  0.1390 -0.1284 -0.0439
12066TIP3    H157689   2.839   4.013  12.105  1.1852  0.8979 -0.8372
12066TIP3    H257690   2.797   4.143  12.040 -0.5938  1.1486  0.7860
12067TIP3   OH257691   5.192   3.458  14.607 -0.9682 -0.1034  0.2556
12067TIP3    H157692   5.207   3.461  14.702  1.9710 -2.4926 -0.0589
12067TIP3    H257693   5.279   3.471  14.569 -2.1368  0.8900 -2.1424
12068TIP3   OH257694   5.299   0.702  16.660 -0.1466  0.2371  0.0103
12068TIP3    H157695   5.340   0.616  16.667  0.4508  0.6637  2.1470
12068TIP3    H257696   5.221   0.696  16.716 -1.1860  0.4941 -1.3701
12069TIP3   OH257697   5.475   6.105  16.483 -0.2108 -0.1126  0.1549
12069TIP3    H157698   5.432   6.147  16.557  0.6674 -0.2685  0.7541
12069TIP3    H257699   5.428   6.138  16.406 -0.2206  1.1483  0.6849
12070TIP3   OH257700   4.885   0.520  17.187  0.0019  0.5708 -0.3225
12070TIP3    H157701   4.812   0.458  17.192  1.3621 -0.9968  0.6009
12070TIP3    H257702   4.848   0.603  17.220 -1.8053  0.2721 -1.4791
12071TIP3   OH257703   4.411   4.133   3.138  0.0577  0.2413 -0.1701
12071TIP3    H157704   4.372   4.147   3.225 -0.3338 -0.8629 -0.1601
12071TIP3    H257705   4.460   4.051   3.146  0.0274  0.1362 -0.9919
12072TIP3   OH257706   5.464   6.534   2.746  0.2779 -0.0123  0.2612
12072TIP3    H157707   5.414   6.563   2.670 -1.8764  1.1817  2.0743
12072TIP3    H257708   5.549   6.576   2.736 -0.8258  2.2145 -0.2208
12073TIP3   OH257709   4.644   0.611  13.173  0.2151  0.1794 -0.0568
12073TIP3    H157710   4.581   0.673  13.211 -2.8046 -1.6946 -1.7847
12073TIP3    H257711   4.677   0.656  13.095  0.7358  1.0085  0.6313
12074TIP3   OH257712   6.240   3.342   3.097  0.1279  0.0413  0.2203
12074TIP3    H157713   6.234   3.437   3.095 -0.1814  0.0147 -0.1210
12074TIP3    H257714   6.327   3.324   3.133 -0.2399  0.4433  1.3333
12075TIP3   OH257715   1.033   2.981  15.991 -0.4682 -0.2977  0.0447
12075TIP3    H157716   1.120   3.020  15.999 -0.9853  1.1833 -1.2973
12075TIP3    H257717   1.039   2.925  15.914 -0.8087  0.1308 -0.2964
12076TIP3   OH257718   4.508   6.024  10.716 -0.3088 -0.3490  0.1818
12076TIP3    H157719   4.512   5.949  10.656  0.5243  0.6964 -1.0964
12076TIP3    H257720   4.598   6.040  10.742 -0.5331 -0.0423  0.7934
12077TIP3   OH257721   6.105   2.627   2.821 -0.4577 -0.3979  0.6176
12077TIP3    H157722   6.029   2.609   2.767  0.7298  0.2291 -1.3026
12077TIP3    H257723   6.105   2.556   2.886 -1.1761 -1.9126 -0.9786
12078TIP3   OH257724   5.337   2.711   0.983 -0.0745 -0.2301  0.1486
12078TIP3    H157725   5.322   2.793   1.030 -2.6458 -1.0023  0.7906
12078TIP3    H257726   5.288   2.720   0.901  0.7288 -0.6097 -0.3825
12079TIP3   OH257727   2.146   6.540   0.954 -0.3250  0.3857  0.1647
12079TIP3    H157728   2.194   6.502   0.881 -0.5877  0.7330 -0.1880
12079TIP3    H257729   2.212   6.588   1.004 -0.1026 -0.0419  0.2907
12080TIP3   OH257730   4.367   4.228  14.371 -0.3850  0.7764 -0.2082
12080TIP3    H157731   4.393   4.208  14.461 -0.7074  1.0766 -0.0469
12080TIP3    H257732   4.442   4.201  14.318 -0.5582 -0.2829  0.0600
12081TIP3   OH257733   2.625   3.820   1.533  0.6819  0.3030  0.2901
12081TIP3    H157734   2.676   3.874   1.472  1.4480 -1.0153 -0.2633
12081TIP3    H257735   2.607   3.740   1.483 -1.1995  0.4024  0.7848
12082TIP3   OH257736   5.455   5.335   3.389  0.1370  0.0621  0.1520
12082TIP3    H157737   5.523   5.350   3.323 -0.6290 -1.5133 -1.0176
12082TIP3    H257738   5.503   5.306   3.467  0.8536 -0.4326 -0.4660
12083TIP3   OH257739   4.367   2.833   0.933 -0.0990  0.3899  0.0020
12083TIP3    H157740   4.324   2.808   1.015  0.1191  0.1823  0.0527
12083TIP3    H257741   4.297   2.829   0.868  0.0500 -0.9026 -0.0912
12084TIP3   OH257742   1.318   1.977   6.163  0.3107  0.8872 -0.3093
12084TIP3    H157743   1.303   1.885   6.145 -1.8691  1.0201  0.6955
12084TIP3    H257744   1.306   2.021   6.079  1.9480  0.2165 -0.9179
12085TIP3   OH257745   0.282   0.772  15.211  0.2105 -0.2642  0.0054
12085TIP3    H157746   0.372   0.738  15.213  1.5384  3.1344  0.2288
12085TIP3    H257747   0.292   0.865  15.194 -3.1665  0.6282  2.4519
12086TIP3   OH257748   3.830   6.115   1.396 -0.6375  0.3308  0.2406
12086TIP3    H157749   3.832   6.103   1.301 -0.1433 -2.1317  0.5367
12086TIP3    H257750   3.919   6.142   1.418  0.2433 -2.5327  0.3864
12087TIP3   OH257751   0.520   1.761  13.466 -0.0215  0.0330 -0.1915
12087TIP3    H157752   0.515   1.789  13.558  0.3342 -1.3200  0.2444
12087TIP3    H257753   0.611   1.733  13.455 -0.5263 -1.5622 -0.4377
12088TIP3   OH257754   3.570   6.396  13.309  0.2571  0.0434  0.0456
12088TIP3    H157755   3.578   6.490  13.291 -0.3056  0.0090 -0.3823
12088TIP3    H257756   3.509   6.364  13.243  1.6708 -0.9267 -0.8201
12089TIP3   OH257757   6.271   5.086   0.172 -0.9752  0.2058  0.3669
12089TIP3    H157758   6.262   5.085   0.267 -1.9336  0.9111  0.2895
12089TIP3    H257759   6.364   5.104   0.157 -0.5723 -1.1316  1.1632
12090TIP3   OH257760   2.591   4.971  17.198  0.5500  0.0921  0.3358
12090TIP3    H157761   2.559   4.881  17.186 -0.2382  0.2718  1.0480
12090TIP3    H257762   2.523   5.026  17.160  0.7942  0.4172  0.3655
12091TIP3   OH257763   2.460   3.220   4.151 -0.1549  0.2139  0.3118
12091TIP3    H157764   2.368   3.200   4.167  0.1928 -2.5274 -0.9020
12091TIP3    H257765   2.506   3.184   4.227 -0.0048  1.1054  0.6549
12092TIP3   OH257766   0.048   1.234  17.034 -0.1987  0.1768  0.4313
12092TIP3    H157767   0.076   1.191  17.114  0.7877  0.2874  0.1524
12092TIP3    H257768   0.110   1.307  17.023  0.9424 -1.0231 -1.4940
12093TIP3   OH257769   5.894   5.230  16.807  0.1010  0.2261  0.5813
12093TIP3    H157770   5.927   5.310  16.849 -0.4115 -0.0202  1.4606
12093TIP3    H257771   5.807   5.217  16.846 -0.9992  0.7834 -1.5790
12094TIP3   OH257772   0.114   5.046  13.071  0.0402 -0.0836 -0.2663
12094TIP3    H157773   0.121   5.140  13.056  1.7932  0.0362  1.0842
12094TIP3    H257774   0.146   5.006  12.990  0.0783  0.4852 -0.5322
12095TIP3   OH257775   1.823   0.451  15.641  0.0933 -0.3660  0.4444
12095TIP3    H157776   1.814   0.477  15.733 -0.2775  0.5765  0.1460
12095TIP3    H257777   1.753   0.499  15.596  1.6732  0.9426 -0.6694
12096TIP3   OH257778   2.727   6.442  12.040  0.1362 -0.0991 -0.1370
12096TIP3    H157779   2.727   6.436  11.945  0.2014  0.0272 -0.1448
12096TIP3    H257780   2.777   6.366  12.069  1.9387  1.0195 -0.2715
12097TIP3   OH257781   6.587   5.275   6.111  0.0312 -0.0257 -0.0758
12097TIP3    H157782   6.646   5.200   6.108  1.7457  1.2271  1.2545
12097TIP3    H257783   6.600   5.319   6.026  3.3034  1.8719  1.2862
12098TIP3   OH257784   3.434   6.409  13.823  0.1727 -0.2650 -0.2643
12098TIP3    H157785   3.348   6.369  13.834  0.0117  0.1345 -0.0622
12098TIP3    H257786   3.440   6.427  13.729 -0.8827  1.7456  0.0297
12099TIP3   OH257787   0.221   6.463  11.948 -0.3530 -0.0192  0.6365
12099TIP3    H157788   0.259   6.395  11.892  1.7736  2.0947 -0.5875
12099TIP3    H257789   0.127   6.455  11.935 -0.0841 -1.9690 -0.3703
12100TIP3   OH257790   1.302   0.200  12.084  0.2066 -0.1362  0.0889
12100TIP3    H157791   1.311   0.144  12.007  0.1004 -0.3977  0.2628
12100TIP3    H257792   1.207   0.208  12.097  0.2232 -0.1796  0.2495
12101TIP3   OH257793   5.380   5.134   2.520 -0.4859 -0.2336 -0.5538
12101TIP3    H157794   5.466   5.154   2.557 -0.9169 -2.3013  1.6747
12101TIP3    H257795   5.383   5.040   2.502 -1.8382 -0.0648 -1.6971
12102TIP3   OH257796   4.287   2.927   2.844  0.8987 -0.0082 -0.2230
12102TIP3    H157797   4.283   2.863   2.773 -1.4798  0.5080 -0.6241
12102TIP3    H257798   4.298   3.011   2.799 -0.3582  0.2939  0.0144
12103TIP3   OH257799   4.582   2.091   5.902  0.1432 -0.6618  0.5212
12103TIP3    H157800   4.553   2.006   5.868 -0.2230 -0.4398  0.2727
12103TIP3    H257801   4.505   2.147   5.896  0.3283 -0.3659  0.8747
12104TIP3   OH257802   4.590   3.491   6.398  0.3123  0.1486  0.6092
12104TIP3    H157803   4.612   3.410   6.351  0.0294  0.7138 -0.5266
12104TIP3    H257804   4.649   3.557   6.361 -0.8361  0.8950  0.0763
12105TIP3   OH257805   0.979   2.884  11.715 -0.8896 -0.1260 -0.5117
12105TIP3    H157806   1.006   2.792  11.711  0.5118  0.2769 -0.8883
12105TIP3    H257807   0.963   2.900  11.808  0.1678 -0.4097 -0.2691
12106TIP3   OH257808   3.739   4.876  11.579 -0.7342  0.3691  0.0364
12106TIP3    H157809   3.767   4.799  11.629  0.1990 -1.0883 -2.6407
12106TIP3    H257810   3.815   4.933  11.577 -1.3865  1.3623  1.9099
12107TIP3   OH257811   2.963   4.769  13.318 -0.3663 -0.5222  0.4834
12107TIP3    H157812   2.978   4.678  13.344 -0.7048 -0.4649  0.8803
12107TIP3    H257813   3.048   4.799  13.287  0.0537 -0.5962  1.5288
12108TIP3   OH257814   1.335   6.735  12.457  0.0789 -0.3215  0.2888
12108TIP3    H157815   1.411   6.682  12.434  1.1390  1.7633 -1.1654
12108TIP3    H257816   1.268   6.709  12.394 -0.3866 -2.0419  1.4691
12109TIP3   OH257817   1.619   0.175   4.471 -0.0246 -0.2573  0.0103
12109TIP3    H157818   1.552   0.156   4.537 -1.0213  0.3587 -0.8204
12109TIP3    H257819   1.610   0.268   4.454  0.8326 -0.2365 -0.3592
12110TIP3   OH257820   1.479   2.490  13.289  0.0891 -0.4593  0.5494
12110TIP3    H157821   1.390   2.499  13.254 -0.0840  0.8580  1.3149
12110TIP3    H257822   1.466   2.456  13.378  0.3943 -1.0213  0.3823
12111TIP3   OH257823   2.413   0.277  12.524  0.5582 -0.0044  0.1473
12111TIP3    H157824   2.361   0.341  12.476 -1.1568 -1.7191 -0.3720
12111TIP3    H257825   2.471   0.240  12.458  0.2114 -0.3209  0.0160
12112TIP3   OH257826   2.902   3.379  11.662  0.0206  0.1052  0.7117
12112TIP3    H157827   2.857   3.298  11.638  1.2407 -0.9279  1.8741
12112TIP3    H257828   2.945   3.407  11.581  0.8943 -1.2456  0.6971
12113TIP3   OH257829   4.371   0.507   5.824 -0.4122  0.6928  0.2136
12113TIP3    H157830   4.416   0.584   5.859 -0.9711  0.6886  0.9321
12113TIP3    H257831   4.382   0.440   5.892 -0.6329  0.3862 -0.0529
12114TIP3   OH257832   4.773   6.483  15.255  0.0794  0.0591  0.2096
12114TIP3    H157833   4.789   6.519  15.342  2.0655 -0.8861  0.2574
12114TIP3    H257834   4.840   6.415  15.244  0.5687  0.8906 -2.4630
12115TIP3   OH257835   0.113   5.032   5.482  0.2252  0.2346 -0.6929
12115TIP3    H157836   0.180   5.080   5.531 -1.4498  0.8143  1.0903
12115TIP3    H257837   0.162   4.964   5.436  1.8741 -0.4692  1.9645
12116TIP3   OH257838   0.220   4.440   5.145 -0.0712 -0.0385  0.1298
12116TIP3    H157839   0.252   4.459   5.057  0.2062 -0.8449  0.0523
12116TIP3    H257840   0.270   4.363   5.172 -1.4078 -0.8483  0.3072
12117TIP3   OH257841   0.317   6.517  15.132 -0.9114  0.4422  0.3555
12117TIP3    H157842   0.355   6.473  15.057 -2.3669  1.1604 -0.8286
12117TIP3    H257843   0.232   6.550  15.101 -0.3634  3.0866  1.5098
12118TIP3   OH257844   6.216   2.671   5.389 -0.0068 -0.0743 -0.0586
12118TIP3    H157845   6.154   2.650   5.459  0.5673 -0.7863  0.2381
12118TIP3    H257846   6.173   2.642   5.309 -0.2478 -0.1467  0.0976
12119TIP3   OH257847   4.883   2.068   0.234 -0.4845  0.6419  0.1046
12119TIP3    H157848   4.940   2.049   0.309  0.1100 -0.0748 -0.5232
12119TIP3    H257849   4.925   2.140   0.189 -0.7884  1.0036  0.3893
12120TIP3   OH257850   3.509   3.345  12.677  0.4732  0.0817  0.0308
12120TIP3    H157851   3.519   3.432  12.714  0.1951 -0.2820  0.9801
12120TIP3    H257852   3.575   3.340  12.607 -1.0706  1.8666 -1.5923
12121TIP3   OH257853   2.850   2.329  11.284  0.3581 -0.5788  0.3109
12121TIP3    H157854   2.900   2.329  11.366  1.5212 -1.9920 -0.3848
12121TIP3    H257855   2.859   2.418  11.251  1.5062 -0.5174  0.7552
12122TIP3   OH257856   0.680   5.237   3.790  0.0518 -0.0019 -0.5503
12122TIP3    H157857   0.663   5.331   3.787 -1.3268 -0.2751 -1.5393
12122TIP3    H257858   0.672   5.208   3.699 -0.0872 -1.1811 -0.1661
12123TIP3   OH257859   2.205   2.763  12.771  0.6058 -0.2583 -0.7818
12123TIP3    H157860   2.255   2.821  12.714  1.3712 -0.3510 -0.2210
12123TIP3    H257861   2.155   2.822  12.827  0.8640 -0.1437 -0.6681
12124TIP3   OH257862   0.715   0.320   3.529  0.0111 -0.2539 -0.1756
12124TIP3    H157863   0.722   0.270   3.447  2.5826  1.2093 -0.8906
12124TIP3    H257864   0.801   0.360   3.540 -0.9936  1.3380  2.1277
12125TIP3   OH257865   1.840   1.985   6.409 -0.1855 -0.3753 -0.0357
12125TIP3    H157866   1.761   1.934   6.425 -0.1479  0.5998  3.4605
12125TIP3    H257867   1.910   1.919   6.401 -0.7733 -1.0533  0.4089
12126TIP3   OH257868   6.278   1.457   5.176 -0.1232  0.3596 -0.2274
12126TIP3    H157869   6.300   1.547   5.199 -0.1001  0.3648 -0.2696
12126TIP3    H257870   6.323   1.404   5.242 -1.3692  0.4468  0.7200
12127TIP3   OH257871   4.259   1.502  11.270 -0.6189  0.3580 -0.2205
12127TIP3    H157872   4.331   1.514  11.208 -0.1717  0.5879  0.3422
12127TIP3    H257873   4.236   1.409  11.260 -0.3920  0.3348 -0.5624
12128TIP3   OH257874   4.111   5.494  14.946  0.0124  0.4125  0.1095
12128TIP3    H157875   4.029   5.543  14.949  0.1447  0.5596  1.4602
12128TIP3    H257876   4.174   5.555  14.905  0.4998  1.8806  2.9542
12129TIP3   OH257877   4.491   2.148   0.939 -0.0726  0.1544 -0.7821
12129TIP3    H157878   4.434   2.100   0.999 -2.2218  1.8345 -1.4336
12129TIP3    H257879   4.543   2.205   0.996 -1.4976  1.1189 -0.4429
12130TIP3   OH257880   6.217   3.061   4.158  0.5974  0.2360  0.5731
12130TIP3    H157881   6.149   3.010   4.202 -1.4686  1.4316 -1.1409
12130TIP3    H257882   6.259   2.999   4.099 -0.1755 -0.0951  0.3687
12131TIP3   OH257883   5.205   4.521   2.290  0.1919  0.3924 -0.6757
12131TIP3    H157884   5.213   4.561   2.204 -0.4546  1.4797 -0.2420
12131TIP3    H257885   5.151   4.443   2.275  2.1819 -0.8270 -1.6729
12132TIP3   OH257886   4.915   1.222   5.852 -0.9143 -0.2795  0.0220
12132TIP3    H157887   4.970   1.249   5.925 -1.2161 -0.8485  0.4565
12132TIP3    H257888   4.865   1.147   5.885 -0.2311 -1.2645 -1.1023
12133TIP3   OH257889   2.623   3.153   4.966 -0.3917  0.0583 -0.1681
12133TIP3    H157890   2.585   3.176   5.051 -2.1018  0.8594 -1.1330
12133TIP3    H257891   2.715   3.178   4.974 -0.5430  0.1807  1.4227
12134TIP3   OH257892   3.332   6.375   3.136 -0.2754  0.2755 -0.2541
12134TIP3    H157893   3.355   6.462   3.168  1.2291 -0.3104  0.3495
12134TIP3    H257894   3.240   6.381   3.111 -0.5067  1.7100  0.8931
12135TIP3   OH257895   2.553   4.569  11.993 -0.1680  0.5483  0.1398
12135TIP3    H157896   2.549   4.476  11.971  0.9221  0.6341 -0.4671
12135TIP3    H257897   2.645   4.585  12.013 -0.3959  1.4373  0.5156
12136TIP3   OH257898   6.206   1.282  13.077 -0.0257 -0.7141  0.1605
12136TIP3    H157899   6.280   1.336  13.105 -0.4235 -0.0431 -0.0860
12136TIP3    H257900   6.156   1.338  13.017 -0.5065 -1.3086 -0.0017
12137TIP3   OH257901   3.790   5.997  14.008 -0.4482 -0.5176  0.2329
12137TIP3    H157902   3.755   6.062  13.947  3.1340  0.0670 -1.3633
12137TIP3    H257903   3.821   6.049  14.082 -0.6359 -0.7670  0.4862
12138TIP3   OH257904   1.677   1.958   3.954 -0.9081 -0.3163 -0.0551
12138TIP3    H157905   1.610   2.005   4.005  0.6481  0.2568  1.5373
12138TIP3    H257906   1.691   2.013   3.877 -1.3590  0.2503  0.2560
12139TIP3   OH257907   2.935   1.803  11.564 -0.1735 -0.7128  0.0977
12139TIP3    H157908   2.975   1.730  11.516 -0.0674 -0.4071 -0.2808
12139TIP3    H257909   2.845   1.808  11.530  0.3776  0.5240 -1.2393
12140TIP3   OH257910   0.183   4.387  13.796 -0.5254 -0.2184 -0.1420
12140TIP3    H157911   0.136   4.350  13.870 -0.0295 -1.3833 -0.4071
12140TIP3    H257912   0.161   4.480  13.798 -0.4004 -0.2128  1.5525
12141TIP3   OH257913   5.951   0.038   2.528  0.0935 -0.6175 -0.0147
12141TIP3    H157914   6.041   0.028   2.496  1.2335  1.0027  2.5049
12141TIP3    H257915   5.945  -0.025   2.600  0.1425  1.2475  1.6387
12142TIP3   OH257916   4.663   0.728   1.443 -0.8406  0.2068  0.4834
12142TIP3    H157917   4.736   0.667   1.449 -0.6472  0.4457  0.5696
12142TIP3    H257918   4.612   0.698   1.368 -1.3898 -0.7574  1.2346
12143TIP3   OH257919   4.774   1.261  13.671  0.0701  0.7011  0.2441
12143TIP3    H157920   4.770   1.331  13.736 -1.0464 -0.2140  1.1770
12143TIP3    H257921   4.686   1.256  13.636  0.0618 -0.4705  0.4249
12144TIP3   OH257922   3.849   5.867   1.544  0.3337 -0.0949 -0.3339
12144TIP3    H157923   3.856   5.791   1.487  2.9647  0.0103 -0.2153
12144TIP3    H257924   3.847   5.942   1.483 -1.0795 -0.1768 -0.4071
12145TIP3   OH257925   6.658   0.113  13.394  0.2444  0.2099 -0.6886
12145TIP3    H157926   6.712   0.044  13.357  0.3344 -0.7116  1.0682
12145TIP3    H257927   6.718   0.166  13.446 -0.1967  0.3415 -0.3072
12146TIP3   OH257928   0.223   4.054   5.132 -0.1598 -0.0610 -0.0886
12146TIP3    H157929   0.135   4.092   5.123  0.0779  1.0912  2.2394
12146TIP3    H257930   0.274   4.097   5.063 -0.5103  2.0460  0.9349
12147TIP3   OH257931   6.290   6.731  15.107 -0.4259  0.3392  0.1127
12147TIP3    H157932   6.344   6.693  15.176 -0.6466  0.6499  0.4602
12147TIP3    H257933   6.352   6.755  15.038  0.0139  1.5781  0.9076
12148TIP3   OH257934   0.486   3.429   0.710  0.1157  0.0597 -0.0530
12148TIP3    H157935   0.414   3.464   0.763 -0.3988  0.9275 -1.3133
12148TIP3    H257936   0.565   3.457   0.755 -0.3222  0.0448  0.7355
12149TIP3   OH257937   2.459   6.539   4.922 -0.4575  0.6901  0.0634
12149TIP3    H157938   2.455   6.466   4.859 -2.6208  0.9186 -0.1188
12149TIP3    H257939   2.531   6.516   4.981 -0.3286 -0.9991 -0.7090
12150TIP3   OH257940   3.152   6.629   2.563 -0.5605 -0.4006  0.4784
12150TIP3    H157941   3.169   6.661   2.474  0.2884  1.0003  1.1322
12150TIP3    H257942   3.198   6.545   2.567 -1.2858 -0.8734 -0.6574
12151TIP3   OH257943   0.080   2.557   2.951 -0.0307  0.1528 -0.4709
12151TIP3    H157944   0.049   2.502   3.023  0.2854  0.1092 -0.3634
12151TIP3    H257945   0.026   2.533   2.877 -1.6365  1.5374  0.2135
12152TIP3   OH257946   6.049   3.506  17.097 -0.3330 -0.4237  0.3651
12152TIP3    H157947   5.990   3.508  17.021 -0.5316 -0.3652  0.5191
12152TIP3    H257948   6.061   3.598  17.120 -0.3779 -0.4470  0.4850
12153TIP3   OH257949   3.128   4.298   6.720 -0.8137  0.3943  0.8099
12153TIP3    H157950   3.105   4.229   6.783  0.2685 -0.6767  0.0544
12153TIP3    H257951   3.172   4.251   6.649  0.2832  1.9257  0.4699
12154TIP3   OH257952   2.713   5.117   1.792 -0.4258 -0.3576 -0.3871
12154TIP3    H157953   2.729   5.204   1.828  0.0615 -0.6214  0.0318
12154TIP3    H257954   2.689   5.063   1.867  2.1636 -1.2973 -0.1859
12155TIP3   OH257955   1.923   0.021  11.798  0.0362 -0.1124 -0.2772
12155TIP3    H157956   1.928  -0.056  11.855  1.0443  0.1759  0.0142
12155TIP3    H257957   1.829   0.042  11.795 -0.0123 -0.0750  1.3278
12156TIP3   OH257958   3.964   4.971   6.037 -0.8923  0.3175 -0.1870
12156TIP3    H157959   4.051   4.934   6.048 -0.2024  2.1761  0.8387
12156TIP3    H257960   3.905   4.902   6.066  0.1775 -1.3226 -1.8516
12157TIP3   OH257961   5.091   3.908  11.709 -0.0209 -0.9110 -0.0451
12157TIP3    H157962   5.140   3.989  11.727  0.3260 -0.8442 -1.2612
12157TIP3    H257963   5.104   3.855  11.787  1.9144 -0.8464 -0.2977
12158TIP3   OH257964   1.495   5.361   3.218 -0.0125  0.4546  0.1029
12158TIP3    H157965   1.471   5.347   3.126  1.4781 -0.4668 -0.1606
12158TIP3    H257966   1.434   5.428   3.248  1.2683  2.8575 -2.3732
12159TIP3   OH257967   0.851   6.457   6.600  0.7620 -0.5476 -0.7040
12159TIP3    H157968   0.780   6.506   6.558 -0.4366  0.4199  2.2917
12159TIP3    H257969   0.806   6.393   6.655  2.3060 -2.8263 -2.0067
12160TIP3   OH257970   2.510   5.273  15.977 -0.5040  0.3778  0.1574
12160TIP3    H157971   2.518   5.208  15.907 -2.4062  0.8237 -0.4933
12160TIP3    H257972   2.421   5.263  16.010  0.1923  0.5381  2.1851
12161TIP3   OH257973   0.880   6.117   3.014 -0.1202 -0.3914 -0.2580
12161TIP3    H157974   0.941   6.122   2.940 -1.7446  0.4318 -1.5869
12161TIP3    H257975   0.927   6.157   3.087  1.5747 -1.3545 -0.8048
12162TIP3   OH257976   4.468   3.498  13.968  0.9241 -0.4737 -0.0082
12162TIP3    H157977   4.429   3.585  13.962  2.5007  0.2668  0.3138
12162TIP3    H257978   4.560   3.511  13.945  0.9642 -2.2174 -0.8568
12163TIP3   OH257979   3.593   6.273   2.516 -0.9437  0.1025  0.2516
12163TIP3    H157980   3.549   6.223   2.447 -2.7488  1.5679  0.2942
12163TIP3    H257981   3.584   6.364   2.487  0.1649  0.5701  1.3708
12164TIP3   OH257982   5.312   2.409  16.548  0.1258 -1.4579 -0.3190
12164TIP3    H157983   5.320   2.459  16.467  0.9256 -2.6241 -0.9694
12164TIP3    H257984   5.221   2.379  16.549 -0.1426 -0.6719 -0.3061
12165TIP3   OH257985   5.015   1.667  14.830  0.5546  0.1412 -0.3437
12165TIP3    H157986   5.030   1.751  14.874  1.7441  0.1484 -0.7359
12165TIP3    H257987   5.023   1.602  14.900 -1.7065  0.4298  0.2154
12166TIP3   OH257988   6.150   3.864   2.548 -0.4213  0.1027 -0.1007
12166TIP3    H157989   6.073   3.841   2.497 -0.9007 -1.8733  1.4538
12166TIP3    H257990   6.116   3.900   2.629  0.2933  0.1560  0.1812
12167TIP3   OH257991   2.461   2.009  11.906  0.1119  0.0034 -0.6888
12167TIP3    H157992   2.524   2.073  11.940  0.6779 -2.0190  2.2430
12167TIP3    H257993   2.515   1.940  11.868 -0.4478  0.2936 -2.0239
12168TIP3   OH257994   6.145   4.660  16.708 -0.2441  0.0123  0.0989
12168TIP3    H157995   6.175   4.627  16.623 -1.4718 -0.6257 -0.1033
12168TIP3    H257996   6.151   4.584  16.766  2.1519  0.8679  1.0024
12169TIP3   OH257997   2.737   1.040  16.164 -0.3342  0.1612 -0.2775
12169TIP3    H157998   2.803   1.108  16.172  0.4816 -0.7819  1.3193
12169TIP3    H257999   2.783   0.967  16.120 -0.8080  0.1239 -0.7204
12170TIP3   OH258000   2.605   1.541  12.189 -0.2887  0.9096 -0.2555
12170TIP3    H158001   2.597   1.539  12.285 -0.8933  0.9572 -0.3025
12170TIP3    H258002   2.588   1.451  12.162  1.2536  0.5951 -0.2228
12171TIP3   OH258003   6.493   5.703  16.284  0.0454  0.2968 -0.1639
12171TIP3    H158004   6.465   5.759  16.211 -3.3355  0.3133  1.0534
12171TIP3    H258005   6.443   5.622  16.273  1.9696 -0.9842  0.3030
12172TIP3   OH258006   3.068   5.208   4.389  0.3625 -0.1293 -0.3712
12172TIP3    H158007   3.004   5.237   4.454  0.1795 -1.1539 -0.0793
12172TIP3    H258008   3.017   5.154   4.328  1.0651 -1.5813  0.2886
12173TIP3   OH258009   5.011   1.954   4.119  0.9260 -0.2873 -0.4938
12173TIP3    H158010   5.054   1.877   4.157 -0.5480 -0.6660  0.4392
12173TIP3    H258011   5.039   1.954   4.027  3.0572 -0.4076  0.1330
12174TIP3   OH258012   1.017   2.902   5.470  0.5068 -0.6788  0.4434
12174TIP3    H158013   1.056   2.916   5.556  0.6696 -2.6886  0.7029
12174TIP3    H258014   1.002   2.808   5.464 -0.8199 -0.4029 -1.1625
12175TIP3   OH258015   2.347   1.504   2.779  0.0801 -0.0614 -0.0660
12175TIP3    H158016   2.442   1.517   2.783  0.1020  0.1084 -1.0717
12175TIP3    H258017   2.313   1.588   2.748 -0.5538  0.4271  1.9240
12176TIP3   OH258018   1.496   0.516  15.015  0.7557 -0.1967  0.0572
12176TIP3    H158019   1.421   0.555  14.970  1.5167 -1.0409 -2.0017
12176TIP3    H258020   1.562   0.586  15.017  0.7317 -0.1667 -0.1876
12177TIP3   OH258021   3.628   5.895   1.006 -0.5132 -0.3204 -0.4055
12177TIP3    H158022   3.593   5.810   1.035  0.1331  0.3040  2.3575
12177TIP3    H258023   3.552   5.953   1.008 -1.1030 -0.9639 -2.9760
12178TIP3   OH258024   2.069   5.367  14.581  0.1839 -0.2039 -0.3094
12178TIP3    H158025   2.108   5.423  14.648 -0.2591 -1.3033  0.8957
12178TIP3    H258026   2.141   5.311  14.552  0.4007  0.3426 -0.8454
12179TIP3   OH258027   0.508   6.675   2.899 -0.3062  0.1811  0.4252
12179TIP3    H158028   0.574   6.653   2.833  0.1897 -2.1918  1.6677
12179TIP3    H258029   0.462   6.751   2.862  1.5492  0.4070 -1.5253
12180TIP3   OH258030   2.681   6.307  15.559  0.6828 -0.6724  0.2822
12180TIP3    H158031   2.690   6.259  15.641  1.6043  0.7801  1.0697
12180TIP3    H258032   2.668   6.398  15.586  1.0831 -0.1631 -1.1789
12181TIP3   OH258033   2.807   1.207   3.936  0.3246 -0.4841 -0.1125
12181TIP3    H158034   2.775   1.292   3.968 -0.0802 -1.1172  1.2145
12181TIP3    H258035   2.884   1.188   3.991  0.2790 -1.0849 -0.2486
12182TIP3   OH258036   1.195   4.618  16.250  0.3869 -0.4886 -0.4893
12182TIP3    H158037   1.291   4.619  16.255  0.3876  0.6455 -0.5706
12182TIP3    H258038   1.170   4.710  16.250 -0.6478 -0.7576 -1.8498
12183TIP3   OH258039   5.647   4.273  16.981  0.4788 -0.1873  0.1211
12183TIP3    H158040   5.686   4.344  16.929 -1.2307  0.0041 -0.9621
12183TIP3    H258041   5.663   4.194  16.929  0.7731 -0.3354  0.4335
12184TIP3   OH258042   0.825   2.826  14.589 -0.5018  0.0930 -0.0031
12184TIP3    H158043   0.798   2.902  14.537 -0.5922  0.0171 -0.0683
12184TIP3    H258044   0.920   2.830  14.589 -0.4602 -0.6158 -1.2408
12185TIP3   OH258045   5.086   6.177  15.982 -0.0233  0.5741  0.4814
12185TIP3    H158046   5.151   6.142  15.921 -0.1252 -0.7180  1.1002
12185TIP3    H258047   5.118   6.152  16.068 -0.7013  1.0079  0.8626
12186TIP3   OH258048   6.558   2.411  14.728 -0.0235 -0.0516 -0.2780
12186TIP3    H158049   6.638   2.463  14.724 -0.1283  0.1061 -0.2747
12186TIP3    H258050   6.574   2.348  14.799  0.8573 -1.2491 -1.4962
12187TIP3   OH258051   0.502   4.155   0.653  0.9286  0.4479 -0.5904
12187TIP3    H158052   0.525   4.140   0.745  0.0543  0.4264 -0.3701
12187TIP3    H258053   0.526   4.073   0.609  0.6435  0.1697 -0.2389
12188TIP3   OH258054   6.545   2.884   3.031 -0.1991  0.1663 -0.0732
12188TIP3    H158055   6.487   2.931   2.971 -2.2360  0.3853  1.9808
12188TIP3    H258056   6.567   2.949   3.098  0.6528 -0.5451  0.3486
12189TIP3   OH258057   6.488   0.489   1.316 -0.6775 -1.1461 -0.4570
12189TIP3    H158058   6.496   0.399   1.348 -2.2684 -1.0090  0.3668
12189TIP3    H258059   6.447   0.479   1.229  0.9368 -1.3279 -1.2134
12190TIP3   OH258060   2.196   6.593  16.173  0.1681 -0.3870 -0.2564
12190TIP3    H158061   2.214   6.616  16.264  2.6242 -1.4897 -0.4277
12190TIP3    H258062   2.193   6.677  16.127  0.5634  0.0891  0.5660
12191TIP3   OH258063   5.163   4.932   3.392 -0.1158  0.1270 -0.4713
12191TIP3    H158064   5.231   4.968   3.334 -1.0377  0.6136 -1.2618
12191TIP3    H258065   5.101   4.891   3.333 -0.9091  0.3628  0.1996
12192TIP3   OH258066   5.765   2.217  14.894  0.3010  0.2888 -0.3488
12192TIP3    H158067   5.789   2.204  14.803  1.1204  0.0459 -0.1046
12192TIP3    H258068   5.701   2.148  14.913  1.6898 -0.9516 -0.1579
12193TIP3   OH258069   4.062   6.624  12.323 -0.0137 -0.6291 -0.2212
12193TIP3    H158070   4.141   6.678  12.327 -0.0530 -0.6036  0.2386
12193TIP3    H258071   4.082   6.547  12.376 -0.8766  0.1402  1.2623
12194TIP3   OH258072   3.363   4.174  12.509  0.2908  0.1291  0.1159
12194TIP3    H158073   3.372   4.127  12.592 -0.0842  0.1878  0.1932
12194TIP3    H258074   3.449   4.212  12.493  0.7211 -0.9493 -0.1639
12195TIP3   OH258075   6.434   5.893   4.834  0.7365 -0.3115  0.0061
12195TIP3    H158076   6.484   5.946   4.772 -2.2304  1.0554 -1.2840
12195TIP3    H258077   6.389   5.828   4.780 -0.2232 -0.4611  0.9642
12196TIP3   OH258078   1.454   4.935   3.532  0.3220  0.3880 -0.6566
12196TIP3    H158079   1.448   4.863   3.470 -0.5836  0.0456 -0.1864
12196TIP3    H258080   1.424   4.898   3.615 -0.2641  1.3298 -0.4342
12197TIP3   OH258081   1.485   3.377  15.585  0.0106  0.0389  0.2627
12197TIP3    H158082   1.573   3.409  15.567  0.2534 -0.8102 -0.1275
12197TIP3    H258083   1.430   3.419  15.519  0.1464  0.4770  0.4298
12198TIP3   OH258084   0.343   3.302  11.791  0.0446  0.3526 -0.5706
12198TIP3    H158085   0.318   3.218  11.751  1.1657 -0.8744  1.2025
12198TIP3    H258086   0.262   3.336  11.828  0.0823 -1.3878  1.2147
12199TIP3   OH258087   1.885   2.129  16.689  0.1940 -0.2332  0.5240
12199TIP3    H158088   1.857   2.171  16.771 -0.1290  0.7086 -0.0598
12199TIP3    H258089   1.872   2.196  16.622  2.6527 -0.1917  0.0329
12200TIP3   OH258090   3.043   5.791   0.161  0.1736  0.1394  0.0156
12200TIP3    H158091   3.129   5.808   0.199 -0.1119  3.0522 -0.4897
12200TIP3    H258092   2.995   5.874   0.173 -1.8083 -0.7240 -1.6316
12201TIP3   OH258093   1.943   2.757   4.838 -0.2891  0.0282  0.1243
12201TIP3    H158094   2.025   2.707   4.830  0.7369  1.9374 -1.3708
12201TIP3    H258095   1.950   2.800   4.924  1.8041  2.8202 -1.3794
12202TIP3   OH258096   5.990   1.788   3.973 -1.0738 -0.0135 -0.8447
12202TIP3    H158097   5.908   1.823   3.938 -0.4336  0.2165 -2.1353
12202TIP3    H258098   6.033   1.748   3.898  1.1460  2.0761 -0.7619
12203TIP3   OH258099   6.646   3.143  14.787  0.1942  0.1927 -0.4275
12203TIP3    H158100   6.620   3.052  14.772  0.4659 -0.3162  1.9709
12203TIP3    H258101   6.598   3.192  14.720 -1.9422 -1.4295 -0.1839
12204TIP3   OH258102   3.853   6.323  12.083 -0.7457 -0.3825  0.0485
12204TIP3    H158103   3.923   6.274  12.127 -2.1275 -2.5702 -0.1036
12204TIP3    H258104   3.798   6.355  12.155 -0.6851 -0.3515  0.0812
12205TIP3   OH258105   6.319   4.724   3.571  0.4799  0.3754  0.5609
12205TIP3    H158106   6.232   4.751   3.600 -0.9733 -1.3612 -2.0366
12205TIP3    H258107   6.339   4.646   3.623  0.5947  0.8760  1.2829
12206TIP3   OH258108   2.716   2.374  12.759  0.0734 -0.2209  0.1493
12206TIP3    H158109   2.775   2.303  12.786 -1.1611 -1.3619 -0.1156
12206TIP3    H258110   2.631   2.350  12.796 -0.5058  0.7799 -0.5146
12207TIP3   OH258111   5.150   5.596  12.247 -0.0963 -0.6486  0.1519
12207TIP3    H158112   5.125   5.688  12.237  0.3815 -0.5060  0.2477
12207TIP3    H258113   5.122   5.554  12.165 -0.5296 -0.4670  0.2068
12208TIP3   OH258114   4.839   2.012  15.871  0.2267  0.2930 -0.1301
12208TIP3    H158115   4.930   2.008  15.901  0.1601  2.5307  0.4136
12208TIP3    H258116   4.833   2.094  15.821 -1.1002 -0.6041 -1.4937
12209TIP3   OH258117   3.364   5.802  11.238 -0.3458  0.1237  0.3113
12209TIP3    H158118   3.440   5.812  11.295  2.0615  0.0711 -2.7967
12209TIP3    H258119   3.372   5.714  11.202 -1.7302  0.2178 -0.2657
12210TIP3   OH258120   3.521   1.599   2.286  0.3734 -0.8834 -0.4024
12210TIP3    H158121   3.505   1.555   2.202 -0.8953  1.4204 -1.4122
12210TIP3    H258122   3.473   1.681   2.279  1.2017 -0.1547  2.1600
12211TIP3   OH258123   6.209   5.737   2.587  0.0600  0.1754  0.0559
12211TIP3    H158124   6.250   5.726   2.673 -0.1777  1.1499  0.2947
12211TIP3    H258125   6.223   5.653   2.543 -1.8443 -1.1790  1.9123
12212TIP3   OH258126   1.672   0.308   1.235  0.0169 -0.2983 -0.2598
12212TIP3    H158127   1.697   0.383   1.289  0.4158  1.3369 -2.6249
12212TIP3    H258128   1.669   0.343   1.146 -2.2165 -2.5154 -1.1252
12213TIP3   OH258129   4.759   3.421  15.411 -0.1877  0.0064 -0.1755
12213TIP3    H158130   4.673   3.380  15.422 -0.3537  0.9526  2.7390
12213TIP3    H258131   4.822   3.352  15.433 -0.2633 -0.3256 -1.0212
12214TIP3   OH258132   1.536   2.089  12.762 -0.1444 -0.0934  0.2865
12214TIP3    H158133   1.498   2.154  12.821  0.5571 -1.8554  2.7413
12214TIP3    H258134   1.592   2.035  12.818  1.0545 -1.4184 -2.1164
12215TIP3   OH258135   3.639   6.791   3.396 -0.0878 -0.9372  0.1751
12215TIP3    H158136   3.731   6.795   3.423 -0.0303 -0.3763 -0.1010
12215TIP3    H258137   3.592   6.841   3.463 -0.2565 -1.6501  0.5924
12216TIP3   OH258138   2.199   2.597  16.589 -0.8246  0.0241  0.1685
12216TIP3    H158139   2.129   2.657  16.614 -0.0494  1.0822 -0.1903
12216TIP3    H258140   2.181   2.576  16.498  0.0935  1.3662 -0.3262
12217TIP3   OH258141   2.918   5.703  15.956 -0.3072 -0.0270 -0.1313
12217TIP3    H158142   2.868   5.714  16.037  0.3949  1.6895  0.0799
12217TIP3    H258143   2.905   5.611  15.932 -1.8493 -0.1251  1.0390
12218TIP3   OH258144   4.657   3.090  11.547 -0.3991  0.0150  0.4185
12218TIP3    H158145   4.723   3.158  11.534 -0.0267  0.2309  3.0188
12218TIP3    H258146   4.583   3.116  11.493  0.3283  1.6558  0.1949
12219TIP3   OH258147   3.717   6.426   2.254 -0.2202 -0.1015  0.2483
12219TIP3    H158148   3.655   6.474   2.309 -1.1220 -1.2379  0.2446
12219TIP3    H258149   3.663   6.360   2.210  0.8103 -0.3800 -0.5993
12220TIP3   OH258150   5.652   6.767   5.268 -0.0032 -0.6129 -0.0152
12220TIP3    H158151   5.615   6.679   5.262  0.2344 -0.8055  1.1034
12220TIP3    H258152   5.616   6.802   5.350 -0.2616  0.4157 -0.5523
12221TIP3   OH258153   2.515   6.617  15.150 -0.0073 -0.1537  0.7133
12221TIP3    H158154   2.571   6.576  15.216  0.9479  0.8032  0.5087
12221TIP3    H258155   2.570   6.622  15.072  0.7712  3.7003  1.3842
12222TIP3   OH258156   6.663   1.124   4.702  0.0090 -0.1731  0.3684
12222TIP3    H158157   6.703   1.211   4.702 -0.7308  0.1660  0.3929
12222TIP3    H258158   6.622   1.117   4.788 -0.8106 -0.1456 -0.0246
12223TIP3   OH258159   5.567   1.687   1.715  0.0901 -0.1558 -0.2028
12223TIP3    H158160   5.661   1.691   1.731  0.1251 -1.4326 -0.0172
12223TIP3    H258161   5.533   1.631   1.785 -0.4649 -1.5674 -1.5717
12224TIP3   OH258162   0.591   6.533  13.288  0.1583  0.1387  0.3800
12224TIP3    H158163   0.606   6.611  13.342 -0.0611 -0.0503  0.7118
12224TIP3    H258164   0.639   6.551  13.207 -1.1519  1.2788 -0.1549
12225TIP3   OH258165   4.413   5.423  12.020 -0.3234 -0.3205 -0.6225
12225TIP3    H158166   4.345   5.480  11.984 -0.6772 -0.0146  0.5125
12225TIP3    H258167   4.413   5.441  12.114  2.9836  1.4798 -0.8721
12226TIP3   OH258168   2.780   4.102  13.748 -0.2994  0.1978  0.2399
12226TIP3    H158169   2.690   4.068  13.743 -0.0581 -0.7689  2.0469
12226TIP3    H258170   2.814   4.091  13.659 -1.6660 -0.2676 -0.2479
12227TIP3   OH258171   6.378   3.954  14.992 -0.5058 -0.4974 -0.4792
12227TIP3    H158172   6.327   4.029  15.021 -1.6590 -0.7587 -1.7618
12227TIP3    H258173   6.462   3.962  15.038 -1.5639  0.1362  1.3683
12228TIP3   OH258174   4.809   0.323   1.259  0.2061 -1.0279  0.5345
12228TIP3    H158175   4.749   0.313   1.185 -1.2521  0.6088  1.4526
12228TIP3    H258176   4.888   0.362   1.222 -0.6478  0.0969 -0.1107
12229TIP3   OH258177   0.416   3.650   0.539 -0.5058  0.2214 -0.4560
12229TIP3    H158178   0.485   3.700   0.495 -1.0033  0.4312 -0.9917
12229TIP3    H258179   0.464   3.584   0.589  0.0940  0.4316 -0.7420
12230TIP3   OH258180   3.451   6.507   5.209 -0.1512 -0.0420  0.3314
12230TIP3    H158181   3.514   6.455   5.260  0.2998 -0.6449 -0.8345
12230TIP3    H258182   3.475   6.492   5.118  0.2907  2.6029 -0.0241
12231TIP3   OH258183   3.642   2.982  17.079 -0.3650  0.4385 -0.6180
12231TIP3    H158184   3.666   2.926  17.153  0.1697  0.6559 -0.6212
12231TIP3    H258185   3.659   2.929  17.001 -0.4019  0.4048 -0.6036
12232TIP3   OH258186   3.365   5.933   3.668  0.2437  0.1631  0.8061
12232TIP3    H158187   3.417   5.853   3.655 -1.0332 -0.6112  0.3158
12232TIP3    H258188   3.424   6.004   3.642  0.2360 -0.8504 -2.2394
12233TIP3   OH258189   1.312   6.267   6.280  0.3952 -0.3860  0.3809
12233TIP3    H158190   1.271   6.294   6.362  0.6427 -1.2474  0.8005
12233TIP3    H258191   1.238   6.255   6.220  0.1591 -0.3919  0.6718
12234TIP3   OH258192   5.019   3.839   4.079 -0.5099  0.3123  0.3649
12234TIP3    H158193   5.089   3.854   4.015 -0.5472  2.0236  0.7269
12234TIP3    H258194   5.062   3.791   4.150 -0.2830 -0.8646 -0.5334
12235TIP3   OH258195   5.597   0.598  14.247 -0.3587  0.4302 -0.2232
12235TIP3    H158196   5.548   0.665  14.295 -0.0857  0.6886 -0.3052
12235TIP3    H258197   5.682   0.594  14.291 -0.0303  0.8196 -0.8148
12236TIP3   OH258198   5.568   4.302   1.057 -0.0561 -0.0523  0.2972
12236TIP3    H158199   5.654   4.321   1.094  0.5872 -0.8078 -0.7700
12236TIP3    H258200   5.510   4.366   1.097  1.6561  2.8340 -1.6058
12237TIP3   OH258201   3.545   1.199  12.591 -0.1908  0.2111 -0.5321
12237TIP3    H158202   3.485   1.182  12.518  0.0581 -0.3532 -0.6086
12237TIP3    H258203   3.609   1.260  12.556 -1.3097  1.6484 -0.1468
12238TIP3   OH258204   4.912   5.077   2.111 -0.2964  0.1373 -0.4767
12238TIP3    H158205   5.005   5.057   2.112 -0.4533 -0.5843 -0.4255
12238TIP3    H258206   4.870   5.001   2.152 -0.7691  1.1241  0.9400
12239TIP3   OH258207   2.431   0.879   1.003  0.0761  0.1422  0.2061
12239TIP3    H158208   2.447   0.803   1.059 -0.6838 -1.6954 -2.0095
12239TIP3    H258209   2.519   0.909   0.979  0.3826 -1.3426 -0.5988
12240TIP3   OH258210   0.584   0.894   1.016  0.2378 -0.2798 -0.3611
12240TIP3    H158211   0.599   0.988   1.010  1.5901 -0.3219  1.6826
12240TIP3    H258212   0.580   0.876   1.110 -0.5238 -2.1897 -0.7191
12241TIP3   OH258213   6.730   2.927   0.551  0.0478 -0.3869  0.0753
12241TIP3    H158214   6.817   2.963   0.573 -0.1231 -0.8727  1.5953
12241TIP3    H258215   6.748   2.838   0.521  0.0896 -0.4186  0.1950
12242TIP3   OH258216   6.746   6.199   0.762 -0.0895 -0.4038  0.4524
12242TIP3    H158217   6.724   6.154   0.681  1.9920  0.8858 -0.8843
12242TIP3    H258218   6.769   6.288   0.735 -1.3101  0.6508  2.6976
12243TIP3   OH258219   6.514   2.398   2.108  0.2456  0.2266 -0.2620
12243TIP3    H158220   6.447   2.466   2.117  0.1257  0.1457 -0.5492
12243TIP3    H258221   6.597   2.445   2.115  0.1646  0.4248 -0.5892
12244TIP3   OH258222   5.765   1.259   4.471 -0.2202 -0.3797 -0.0580
12244TIP3    H158223   5.719   1.175   4.467 -1.0404  0.0676 -0.0117
12244TIP3    H258224   5.702   1.323   4.437  0.7706  0.0665 -1.0932
12245TIP3   OH258225   4.725   0.012  11.278 -0.0316  0.1930  0.4227
12245TIP3    H158226   4.660   0.082  11.266 -0.9303 -0.4615  1.3658
12245TIP3    H258227   4.789   0.026  11.208 -0.5143  1.6089  0.2547
12246TIP3   OH258228   2.101   4.698   1.519  0.1470 -0.0513  0.2093
12246TIP3    H158229   2.048   4.723   1.443  1.2268  2.0651  0.1129
12246TIP3    H258230   2.187   4.678   1.482  0.0333 -1.3158  0.6202
12247TIP3   OH258231   6.793   6.386  16.991  0.2017 -0.2956 -0.2368
12247TIP3    H158232   6.821   6.297  16.970 -0.6485 -0.5369 -0.3690
12247TIP3    H258233   6.874   6.431  17.016  0.0877 -2.1883  3.8541
12248TIP3   OH258234   2.925   4.548   0.134  0.2108  0.0438  0.1142
12248TIP3    H158235   2.932   4.607   0.059 -0.6804 -0.5132 -0.4136
12248TIP3    H258236   2.831   4.539   0.150  0.3859  0.0728  1.2355
12249TIP3   OH258237   6.326   0.802  14.302 -0.2009 -0.2825 -0.6864
12249TIP3    H158238   6.360   0.721  14.342 -3.4649 -0.0547  2.7823
12249TIP3    H258239   6.393   0.867  14.319  0.5338 -1.2797  0.2885
12250TIP3   OH258240   6.132   1.131   3.849 -0.5072 -0.3928 -0.2677
12250TIP3    H158241   6.150   1.050   3.800 -0.1686 -0.4556 -0.0395
12250TIP3    H258242   6.063   1.174   3.799  0.2751 -0.1534 -1.1420
12251TIP3   OH258243   6.036   4.728  14.366 -0.0141 -0.0205  0.2556
12251TIP3    H158244   6.120   4.710  14.323 -1.4209 -0.5366 -2.3636
12251TIP3    H258245   5.999   4.801  14.316 -1.7154 -0.6650  0.5703
12252TIP3   OH258246   1.286   2.750   5.644  0.5448 -0.2239 -0.1433
12252TIP3    H158247   1.316   2.688   5.577  0.1511 -0.3332 -0.2211
12252TIP3    H258248   1.356   2.814   5.650 -0.1859  0.8043 -1.9605
12253TIP3   OH258249   6.450   6.482   5.043  0.5205  0.7044  0.1576
12253TIP3    H158250   6.536   6.507   5.008  2.5053 -4.1322  1.2216
12253TIP3    H258251   6.443   6.528   5.126  1.5012  2.1025 -0.5183
12254TIP3   OH258252   3.220   0.244   1.426 -0.2436 -0.2372  0.1355
12254TIP3    H158253   3.144   0.208   1.473 -0.5996 -0.0533 -0.2934
12254TIP3    H258254   3.201   0.337   1.417 -0.1986 -0.2751 -0.3967
12255TIP3   OH258255   2.557   5.765  14.521  0.1286  0.1273 -0.0078
12255TIP3    H158256   2.491   5.716  14.471  0.3298 -0.7782  0.6126
12255TIP3    H258257   2.599   5.821  14.456  1.2330 -1.9331 -1.1163
12256TIP3   OH258258   1.523   5.966   4.492  0.0866 -0.0094  0.0680
12256TIP3    H158259   1.557   5.937   4.407  0.8367  1.4997 -0.1616
12256TIP3    H258260   1.494   6.056   4.477  0.5120  0.3752  1.4869
12257TIP3   OH258261   3.419   1.820   6.237  0.0438 -0.1473 -0.1285
12257TIP3    H158262   3.336   1.865   6.250 -0.2713 -0.8525  0.3335
12257TIP3    H258263   3.444   1.841   6.147 -1.5983 -1.5069 -0.9129
12258TIP3   OH258264   4.087   1.311   3.757  0.1280 -0.4921  0.0437
12258TIP3    H158265   4.147   1.238   3.773 -1.2201 -1.5657  0.3414
12258TIP3    H258266   4.038   1.320   3.839 -0.3989  0.0979 -0.3308
12259TIP3   OH258267   0.749   5.657   4.599  0.2674 -0.3343  0.0898
12259TIP3    H158268   0.699   5.737   4.616  1.1718  0.0094  1.1790
12259TIP3    H258269   0.840   5.686   4.590  0.4301 -1.0831 -0.8528
12260TIP3   OH258270   6.092   4.459   5.515 -0.1668 -0.2477 -0.0225
12260TIP3    H158271   6.107   4.529   5.452  0.1734  0.1927  0.5385
12260TIP3    H258272   6.128   4.493   5.597  1.3314 -1.6608 -0.0791
12261TIP3   OH258273   5.118   5.812   4.886  0.0396 -0.1918 -0.2428
12261TIP3    H158274   5.091   5.904   4.893 -2.7533 -1.1452  4.0218
12261TIP3    H258275   5.213   5.815   4.877 -0.1688  3.1436 -1.8704
12262TIP3   OH258276   0.815   2.571  14.655 -0.2811 -0.1717 -0.0764
12262TIP3    H158277   0.817   2.657  14.612  0.5159 -0.8378 -1.3986
12262TIP3    H258278   0.726   2.564  14.691 -0.6288  0.8308 -0.7316
12263TIP3   OH258279   4.973   3.314   4.640  0.5660  0.0753  0.0831
12263TIP3    H158280   4.908   3.356   4.583  1.9659  1.4928 -0.5165
12263TIP3    H258281   4.998   3.235   4.593 -1.9784 -1.4130  1.1372
12264TIP3   OH258282   1.568   6.057  14.809  0.4300  0.3004  0.0314
12264TIP3    H158283   1.566   6.139  14.859 -2.1310  0.9746 -1.1229
12264TIP3    H258284   1.500   6.003  14.849  0.2270 -0.1923 -0.9627
12265TIP3   OH258285   6.212   4.056  13.394  0.4988 -0.1145 -0.0158
12265TIP3    H158286   6.277   4.067  13.463  0.7014  1.1823 -0.3999
12265TIP3    H258287   6.262   4.029  13.317  0.3229 -1.1476  0.2234
12266TIP3   OH258288   0.916   1.616  11.630  0.2254  0.0073 -0.5427
12266TIP3    H158289   0.874   1.536  11.658 -2.3312  1.1576 -0.9685
12266TIP3    H258290   0.915   1.612  11.534  0.7546  0.1978 -0.5574
12267TIP3   OH258291   1.024   1.236   1.737 -0.4661  0.0583  0.0518
12267TIP3    H158292   1.051   1.145   1.749 -0.8082 -0.2159 -1.2050
12267TIP3    H258293   1.006   1.267   1.826  0.0160 -0.9814  0.5277
12268TIP3   OH258294   1.075   2.535  14.736  0.2448 -0.4792  0.3636
12268TIP3    H158295   0.984   2.529  14.709  0.2530  1.4633 -0.1233
12268TIP3    H258296   1.073   2.584  14.818  0.9477  0.5902 -0.2451
12269TIP3   OH258297   1.709   5.354   2.978 -0.9105  0.0092  0.5891
12269TIP3    H158298   1.679   5.276   2.931 -1.1872  1.5366 -1.8395
12269TIP3    H258299   1.789   5.326   3.021 -2.2969 -2.2913  1.7740
12270TIP3   OH258300   4.777   5.444   3.010 -0.2977  0.0021 -0.2393
12270TIP3    H158301   4.816   5.371   3.058 -0.7825 -0.0066  0.1503
12270TIP3    H258302   4.727   5.403   2.939  0.0282 -0.0082 -0.4628
12271TIP3   OH258303   5.037   6.122  16.890  0.6799  0.8145  0.5600
12271TIP3    H158304   5.037   6.155  16.980 -1.5529  0.6588  0.6436
12271TIP3    H258305   4.953   6.079  16.881  2.0808 -1.7531 -0.7060
12272TIP3   OH258306   1.445   3.674  12.661 -0.3326  0.2403 -0.0492
12272TIP3    H158307   1.448   3.578  12.667 -0.6759  0.1954 -0.5274
12272TIP3    H258308   1.359   3.692  12.621  0.2958  0.6747 -1.2263
12273TIP3   OH258309   0.184   2.901  13.339  0.1542 -0.2927  0.3886
12273TIP3    H158310   0.166   2.980  13.391  0.1756 -0.3986  0.5588
12273TIP3    H258311   0.134   2.913  13.259  0.1043 -0.1359  0.4420
12274TIP3   OH258312   4.085   4.604  16.266 -0.0971  0.4561  0.4400
12274TIP3    H158313   4.139   4.674  16.230  0.6405 -0.9150 -1.2039
12274TIP3    H258314   4.007   4.602  16.210  1.4531 -2.2662 -1.7832
12275TIP3   OH258315   5.806   0.671  12.050  0.7670 -0.0084  0.3265
12275TIP3    H158316   5.897   0.685  12.025  1.0455 -1.1241  0.6588
12275TIP3    H258317   5.760   0.657  11.967  0.9927  0.0300  0.1934
12276TIP3   OH258318   5.296   2.858   2.200  0.1955  0.0674 -0.2019
12276TIP3    H158319   5.209   2.818   2.208 -0.0558  0.7861  0.8922
12276TIP3    H258320   5.310   2.868   2.106 -0.0764 -1.8473 -0.4550
12277TIP3   OH258321   1.691   5.408  15.232 -0.4513 -0.0752 -0.6105
12277TIP3    H158322   1.702   5.357  15.312  0.7391 -0.4458 -0.9879
12277TIP3    H258323   1.776   5.402  15.188 -1.4943 -1.0316 -2.5837
12278TIP3   OH258324   1.386   6.563  15.019 -0.0037 -0.2508 -0.1177
12278TIP3    H158325   1.449   6.518  15.075 -0.4762  0.1711  0.7614
12278TIP3    H258326   1.435   6.584  14.939  1.9239  2.9859  1.8051
12279TIP3   OH258327   2.421   0.925   1.986  0.0641 -0.0718  0.3356
12279TIP3    H158328   2.466   0.953   2.066  1.6635  0.2251 -0.6322
12279TIP3    H258329   2.490   0.886   1.932 -1.4080 -2.3924  0.0334
12280TIP3   OH258330   6.505   3.954  14.343  0.6974 -0.1031  0.7289
12280TIP3    H158331   6.561   3.887  14.384  2.8974  0.4513 -1.2326
12280TIP3    H258332   6.526   3.948  14.249 -0.6528  1.8989  0.2714
12281TIP3   OH258333   3.679   3.848  13.988 -0.3932 -0.4249 -0.0417
12281TIP3    H158334   3.621   3.842  14.064 -0.9136 -1.5166 -0.5101
12281TIP3    H258335   3.633   3.800  13.919 -0.2594  1.1707 -1.2563
12282TIP3   OH258336   1.422   2.264  16.921 -0.4716  0.1307  0.0401
12282TIP3    H158337   1.368   2.317  16.862 -2.0882 -1.7962 -0.2650
12282TIP3    H258338   1.368   2.254  17.000 -0.5634 -1.7813 -0.2484
12283TIP3   OH258339   0.962   2.220  16.165  0.2787  0.5393 -0.6423
12283TIP3    H158340   1.019   2.261  16.230  0.2566 -1.2090  0.5389
12283TIP3    H258341   0.874   2.228  16.202 -0.2383  2.8582 -2.2621
12284TIP3   OH258342   2.144   2.828  13.582  0.3283 -0.1162  0.9283
12284TIP3    H158343   2.075   2.844  13.647  0.3860  2.3878  0.4391
12284TIP3    H258344   2.128   2.894  13.514  1.3180 -1.5837 -0.7452
12285TIP3   OH258345   1.320   2.351  15.362 -0.3195  0.2794 -0.2628
12285TIP3    H158346   1.364   2.266  15.365 -0.3179  0.3111  1.3593
12285TIP3    H258347   1.229   2.333  15.386 -0.1822  0.8055  0.6965
12286TIP3   OH258348   5.735   3.431  11.593 -0.1739  0.4261  0.4516
12286TIP3    H158349   5.688   3.510  11.567 -0.9613  0.3213  1.5212
12286TIP3    H258350   5.827   3.456  11.595 -0.3469  1.0888 -0.0199
12287TIP3   OH258351   4.773   0.114  16.952 -0.1984 -0.0277 -0.1906
12287TIP3    H158352   4.690   0.084  16.991  0.1071  0.2197  0.6735
12287TIP3    H258353   4.836   0.108  17.024  0.3803  0.4233 -0.6600
12288TIP3   OH258354   1.989   6.565  11.216 -0.1659 -0.0389 -0.3429
12288TIP3    H158355   1.913   6.539  11.164  0.4785 -2.0606 -0.3260
12288TIP3    H258356   1.995   6.660  11.205 -1.9508 -0.0290 -1.3346
12289TIP3   OH258357   0.881   5.412   3.436 -0.3649  0.4428  0.0910
12289TIP3    H158358   0.927   5.380   3.513 -1.0451 -0.6811  0.0333
12289TIP3    H258359   0.931   5.488   3.408  1.3676 -0.6792  0.1151
12290TIP3   OH258360   0.049   5.795   5.056 -0.5003  0.4711  0.1663
12290TIP3    H158361   0.143   5.810   5.058 -0.5975  1.3312 -1.0981
12290TIP3    H258362   0.017   5.851   4.984 -2.0896  0.8812  1.1689
12291TIP3   OH258363   2.159   4.351  13.008  0.1463  0.3464  0.3892
12291TIP3    H158364   2.209   4.305  13.075  2.0153  0.9440 -0.5582
12291TIP3    H258365   2.099   4.407  13.056 -0.8615 -1.7082  1.5585
12292TIP3   OH258366   3.897   4.142  13.415 -0.2057 -0.3002 -0.5067
12292TIP3    H158367   3.893   4.098  13.330  1.7348 -1.0289 -0.2409
12292TIP3    H258368   3.990   4.142  13.438 -0.5483  1.1376  0.9734
12293TIP3   OH258369   1.688   4.601  17.096  0.0061 -0.1726  0.0808
12293TIP3    H158370   1.744   4.536  17.138 -1.9304 -1.3855  0.8187
12293TIP3    H258371   1.618   4.551  17.055  0.4271  1.1992 -2.3825
12294TIP3   OH258372   0.929   6.790   2.849 -0.2251 -0.4184  0.2156
12294TIP3    H158373   0.958   6.727   2.914 -1.4339  1.7763  2.9892
12294TIP3    H258374   1.007   6.840   2.827 -0.1915  0.0557  1.4064
12295TIP3   OH258375   0.113   4.861  14.872 -0.0403 -0.5415 -0.0353
12295TIP3    H158376   0.140   4.916  14.946  0.6682 -0.0730 -0.6322
12295TIP3    H258377   0.166   4.782  14.879  1.1738  0.1763 -0.9345
12296TIP3   OH258378   3.281   6.301   2.743  0.0466  0.6989  0.5359
12296TIP3    H158379   3.240   6.329   2.661  0.4708  0.5873  0.2831
12296TIP3    H258380   3.214   6.316   2.809 -0.9433 -0.8975 -0.0810
12297TIP3   OH258381   4.918   6.300   4.865 -0.3612  0.2019  0.5247
12297TIP3    H158382   4.839   6.271   4.910 -1.3841  0.7391 -0.9001
12297TIP3    H258383   4.911   6.395   4.862  0.0183  0.2121 -0.1951
12298TIP3   OH258384   6.551   0.992  17.200  0.4828 -0.3145  0.4688
12298TIP3    H158385   6.526   0.948  17.282  1.2517  1.3353  1.6192
12298TIP3    H258386   6.475   1.044  17.176  1.6074  2.2813  2.2978
12299TIP3   OH258387   6.354   0.372  15.123  0.0004 -0.1935 -0.0999
12299TIP3    H158388   6.425   0.401  15.180  0.1497 -2.2824  0.8344
12299TIP3    H258389   6.311   0.302  15.172 -2.4762  0.7827 -0.8138
12300TIP3   OH258390   4.386   3.564   5.655  0.7665  0.2785  0.1221
12300TIP3    H158391   4.425   3.649   5.634  2.3461 -0.2998  0.6163
12300TIP3    H258392   4.458   3.514   5.696 -0.6463 -0.6394  1.5364
12301TIP3   OH258393   0.491   1.563   5.360 -0.0341 -0.0641  0.2290
12301TIP3    H158394   0.409   1.515   5.376  0.3487 -0.8453 -0.1550
12301TIP3    H258395   0.557   1.495   5.347  0.7829  0.5623  1.0311
12302TIP3   OH258396   3.333   3.482   0.950  0.0524  0.0802 -0.4052
12302TIP3    H158397   3.369   3.407   0.998  2.7331  0.7012 -1.3206
12302TIP3    H258398   3.340   3.555   1.010  1.7343  0.4891 -1.0559
12303TIP3   OH258399   4.157   2.143   1.060 -0.5099 -0.2483 -0.3481
12303TIP3    H158400   4.220   2.213   1.043 -1.0901  0.1780 -0.7884
12303TIP3    H258401   4.072   2.185   1.049 -0.8575 -1.3290 -1.8826
12304TIP3   OH258402   4.532   3.446  14.361 -0.0271  0.3344  0.0762
12304TIP3    H158403   4.579   3.519  14.321 -0.8628  0.5636 -0.5132
12304TIP3    H258404   4.588   3.370  14.345  0.4335  0.7018 -0.0701
12305TIP3   OH258405   3.793   1.913  12.993  0.1602 -0.1672  0.0425
12305TIP3    H158406   3.786   1.904  13.088  1.9336 -1.1615  0.1043
12305TIP3    H258407   3.848   1.991  12.981  0.7176 -0.5804 -0.1322
12306TIP3   OH258408   4.997   0.021   2.627 -0.0447  0.2716 -0.1412
12306TIP3    H158409   5.085  -0.001   2.656 -0.7264 -3.4061 -0.6112
12306TIP3    H258410   5.009   0.063   2.542  1.2879  1.1693  0.4641
12307TIP3   OH258411   3.439   6.237   4.721  0.0690 -0.1819 -0.3853
12307TIP3    H158412   3.411   6.235   4.630  1.0847  0.7400 -0.7348
12307TIP3    H258413   3.516   6.295   4.721 -0.2867  0.3140  1.1531
12308TIP3   OH258414   2.031   4.406   1.221  0.1789  0.2062 -0.7412
12308TIP3    H158415   1.996   4.396   1.133 -1.6381  0.3554 -0.0597
12308TIP3    H258416   2.115   4.451   1.210 -0.1893  0.4962 -2.3510
12309TIP3   OH258417   0.564   1.420  12.617 -0.2253  0.3940 -0.4638
12309TIP3    H158418   0.566   1.512  12.591  1.0235  0.9821  1.6491
12309TIP3    H258419   0.477   1.389  12.591 -0.5024  2.0511 -1.5336
12310TIP3   OH258420   2.773   0.741  15.717 -0.6364  0.1679  0.7798
12310TIP3    H158421   2.755   0.832  15.742  0.8226  0.6414  0.1135
12310TIP3    H258422   2.818   0.747  15.633  1.2450 -1.0712  1.6804
12311TIP3   OH258423   3.739   5.556  10.808 -0.3396  0.5787  0.2843
12311TIP3    H158424   3.799   5.605  10.865  0.4290 -1.1224  0.9836
12311TIP3    H258425   3.724   5.614  10.734  1.8119  1.2546  0.3311
12312TIP3   OH258426   6.166   1.284  11.779 -0.6334 -0.2367  0.0118
12312TIP3    H158427   6.230   1.227  11.735 -0.3129 -0.3623  0.6317
12312TIP3    H258428   6.177   1.265  11.872  0.1027  1.4770  0.2945
12313TIP3   OH258429   2.472   1.760   3.098 -0.3476 -0.1319 -0.4850
12313TIP3    H158430   2.413   1.687   3.116 -0.6679 -0.0776 -1.3218
12313TIP3    H258431   2.559   1.727   3.122 -0.7612 -0.0572  1.1697
12314TIP3   OH258432   5.547   2.752  15.292  0.1394  0.6733  0.1973
12314TIP3    H158433   5.481   2.688  15.318 -0.3562  0.5315 -1.3371
12314TIP3    H258434   5.545   2.751  15.196  1.2823  1.7929  0.1432
12315TIP3   OH258435   2.856   6.256  10.762  0.2231 -0.2403 -0.4526
12315TIP3    H158436   2.833   6.176  10.715  0.7660 -0.0598 -1.0308
12315TIP3    H258437   2.939   6.283  10.724 -0.0928  0.7569 -0.4544
12316TIP3   OH258438   6.455   1.307   5.335  0.1996  0.3569 -0.0194
12316TIP3    H158439   6.446   1.333   5.427 -1.5273  0.5724 -0.2360
12316TIP3    H258440   6.537   1.258   5.332 -0.5442 -1.0627  1.9603
12317TIP3   OH258441   0.845   3.666   2.819  0.5572  0.3503 -0.8166
12317TIP3    H158442   0.810   3.738   2.872  2.1789 -0.8610  2.0550
12317TIP3    H258443   0.770   3.610   2.801 -0.5975  2.4125 -2.5466
12318TIP3   OH258444   5.515   6.686  13.161 -0.1620 -0.2636 -0.8938
12318TIP3    H158445   5.556   6.725  13.238  0.0327  0.2393 -1.2527
12318TIP3    H258446   5.584   6.682  13.095 -1.3656  3.2163 -2.4616
12319TIP3   OH258447   6.335   5.666  11.740 -0.0275  0.3006 -0.0574
12319TIP3    H158448   6.411   5.724  11.754  0.7778 -0.7321 -0.1038
12319TIP3    H258449   6.372   5.588  11.698 -1.2151  0.0406 -0.6315
12320TIP3   OH258450   3.639   2.202   0.440  0.4408 -0.5732  0.3757
12320TIP3    H158451   3.676   2.157   0.516  2.0350 -0.4711 -0.3036
12320TIP3    H258452   3.588   2.274   0.477  1.2828 -0.4684  1.3665
12321TIP3   OH258453   0.088   6.136   2.765 -0.0150  0.0413  0.1787
12321TIP3    H158454   0.108   6.081   2.840  0.6810  0.3541  0.2247
12321TIP3    H258455   0.130   6.093   2.691  0.6999  0.6012  0.2473
12322TIP3   OH258456   4.210   1.973  17.069 -0.4375  0.2994  0.5789
12322TIP3    H158457   4.142   2.000  17.008  1.0460 -0.1804 -1.3287
12322TIP3    H258458   4.275   2.043  17.066 -0.5200  0.4351  1.8621
12323TIP3   OH258459   3.059   6.054   4.521  0.0184 -0.1302  0.3144
12323TIP3    H158460   3.057   6.135   4.573  0.2349 -0.2196  0.4635
12323TIP3    H258461   3.141   6.059   4.472 -0.1496 -0.0841  0.0393
12324TIP3   OH258462   2.003   1.525   0.857  0.1823 -0.0851 -0.1960
12324TIP3    H158463   2.018   1.574   0.776 -0.2150 -0.4964 -0.5176
12324TIP3    H258464   2.035   1.437   0.838  1.5428  0.2247  0.6129
12325TIP3   OH258465   1.991   0.027   5.092  0.4622 -0.0854 -0.4052
12325TIP3    H158466   2.001   0.109   5.141  0.9258  0.7879 -1.9250
12325TIP3    H258467   2.078  -0.014   5.095  0.2360 -0.5036  0.3364
12326TIP3   OH258468   5.098   3.323   5.662 -0.0056 -0.4113  0.2875
12326TIP3    H158469   5.081   3.233   5.637  2.1915 -1.3302  1.9378
12326TIP3    H258470   5.159   3.317   5.735 -2.2951  2.3114  2.5570
12327TIP3   OH258471   3.460   2.709  11.130  0.2521 -0.4016  0.0985
12327TIP3    H158472   3.552   2.733  11.115  0.2131 -0.4749 -0.2698
12327TIP3    H258473   3.412   2.754  11.061 -0.0401 -0.0319  0.5406
12328TIP3   OH258474   2.516   0.154   1.876 -0.2045  0.1011  0.2161
12328TIP3    H158475   2.565   0.219   1.826 -2.1664  1.6687  0.2777
12328TIP3    H258476   2.578   0.082   1.889  1.3054  1.0008 -1.7542
12329TIP3   OH258477   3.479   4.833   4.422 -1.0496  0.0887 -0.2558
12329TIP3    H158478   3.509   4.911   4.376  2.1335 -1.4701 -0.9675
12329TIP3    H258479   3.496   4.852   4.515 -2.6029  1.1784 -0.1790
12330TIP3   OH258480   2.022   3.580  14.607 -0.3561 -0.3155  0.0416
12330TIP3    H158481   1.935   3.621  14.610 -0.1070  0.2164  0.0105
12330TIP3    H258482   2.078   3.646  14.567  0.2641 -0.3012  0.9347
12331TIP3   OH258483   4.701   2.800   4.087  0.0593 -0.2250 -0.0648
12331TIP3    H158484   4.697   2.890   4.057  0.8576 -0.0324  0.3957
12331TIP3    H258485   4.759   2.756   4.025  0.0344 -0.3101 -0.0279
12332TIP3   OH258486   6.392   0.743   4.370 -0.1685  0.3632 -0.8856
12332TIP3    H158487   6.449   0.771   4.442  0.1181 -0.3551 -0.8261
12332TIP3    H258488   6.362   0.656   4.395 -0.8199  0.4883 -1.2012
12333TIP3   OH258489   4.865   0.933  14.717 -0.2674  0.5123  0.3049
12333TIP3    H158490   4.771   0.924  14.706 -0.1341 -0.0194 -0.4727
12333TIP3    H258491   4.892   0.853  14.761 -0.2372  0.8521  0.9046
12334TIP3   OH258492   4.635   2.852   1.183  0.2973  0.0576  0.6866
12334TIP3    H158493   4.699   2.838   1.253  1.6782  1.3613 -0.2821
12334TIP3    H258494   4.591   2.934   1.207 -0.4362 -0.3936  0.9076
12335TIP3   OH258495   0.974   2.091   2.876  0.0879  0.1118  0.1558
12335TIP3    H158496   0.919   2.025   2.916 -0.5674  1.1705  1.0426
12335TIP3    H258497   0.926   2.120   2.799  1.3624 -1.9487 -1.4490
12336TIP3   OH258498   5.240   1.097  16.060  0.4788  0.1075 -0.2219
12336TIP3    H158499   5.193   1.180  16.067  1.2380  0.4823  0.5375
12336TIP3    H258500   5.332   1.122  16.052  0.7834 -0.6827  0.7871
12337TIP3   OH258501   4.528   1.416  12.395  0.4831  0.5523 -0.3162
12337TIP3    H158502   4.527   1.323  12.419  0.3216  0.8810  1.0056
12337TIP3    H258503   4.437   1.438  12.378  0.8705 -0.3482 -4.0454
12338TIP3   OH258504   6.611   1.089  15.634  0.2187 -0.0477 -0.2377
12338TIP3    H158505   6.565   1.026  15.691 -0.1122  2.7900  2.7600
12338TIP3    H258506   6.614   1.045  15.549 -1.7026 -3.3180  1.2508
12339TIP3   OH258507   6.567   1.354   0.020 -0.3032 -0.7715  0.1342
12339TIP3    H158508   6.564   1.299  -0.058 -1.8559 -0.0226 -0.3580
12339TIP3    H258509   6.475   1.372   0.040  0.1489  0.8071  0.8763
12340TIP3   OH258510   5.569   0.366  13.351  0.0126 -0.2008 -0.0137
12340TIP3    H158511   5.510   0.380  13.276  1.4999 -1.5381 -1.4710
12340TIP3    H258512   5.530   0.292  13.398  0.0849 -0.5967 -0.5585
12341TIP3   OH258513   5.668   4.112   2.657  0.5869 -0.5248 -0.6236
12341TIP3    H158514   5.646   4.115   2.564 -1.0188  2.0001 -0.2072
12341TIP3    H258515   5.632   4.029   2.687 -3.0419  0.6996 -1.3110
12342TIP3   OH258516   3.157   0.717   0.552 -0.1320  0.6584  0.3894
12342TIP3    H158517   3.181   0.637   0.505  0.3029  1.9388 -1.6701
12342TIP3    H258518   3.233   0.738   0.605  0.4334  0.6712 -0.4271
12343TIP3   OH258519   0.745   3.530  16.612 -0.1711 -0.3043  0.0550
12343TIP3    H158520   0.693   3.587  16.556  1.1613 -1.1696 -2.1297
12343TIP3    H258521   0.725   3.559  16.701 -2.1429  1.2606 -0.8608
12344TIP3   OH258522   2.966   0.602  15.491 -0.1235 -0.2700  0.3482
12344TIP3    H158523   3.027   0.675  15.480 -0.7360  0.1262 -0.4276
12344TIP3    H258524   2.993   0.561  15.573  1.7159 -0.6080 -0.4079
12345TIP3   OH258525   5.372   0.230  10.780  0.3443 -0.1831 -0.1317
12345TIP3    H158526   5.448   0.207  10.833  1.5372  4.4455  0.4033
12345TIP3    H258527   5.296   0.206  10.834  1.4973  0.2798  1.7206
12346TIP3   OH258528   5.653   3.105  12.898  0.0451  0.1129 -0.4760
12346TIP3    H158529   5.642   3.087  12.991 -1.2903 -1.5615 -0.9376
12346TIP3    H258530   5.743   3.138  12.890  0.4920 -0.6396  1.2584
12347TIP3   OH258531   4.485   2.678  12.815 -0.2742 -0.1308  0.4765
12347TIP3    H158532   4.393   2.670  12.841 -0.9184  0.3768 -1.5542
12347TIP3    H258533   4.506   2.770  12.832 -0.4102 -0.0299  0.0996
12348TIP3   OH258534   0.275   4.983  12.861 -0.0810 -0.4194  0.2436
12348TIP3    H158535   0.263   4.986  12.766  1.2194 -0.0371  0.0869
12348TIP3    H258536   0.346   4.921  12.874  0.5224  0.3987  0.8932
12349TIP3   OH258537   6.054   0.783  14.394  0.0389  0.5171  0.5737
12349TIP3    H158538   6.068   0.850  14.462  2.0160 -0.2167  0.9415
12349TIP3    H258539   6.138   0.779  14.348  0.6291 -3.0173  1.7898
12350TIP3   OH258540   4.817   0.323  13.273 -0.4238 -0.1216 -0.1600
12350TIP3    H158541   4.856   0.402  13.311 -0.1006 -0.6085  0.5247
12350TIP3    H258542   4.891   0.277  13.232 -0.6197 -0.0514 -0.6028
12351TIP3   OH258543   2.252   0.695  14.331 -0.3372 -0.3608 -0.3642
12351TIP3    H158544   2.286   0.627  14.274  1.1805 -0.5440  0.7318
12351TIP3    H258545   2.274   0.666  14.419  1.8342  2.3059  0.0407
12352TIP3   OH258546   5.478   6.678  17.084 -0.3561  0.0856 -0.2830
12352TIP3    H158547   5.446   6.743  17.146 -2.1930 -0.4599 -0.6190
12352TIP3    H258548   5.554   6.638  17.127 -0.8861  0.5325  1.0888
12353TIP3   OH258549   3.761   2.661   4.736  0.4963  0.5032 -0.0287
12353TIP3    H158550   3.840   2.700   4.773  0.3357  0.0720  0.7593
12353TIP3    H258551   3.738   2.719   4.662  0.8904  1.2684  0.4477
12354TIP3   OH258552   4.191   1.069  16.912  0.3566  0.1594  0.0778
12354TIP3    H158553   4.222   1.087  17.001 -1.3762  0.9739  0.5446
12354TIP3    H258554   4.155   1.153  16.883  1.2805  0.0062 -1.5610
12355TIP3   OH258555   0.512   1.856  10.832  0.5161 -0.0872  0.1767
12355TIP3    H158556   0.470   1.775  10.802  0.1660 -0.0844  0.6583
12355TIP3    H258557   0.479   1.924  10.773 -1.7444  0.2705  1.8087
12356TIP3   OH258558   6.760   5.071   0.717 -0.1889 -0.0199 -0.2389
12356TIP3    H158559   6.829   5.038   0.660 -0.1946  1.5154 -1.1536
12356TIP3    H258560   6.715   5.138   0.665 -0.9885  0.5314  1.1232
12357TIP3   OH258561   5.324   6.287  14.374  0.1655 -0.3769  0.0888
12357TIP3    H158562   5.408   6.242  14.364  1.3818  1.9905 -0.7895
12357TIP3    H258563   5.320   6.345  14.298 -2.5653 -0.9039 -0.2087
12358TIP3   OH258564   0.875   4.355  12.108  0.1893 -0.2422 -0.1163
12358TIP3    H158565   0.872   4.331  12.016  0.3298  1.5640 -0.6064
12358TIP3    H258566   0.786   4.338  12.141 -0.2463  0.4163 -0.9340
12359TIP3   OH258567   1.443   6.181   2.353 -0.0318 -0.1965  0.3959
12359TIP3    H158568   1.403   6.096   2.339  0.1040 -0.1538 -0.2538
12359TIP3    H258569   1.376   6.232   2.400 -0.8945  0.0049 -1.0295
12360TIP3   OH258570   5.758   6.042   5.894  0.1882  0.4147 -0.5017
12360TIP3    H158571   5.802   6.032   5.979 -1.0308  2.7675  0.4510
12360TIP3    H258572   5.704   6.120   5.904 -3.6294 -1.9332 -1.9126
12361TIP3   OH258573   2.084   3.852  16.881 -0.6604 -0.5040  0.0192
12361TIP3    H158574   2.114   3.873  16.969 -0.1346 -0.7624 -0.0970
12361TIP3    H258575   2.001   3.898  16.873  0.1025  0.9170  0.0380
12362TIP3   OH258576   1.145   5.875   0.936  0.4687  0.4789  0.4244
12362TIP3    H158577   1.133   5.967   0.913  1.1475  0.0014 -1.9791
12362TIP3    H258578   1.057   5.837   0.930  0.1569  0.9848  1.5984
12363TIP3   OH258579   6.446   5.056   3.098  0.0833  0.0835 -0.4232
12363TIP3    H158580   6.437   5.020   3.186  0.1155  0.0871 -0.4185
12363TIP3    H258581   6.525   5.015   3.063  1.5058  1.9816  0.4879
12364TIP3   OH258582   3.809   0.137  14.422  0.5364 -0.1957 -0.1955
12364TIP3    H158583   3.874   0.162  14.357  0.9151 -2.2327 -0.6275
12364TIP3    H258584   3.854   0.074  14.478 -1.0166 -1.5571 -0.4408
12365TIP3   OH258585   0.929   1.435  14.017  0.0548 -0.5105  0.3538
12365TIP3    H158586   0.937   1.387  14.099 -1.6365  1.2029  1.5885
12365TIP3    H258587   0.845   1.481  14.025 -0.3196 -0.6290 -2.5148
12366TIP3   OH258588   2.604   1.550   4.330 -0.1372 -0.0093 -0.0469
12366TIP3    H158589   2.607   1.609   4.255 -0.5133 -0.2242 -0.2345
12366TIP3    H258590   2.691   1.554   4.369  0.6008 -1.2426 -1.5290
12367TIP3   OH258591   1.297   1.535   5.505 -0.1300  0.2434 -0.3561
12367TIP3    H158592   1.223   1.594   5.508 -0.5881 -0.3878  1.4426
12367TIP3    H258593   1.273   1.469   5.440 -1.5451 -0.4508  0.8387
12368TIP3   OH258594   4.413   2.430  15.577  0.1047  0.2891 -0.1688
12368TIP3    H158595   4.349   2.386  15.631 -0.0426  1.0878  0.3191
12368TIP3    H258596   4.472   2.361  15.547 -2.0681 -0.7472 -2.1957
12369TIP3   OH258597   5.595   2.417   3.060 -0.3823  0.7978 -0.1630
12369TIP3    H158598   5.566   2.381   3.144  1.5208 -2.9136 -0.9906
12369TIP3    H258599   5.520   2.405   3.001 -1.1219  1.8617  0.5353
12370TIP3   OH258600   6.504   0.488   6.123  0.2119 -0.6370  0.2077
12370TIP3    H158601   6.469   0.401   6.105 -0.1676 -0.3147 -0.6488
12370TIP3    H258602   6.598   0.480   6.107  0.2642 -1.0317  0.6928
12371TIP3   OH258603   3.314   5.708  14.590 -0.1953  1.0300  0.4107
12371TIP3    H158604   3.221   5.689  14.575  0.1641 -0.0816 -0.4368
12371TIP3    H258605   3.343   5.640  14.650 -0.0707  1.7478  1.1751
12372TIP3   OH258606   2.573   2.877  14.157  0.7390  0.1970  0.0451
12372TIP3    H158607   2.649   2.863  14.100 -0.7187 -3.0589 -1.2186
12372TIP3    H258608   2.511   2.926  14.103  0.5721 -0.2292 -0.1565
12373TIP3   OH258609   6.432   1.585   5.724  0.5322  0.4185  0.0281
12373TIP3    H158610   6.365   1.647   5.695  1.6021  1.0929 -1.0688
12373TIP3    H258611   6.410   1.566   5.815 -2.4184 -1.0751 -0.9526
12374TIP3   OH258612   5.747   5.986  12.010  0.3125  0.7425  0.4777
12374TIP3    H158613   5.674   6.043  12.030  0.6130  0.7479  1.5926
12374TIP3    H258614   5.811   6.042  11.966 -0.9558  0.4034 -1.8370
12375TIP3   OH258615   3.948   0.564  13.721 -0.0319  0.5988 -0.4242
12375TIP3    H158616   3.878   0.556  13.785 -0.3922 -1.4516 -1.0372
12375TIP3    H258617   4.007   0.629  13.758 -1.7586  1.6559  0.5500
12376TIP3   OH258618   0.231   2.229   0.520  0.3596  0.2294  0.2637
12376TIP3    H158619   0.278   2.243   0.438 -0.2619 -0.6593 -0.2438
12376TIP3    H258620   0.198   2.139   0.515  0.3389  0.1569  1.4947
12377TIP3   OH258621   0.837   1.170  17.112  0.2373  0.0308 -0.1703
12377TIP3    H158622   0.842   1.074  17.116 -0.9794  0.0178  1.3151
12377TIP3    H258623   0.927   1.198  17.101  0.6081 -1.2935 -0.6224
12378TIP3   OH258624   2.132   1.737   5.445  0.2114 -0.3067  0.0840
12378TIP3    H158625   2.066   1.795   5.408  1.2146 -0.2786 -1.7540
12378TIP3    H258626   2.091   1.650   5.443 -0.7452  0.0993  1.4681
12379TIP3   OH258627   6.536   5.089   2.264 -0.2443  0.3809 -0.6477
12379TIP3    H158628   6.571   5.092   2.353 -0.6118 -1.0180 -0.4418
12379TIP3    H258629   6.541   4.997   2.239 -1.9888  0.4338 -1.3201
12380TIP3   OH258630   4.143   1.089  14.754 -0.3896 -1.0777 -0.4186
12380TIP3    H158631   4.120   1.146  14.681 -0.8868 -0.4971  0.1830
12380TIP3    H258632   4.085   1.116  14.825  1.5707 -0.1230  0.8761
12381TIP3   OH258633   2.528   2.264   1.522  0.5900  0.0302 -0.0548
12381TIP3    H158634   2.508   2.248   1.429  1.9298  0.0237 -0.3535
12381TIP3    H258635   2.589   2.337   1.521  1.6951 -0.8715  0.7388
12382TIP3   OH258636   1.677   5.070  15.074 -0.0927  0.1450  0.0891
12382TIP3    H158637   1.595   5.047  15.029 -0.5463  0.9782  0.4635
12382TIP3    H258638   1.698   5.157  15.041  2.0527 -1.0786 -1.9465
12383TIP3   OH258639   3.868   5.487   5.535  0.1347  0.4374 -0.1689
12383TIP3    H158640   3.948   5.499   5.484  0.5019  1.2731  0.6166
12383TIP3    H258641   3.874   5.397   5.567  1.1114  0.7330  0.5001
12384TIP3   OH258642   4.567   1.469  17.008 -0.3685 -0.3369 -0.2241
12384TIP3    H158643   4.528   1.483  16.921  0.7320  2.0188 -0.3836
12384TIP3    H258644   4.656   1.437  16.989 -0.5106 -0.9281  0.0748
12385TIP3   OH258645   5.329   1.559  15.480  0.1368  0.3330  0.2551
12385TIP3    H158646   5.398   1.523  15.536  0.8533  1.4249  0.0858
12385TIP3    H258647   5.267   1.599  15.541 -0.4711 -0.8482  0.4212
12386TIP3   OH258648   4.389   4.763  11.731 -0.1541 -0.6685  0.1850
12386TIP3    H158649   4.387   4.836  11.669 -0.0589 -1.3332 -0.6085
12386TIP3    H258650   4.318   4.782  11.793  1.5963  1.4871  1.6079
12387TIP3   OH258651   0.116   4.136   1.276 -0.0342  0.0102 -0.9048
12387TIP3    H158652   0.124   4.230   1.262 -2.2354 -0.2264 -4.3380
12387TIP3    H258653   0.198   4.099   1.245  0.6915  0.7420  0.1152
12388TIP3   OH258654   0.936   1.507   3.896  0.4103  0.0678 -0.1876
12388TIP3    H158655   1.007   1.446   3.918 -0.9420 -0.9575  1.3863
12388TIP3    H258656   0.908   1.543   3.980 -0.8815  0.5520 -0.8085
12389TIP3   OH258657   3.421   1.574  12.349 -0.0866  0.2806 -0.0772
12389TIP3    H158658   3.373   1.504  12.393 -0.7563 -0.7127 -2.3103
12389TIP3    H258659   3.366   1.651  12.360  0.1683  0.2527  1.5380
12390TIP3   OH258660   0.569   3.747   2.090  0.0452 -0.2817  0.3904
12390TIP3    H158661   0.575   3.674   2.028  0.7358  0.7460 -0.7804
12390TIP3    H258662   0.647   3.800   2.072  0.8365 -0.5257  2.8939
12391TIP3   OH258663   4.414   4.629   0.307 -0.5929  0.4304 -0.5117
12391TIP3    H158664   4.394   4.703   0.364  0.8568  0.4352  0.0116
12391TIP3    H258665   4.401   4.552   0.362  0.5951  0.4252 -0.2342
12392TIP3   OH258666   3.116   1.609  16.648 -0.1020 -0.2991  0.1699
12392TIP3    H158667   3.082   1.525  16.678 -0.8908  0.1404  0.5073
12392TIP3    H258668   3.196   1.623  16.700  0.2999 -1.0585 -0.2267
12393TIP3   OH258669   3.807   0.004  15.685  0.2785 -0.4803 -0.2553
12393TIP3    H158670   3.858  -0.076  15.701  2.1945  0.9706  0.9477
12393TIP3    H258671   3.870   0.067  15.651 -0.1251  2.1485  3.5837
12394TIP3   OH258672   2.226   1.252   5.840 -0.3272  0.3338  0.5653
12394TIP3    H158673   2.310   1.241   5.884 -0.4377  1.3571  1.0687
12394TIP3    H258674   2.234   1.337   5.796 -0.3879 -0.4713 -1.0116
12395TIP3   OH258675   3.577   6.567  12.107  0.1701 -0.0570 -0.8079
12395TIP3    H158676   3.502   6.507  12.102  0.4711 -0.4742 -0.3332
12395TIP3    H258677   3.639   6.522  12.164  0.6890  0.3931 -1.0230
12396TIP3   OH258678   5.663   5.164  15.373 -0.0003 -0.8077 -0.4656
12396TIP3    H158679   5.746   5.166  15.420 -0.2290 -1.3620 -0.0265
12396TIP3    H258680   5.640   5.256  15.360  0.4714 -0.6552 -0.2135
12397TIP3   OH258681   6.810   5.893  12.012 -0.8437  0.9139  0.6608
12397TIP3    H158682   6.720   5.861  12.015 -0.4235 -0.6219 -1.5426
12397TIP3    H258683   6.854   5.848  12.084 -1.7290  1.3683  1.5012
12398TIP3   OH258684   0.692   4.145  12.599  0.2636 -0.2267 -0.2045
12398TIP3    H158685   0.643   4.153  12.518 -2.2440  2.8010  1.5139
12398TIP3    H258686   0.716   4.235  12.622  0.9671 -1.0246  2.3762
12399TIP3   OH258687   5.666   6.698   2.648  0.3069  0.4038  0.8335
12399TIP3    H158688   5.748   6.677   2.603 -0.3157 -0.1514 -0.0635
12399TIP3    H258689   5.664   6.793   2.651  0.3397  0.4439 -0.3415
12400TIP3   OH258690   3.785   2.681  10.975 -0.2624  0.2802  0.2696
12400TIP3    H158691   3.870   2.710  10.943 -1.3735  2.2043 -1.1003
12400TIP3    H258692   3.743   2.639  10.900 -1.0958  0.7033  0.4818
12401TIP3   OH258693   0.895   0.325   2.613  0.0964  0.0018 -0.3871
12401TIP3    H158694   0.918   0.296   2.701  2.0800  2.9397  0.1273
12401TIP3    H258695   0.975   0.314   2.562 -0.5528 -0.0890 -1.4165
12402TIP3   OH258696   6.685   6.614  15.377 -0.2142 -0.2600  0.9099
12402TIP3    H158697   6.762   6.563  15.400 -0.3891 -0.6785  0.5838
12402TIP3    H258698   6.706   6.703  15.403  2.2554  0.5520 -3.2975
12403TIP3   OH258699   1.390   2.737   2.479 -0.8856  0.0581  0.2143
12403TIP3    H158700   1.353   2.733   2.568 -0.0983  0.9337  0.5842
12403TIP3    H258701   1.451   2.663   2.476 -1.0399 -0.0770  0.3408
12404TIP3   OH258702   1.772   0.591   3.028  0.0421 -0.4237  0.3671
12404TIP3    H158703   1.816   0.592   3.113  0.8065 -0.0428 -0.0275
12404TIP3    H258704   1.703   0.657   3.035  0.9230  0.5163  0.2656
12405TIP3   OH258705   2.704   3.809  14.539 -0.0484 -0.2407 -0.5398
12405TIP3    H158706   2.677   3.822  14.448 -1.4322 -0.7075 -0.2092
12405TIP3    H258707   2.703   3.897  14.576  0.5942 -0.0372 -0.9824
12406TIP3   OH258708   2.140   2.984  11.380  0.1329  0.4094  0.5390
12406TIP3    H158709   2.146   2.903  11.330  0.3730 -0.8423  2.5349
12406TIP3    H258710   2.054   3.019  11.359  0.3675  0.1061 -1.0084
12407TIP3   OH258711   2.242   4.244  13.891 -0.6264  0.1522 -0.1374
12407TIP3    H158712   2.319   4.228  13.838 -1.2761  2.1202 -1.7481
12407TIP3    H258713   2.171   4.197  13.846 -1.2449  2.1043 -1.2475
12408TIP3   OH258714   1.247   5.513   1.026  0.1658  0.0006 -0.2223
12408TIP3    H158715   1.325   5.490   0.975 -0.2021 -1.3538 -0.1732
12408TIP3    H258716   1.281   5.563   1.100  0.9676 -0.3660 -0.3366
12409TIP3   OH258717   0.917   2.143   4.557 -0.0771  0.0849 -0.0977
12409TIP3    H158718   0.939   2.052   4.575 -2.1915 -0.4546 -0.0424
12409TIP3    H258719   0.821   2.146   4.564 -0.1114  2.0962 -1.0630
12410TIP3   OH258720   6.722   4.434  13.539  0.0301 -0.0357  0.6723
12410TIP3    H158721   6.731   4.520  13.579 -0.3084  1.3526 -2.0802
12410TIP3    H258722   6.627   4.421  13.531  0.0846 -0.5120  0.7905
12411TIP3   OH258723   6.100   3.404   1.704 -0.2554  0.8777 -0.3696
12411TIP3    H158724   6.132   3.447   1.625 -0.5577 -0.9310 -1.5027
12411TIP3    H258725   6.166   3.424   1.771  2.1987 -0.9742 -2.1217
12412TIP3   OH258726   5.592   1.049   1.088  0.0094 -0.0854 -0.4338
12412TIP3    H158727   5.650   0.979   1.059  2.1102  0.7571  1.4823
12412TIP3    H258728   5.504   1.014   1.077  0.9757 -2.6159 -0.5494
12413TIP3   OH258729   1.854   5.901   5.159 -0.1166 -0.2905 -0.5280
12413TIP3    H158730   1.850   5.821   5.106 -1.1220 -0.7905  0.2868
12413TIP3    H258731   1.946   5.909   5.183 -0.0443 -1.3658 -0.3968
12414TIP3   OH258732   5.085   0.247   5.465  0.6006  0.3491 -0.0429
12414TIP3    H158733   5.092   0.287   5.378 -1.5791 -0.7265 -0.7325
12414TIP3    H258734   5.039   0.312   5.518 -1.3976 -0.4854 -0.7078
12415TIP3   OH258735   1.489   5.946  13.436  0.2584 -0.4413  0.6243
12415TIP3    H158736   1.446   5.868  13.400 -0.2035  0.1666 -0.1592
12415TIP3    H258737   1.434   6.019  13.408  1.4263  0.2928  0.1679
12416TIP3   OH258738   5.579   6.007  13.233 -0.2932  0.0296 -0.1417
12416TIP3    H158739   5.672   6.006  13.209  0.2539 -0.8650  1.9631
12416TIP3    H258740   5.558   6.100  13.245  0.4654  0.1956 -0.0866
12417TIP3   OH258741   4.410   1.571  15.867 -0.1054 -0.2688  0.2026
12417TIP3    H158742   4.390   1.651  15.820  0.9103 -0.2798 -0.2635
12417TIP3    H258743   4.499   1.583  15.900  0.8327 -2.0016 -1.6086
12418TIP3   OH258744   1.692   6.026  13.692 -0.1974 -0.0468  0.3546
12418TIP3    H158745   1.711   6.120  13.694  2.0333 -0.4537 -0.2132
12418TIP3    H258746   1.630   6.016  13.620  0.1187  0.8993 -0.0586
12419TIP3   OH258747   3.929   1.476   6.255  0.3228  0.7215  0.0445
12419TIP3    H158748   3.922   1.535   6.330  2.1257  1.6235 -0.4903
12419TIP3    H258749   4.015   1.435   6.264  0.4920  0.7268 -1.4513
12420TIP3   OH258750   1.220   4.703  15.187  0.3762 -0.1244 -0.6250
12420TIP3    H158751   1.247   4.774  15.245  1.1438  1.6392 -3.0564
12420TIP3    H258752   1.124   4.706  15.188  0.4068  1.2219 -1.0178
12421TIP3   OH258753   1.773   3.927  16.928 -0.5414 -0.0441  0.2801
12421TIP3    H158754   1.766   3.846  16.877 -1.8517  0.7280 -0.7743
12421TIP3    H258755   1.739   3.904  17.014  1.7605 -1.3760  0.8745
12422TIP3   OH258756   0.846   1.713   0.187  0.0742 -0.3555  0.7717
12422TIP3    H158757   0.766   1.714   0.135 -1.1111  2.8885  2.5422
12422TIP3    H258758   0.825   1.662   0.265  0.1702 -0.6476  0.6082
12423TIP3   OH258759   3.182   3.420   5.002 -0.4035 -0.0102 -0.2180
12423TIP3    H158760   3.137   3.359   5.060  2.6749 -0.0686  2.1998
12423TIP3    H258761   3.188   3.501   5.052  2.5126 -0.1329 -0.3137
12424TIP3   OH258762   1.523   2.336   4.721 -0.4133  0.3850  0.4115
12424TIP3    H158763   1.593   2.351   4.657  0.0556  0.7451  1.0021
12424TIP3    H258764   1.476   2.260   4.688  0.3677  0.0385  0.0869
12425TIP3   OH258765   2.775   1.171  15.374  0.3762  0.1682  0.0375
12425TIP3    H158766   2.732   1.086  15.381  0.8421 -0.1012 -0.3237
12425TIP3    H258767   2.826   1.166  15.293 -0.0269  0.9880 -0.2705
12426TIP3   OH258768   1.945   2.545  16.329  0.2240 -0.0089  0.4675
12426TIP3    H158769   2.020   2.487  16.317  0.5106  0.1509  1.4265
12426TIP3    H258770   1.954   2.611  16.260  1.1475  0.1976  0.7861
12427TIP3   OH258771   1.438   2.733  11.623  0.2293 -0.0284  0.4726
12427TIP3    H158772   1.430   2.766  11.534  0.9835 -0.8784  0.0887
12427TIP3    H258773   1.423   2.810  11.678 -0.8556  0.3779 -0.3632
12428TIP3   OH258774   5.393   3.671  15.491 -0.4263  0.0353 -0.1256
12428TIP3    H158775   5.427   3.603  15.548  0.0076  0.3744  0.0216
12428TIP3    H258776   5.454   3.744  15.501 -1.8628  1.1085  1.1189
12429TIP3   OH258777   3.496   5.006  10.854 -0.0638 -0.4794 -0.5010
12429TIP3    H158778   3.499   5.101  10.839 -0.1639 -0.6767 -1.8427
12429TIP3    H258779   3.568   4.972  10.800  0.8149 -1.0412  1.0036
12430TIP3   OH258780   0.290   2.348  11.078  0.1900 -0.7279 -0.5587
12430TIP3    H158781   0.235   2.283  11.034 -1.7931  0.2728  0.3905
12430TIP3    H258782   0.276   2.332  11.171 -1.6246  2.0733 -0.2892
12431TIP3   OH258783   3.250   5.912  16.691  0.3088  0.4278  0.1024
12431TIP3    H158784   3.241   5.879  16.781  1.3412 -0.1768 -0.0113
12431TIP3    H258785   3.310   5.851  16.649 -0.6805  0.3350 -1.2011
12432TIP3   OH258786   1.068   4.830   0.448  0.5422 -0.1990 -0.4202
12432TIP3    H158787   1.056   4.817   0.542 -0.1826 -1.1151 -0.6379
12432TIP3    H258788   0.979   4.838   0.413  0.8436  2.1415 -0.7630
12433TIP3   OH258789   5.569   4.193   4.557  0.1822  0.0108 -0.4271
12433TIP3    H158790   5.659   4.190   4.589  0.6575  2.6047 -1.4206
12433TIP3    H258791   5.567   4.129   4.486  1.4590  0.4318 -0.8621
12434TIP3   OH258792   4.150   4.575   2.698 -0.0137  0.7357  0.2188
12434TIP3    H158793   4.107   4.548   2.779  0.0325 -0.3055 -0.0972
12434TIP3    H258794   4.085   4.560   2.629  0.4097  0.3655 -0.1030
12435TIP3   OH258795   1.001   0.637  14.824 -0.0870  0.3342 -0.3394
12435TIP3    H158796   0.992   0.665  14.733 -2.1046  1.7569  0.2542
12435TIP3    H258797   0.998   0.719  14.874 -1.1189 -0.5855  1.1256
12436TIP3   OH258798   2.621   6.440  16.328 -0.0959 -0.0010  0.3916
12436TIP3    H158799   2.663   6.405  16.407  2.2897  0.8091 -0.4647
12436TIP3    H258800   2.634   6.372  16.262  0.8153  0.6834 -0.1519
12437TIP3   OH258801   4.976   0.639   3.016  0.1526  0.1898 -0.4027
12437TIP3    H158802   5.069   0.630   3.039 -0.0921 -0.7061  0.2618
12437TIP3    H258803   4.967   0.588   2.935  0.2922  0.5101 -0.6231
12438TIP3   OH258804   6.796   1.095  11.623  0.7400  0.3412 -0.4487
12438TIP3    H158805   6.880   1.140  11.611  1.0508 -0.2303 -0.4620
12438TIP3    H258806   6.820   1.011  11.663  0.2035  0.0452 -0.7446
12439TIP3   OH258807   4.866   3.720  11.700 -0.0669  0.4809  0.1975
12439TIP3    H158808   4.872   3.669  11.781  1.0055  1.4638  0.7420
12439TIP3    H258809   4.942   3.777  11.702  0.0214  0.4509 -1.5580
12440TIP3   OH258810   6.100   1.344   3.310 -0.0455 -0.1905 -0.1843
12440TIP3    H158811   6.073   1.257   3.281 -1.4628  0.4400 -0.8304
12440TIP3    H258812   6.134   1.331   3.398 -0.1079 -1.4162 -0.3338
12441TIP3   OH258813   6.159   5.410   2.938  0.4456  0.5614  0.2648
12441TIP3    H158814   6.079   5.439   2.982 -0.2839 -0.4076 -0.3883
12441TIP3    H258815   6.211   5.368   3.006  1.0518  2.4880  0.9956
12442TIP3   OH258816   0.686   0.009  12.220 -0.2876 -0.0285  0.3825
12442TIP3    H158817   0.695  -0.055  12.149  0.0691 -0.0417  0.4415
12442TIP3    H258818   0.775   0.022  12.253 -0.6005 -0.9659  1.6554
12443TIP3   OH258819   5.438   1.050  15.627  0.0565 -0.6564 -0.1946
12443TIP3    H158820   5.402   0.996  15.697  2.2147  1.6942  2.8573
12443TIP3    H258821   5.371   1.116  15.611 -0.1822 -0.8178  0.1251
12444TIP3   OH258822   6.741   3.163  13.454  0.5995  0.1636 -0.0287
12444TIP3    H158823   6.716   3.255  13.457  0.6365  0.2777 -2.5137
12444TIP3    H258824   6.835   3.164  13.434  0.6589 -0.4168  0.1979
12445TIP3   OH258825   5.942   5.170  15.575 -0.1109 -0.0713 -0.0482
12445TIP3    H158826   5.961   5.157  15.668 -2.6570 -0.6508  0.4107
12445TIP3    H258827   5.915   5.261  15.568 -0.4928 -0.1886 -0.1140
12446TIP3   OH258828   3.746   4.954  10.245  0.6392 -0.8488  0.3381
12446TIP3    H158829   3.831   4.910  10.250  0.3425 -1.3548  1.0467
12446TIP3    H258830   3.708   4.942  10.332  0.5144  0.7361  0.5184
12447TIP3   OH258831   5.107   0.515   0.640 -0.2571 -0.4460 -0.4833
12447TIP3    H158832   5.134   0.444   0.582 -1.0820 -1.2367  0.0863
12447TIP3    H258833   5.188   0.545   0.681  0.1956 -0.5449 -1.3004
12448TIP3   OH258834   1.344   0.694   3.146 -0.2805  0.2808  0.9702
12448TIP3    H158835   1.433   0.728   3.140  0.6993 -1.8572  2.5844
12448TIP3    H258836   1.338   0.658   3.235 -1.2210 -3.6479 -0.5705
12449TIP3   OH258837   4.406   4.471  16.521 -0.2594  0.4775  0.1783
12449TIP3    H158838   4.383   4.540  16.583 -1.0239 -0.3981  0.8937
12449TIP3    H258839   4.420   4.394  16.576 -1.7338 -0.5128 -0.7796
12450TIP3   OH258840   5.246   1.033  16.593  0.3322  0.0284  0.1588
12450TIP3    H158841   5.316   0.970  16.582  0.1259 -0.1043 -0.3901
12450TIP3    H258842   5.179   1.007  16.530 -0.1368  0.2562  0.5546
12451TIP3   OH258843   4.714   4.151   0.924 -0.0665  0.3950  0.0381
12451TIP3    H158844   4.683   4.075   0.875  0.4446  1.5801 -2.2316
12451TIP3    H258845   4.635   4.194   0.954 -0.3673 -0.8065  0.9763
12452TIP3   OH258846   5.548   2.924   3.409 -0.0520 -0.4664 -0.4188
12452TIP3    H158847   5.522   2.968   3.328 -0.5128  0.0193 -0.0144
12452TIP3    H258848   5.641   2.904   3.396 -0.0442 -0.1150 -0.9467
12453TIP3   OH258849   5.324   0.578   3.062 -0.6246 -0.0891  0.4015
12453TIP3    H158850   5.371   0.639   3.005 -0.5408  0.2920  0.8739
12453TIP3    H258851   5.325   0.620   3.148 -0.8150 -0.6267  0.6685
12454TIP3   OH258852   6.015   1.467   3.834  0.5139 -0.6089  0.4882
12454TIP3    H158853   6.062   1.429   3.909  0.5319 -1.0647  0.2502
12454TIP3    H258854   5.945   1.405   3.817 -0.8361  0.6081  1.5169
12455TIP3   OH258855   3.326   1.175   5.136  0.8540 -0.3172  0.5057
12455TIP3    H158856   3.297   1.124   5.061  2.0665 -2.3837  1.3748
12455TIP3    H258857   3.246   1.193   5.186 -0.0935  1.9135 -1.7174
12456TIP3   OH258858   1.468   4.151  11.067  0.1998  0.1166  0.2855
12456TIP3    H158859   1.381   4.176  11.036  0.2714 -0.1365 -0.1223
12456TIP3    H258860   1.468   4.055  11.064  0.4857  0.1153  0.3099
12457TIP3   OH258861   2.189   1.112   2.919 -0.1272  0.4590  0.0880
12457TIP3    H158862   2.121   1.051   2.889 -0.4173  0.8373 -0.0274
12457TIP3    H258863   2.271   1.066   2.903 -0.3545 -0.0045  0.2295
12458TIP3   OH258864   0.034   1.857  12.425  0.2240 -0.0822  0.9069
12458TIP3    H158865   0.021   1.903  12.508 -0.8201  1.3978 -0.0393
12458TIP3    H258866  -0.032   1.894  12.366  0.8468 -1.1999 -0.5473
12459TIP3   OH258867   1.098   0.420  15.016  0.5150 -0.0687  0.5893
12459TIP3    H158868   1.054   0.458  15.092 -1.4833 -0.3184 -0.4124
12459TIP3    H258869   1.114   0.495  14.958  0.6424 -0.1023  0.5804
12460TIP3   OH258870   4.246   1.633   0.570  0.5846  0.4117 -0.4937
12460TIP3    H158871   4.296   1.704   0.531  0.9803 -0.0660 -0.8679
12460TIP3    H258872   4.290   1.616   0.654  0.7311  0.3439 -0.5842
12461TIP3   OH258873   1.020   0.686   0.432 -0.2775  0.2118 -0.2909
12461TIP3    H158874   0.942   0.698   0.378  0.9613  0.7359 -2.0273
12461TIP3    H258875   1.034   0.772   0.473 -0.8469 -0.0035  0.3640
12462TIP3   OH258876   4.313   3.231   4.394 -0.0283 -0.3656  0.3912
12462TIP3    H158877   4.303   3.273   4.480  1.2103 -0.1711  0.4415
12462TIP3    H258878   4.246   3.272   4.340  1.2149  1.7621  0.4106
12463TIP3   OH258879   3.088   4.982  11.765  0.3460 -0.2560  0.4321
12463TIP3    H158880   3.170   4.952  11.724  1.4803  0.9574  1.7683
12463TIP3    H258881   3.051   5.044  11.702  1.1685  0.2483  0.4378
12464TIP3   OH258882   2.190   6.800  16.005  0.6180 -0.2575 -0.0185
12464TIP3    H158883   2.114   6.842  15.966  0.1005 -0.1262  1.1062
12464TIP3    H258884   2.256   6.798  15.935 -0.0865  0.4870 -0.7040
12465TIP3   OH258885   0.944   1.180  11.219  0.0822 -0.6505 -1.0315
12465TIP3    H158886   0.922   1.112  11.156 -0.8346  0.0328 -1.4661
12465TIP3    H258887   0.904   1.260  11.183 -0.7838 -0.3213  0.6041
12466TIP3   OH258888   5.313   3.781  12.243 -0.1436  0.1414  0.3025
12466TIP3    H158889   5.340   3.756  12.155  1.7092 -0.6424  1.0533
12466TIP3    H258890   5.295   3.875  12.237  1.8258  0.4963 -0.4925
12467TIP3   OH258891   1.268   1.858   4.692  0.5927  0.2537  0.1809
12467TIP3    H158892   1.289   1.765   4.702  0.5195  0.2764  0.5683
12467TIP3    H258893   1.211   1.862   4.616  0.4404 -0.0440  0.2801
12468TIP3   OH258894   0.528   3.900   0.512 -0.0045 -0.1509 -0.5328
12468TIP3    H158895   0.449   3.904   0.457 -0.5933 -1.4370  0.2020
12468TIP3    H258896   0.596   3.869   0.452 -1.1470 -3.8123 -0.0632
12469TIP3   OH258897   1.304   5.650  10.602 -0.7463  0.4966  0.1290
12469TIP3    H158898   1.237   5.696  10.552 -0.6179  1.3538  0.7353
12469TIP3    H258899   1.387   5.686  10.569 -0.6407  0.5585  0.4586
12470TIP3   OH258900   5.955   1.702   5.258 -0.3024  0.7225 -0.5163
12470TIP3    H158901   5.888   1.669   5.317 -1.0004  1.6817 -0.7578
12470TIP3    H258902   6.036   1.660   5.287 -1.1259 -1.0402 -0.7080
12471TIP3   OH258903   5.929   2.782   5.058  0.0859 -0.5537  0.1041
12471TIP3    H158904   5.866   2.756   5.125 -0.5556  0.9656  0.1234
12471TIP3    H258905   5.918   2.877   5.051  2.0341 -0.3294 -0.2435
12472TIP3   OH258906   0.454   1.247   1.333  0.8122 -0.3295 -0.5742
12472TIP3    H158907   0.536   1.220   1.374  0.1877  0.4399  1.2152
12472TIP3    H258908   0.451   1.342   1.345  0.1240 -0.2275 -1.4979
12473TIP3   OH258909   2.279   5.545  12.538 -0.6856  0.2814  0.4528
12473TIP3    H158910   2.205   5.594  12.574 -0.7834 -0.4828  1.2907
12473TIP3    H258911   2.296   5.588  12.454 -1.1816  1.3563  0.8792
12474TIP3   OH258912   2.605   3.571   5.157 -0.5355  0.0975 -0.3221
12474TIP3    H158913   2.629   3.484   5.188  1.2419  0.3630 -0.9026
12474TIP3    H258914   2.678   3.597   5.101 -1.1283  1.8956 -0.2756
12475TIP3   OH258915   2.093   2.200   1.591 -0.0792 -0.6543  0.1609
12475TIP3    H158916   2.077   2.288   1.557 -0.1644 -0.9390 -0.5426
12475TIP3    H258917   2.014   2.151   1.569 -0.4326 -0.6522  1.4136
12476TIP3   OH258918   2.365   3.422  17.013 -0.4263  0.1101 -0.4722
12476TIP3    H158919   2.374   3.497  17.072 -1.1185 -0.6590  0.6296
12476TIP3    H258920   2.282   3.382  17.037  1.2272 -2.6585  0.9214
12477TIP3   OH258921   0.164   3.896   5.351 -0.2609  0.0124  0.0769
12477TIP3    H158922   0.183   3.962   5.285  0.8989 -0.7546 -0.3743
12477TIP3    H258923   0.069   3.881   5.343 -0.2715  0.5376 -0.8232
12478TIP3   OH258924   5.288   0.371  13.975 -0.2529  0.4876  0.8624
12478TIP3    H158925   5.364   0.428  13.988  0.6639  0.0583 -2.1218
12478TIP3    H258926   5.223   0.427  13.934 -1.0965  0.5320  2.2475
12479TIP3   OH258927   5.134   5.808  16.047  0.0487 -0.0107  0.2028
12479TIP3    H158928   5.071   5.820  15.976 -1.3385  0.7924  1.5243
12479TIP3    H258929   5.107   5.872  16.113  1.4597 -0.5715  1.3350
12480TIP3   OH258930   5.313   6.461  13.873 -0.4593  0.0602  0.0466
12480TIP3    H158931   5.382   6.523  13.897 -0.7936 -0.4039  2.3569
12480TIP3    H258932   5.323   6.449  13.779  1.3046  1.5753  0.0120
12481TIP3   OH258933   1.487   0.616   4.103 -0.0472  0.4453  0.4304
12481TIP3    H158934   1.505   0.691   4.047 -1.5646  0.6916  0.2583
12481TIP3    H258935   1.397   0.629   4.133  0.6030  0.1090  2.6027
12482TIP3   OH258936   5.702   6.254   3.460  0.5366 -0.0984 -0.2921
12482TIP3    H158937   5.626   6.252   3.518 -0.6112 -0.8849 -1.7662
12482TIP3    H258938   5.778   6.255   3.518 -0.6040  0.2389  1.2015
12483TIP3   OH258939   3.159   0.353  14.101  0.4749 -0.2437  0.0938
12483TIP3    H158940   3.207   0.271  14.113 -2.0928 -1.4973  2.2173
12483TIP3    H258941   3.197   0.413  14.165  0.2088 -0.7766  0.7555
12484TIP3   OH258942   0.943   2.598  16.366 -0.5746  0.1348 -0.2961
12484TIP3    H158943   0.918   2.593  16.458 -2.2339  1.0589 -0.6924
12484TIP3    H258944   1.011   2.665  16.363 -0.9806  0.5639  0.1502
12485TIP3   OH258945   3.797   2.314  16.657 -0.4856 -0.4351 -0.1531
12485TIP3    H158946   3.756   2.228  16.669 -0.0365 -0.6736 -0.3204
12485TIP3    H258947   3.760   2.368  16.727 -0.2757 -0.9449  0.3569
12486TIP3   OH258948   0.081   2.407  12.646  0.3349  0.9985 -0.1338
12486TIP3    H158949   0.025   2.337  12.679  0.7294  1.6102  1.8943
12486TIP3    H258950   0.121   2.370  12.567 -1.5254 -0.0804 -0.6007
12487TIP3   OH258951   0.016   2.979  11.160  0.3082  0.2026 -0.4796
12487TIP3    H158952   0.110   2.969  11.174  0.1650 -0.6431 -0.1467
12487TIP3    H258953  -0.025   2.932  11.232 -0.3958 -2.7621 -2.7402
12488TIP3   OH258954   4.686   3.320  14.946  0.4407 -0.0659 -0.3361
12488TIP3    H158955   4.758   3.376  14.976  0.0073 -0.5971  1.7843
12488TIP3    H258956   4.712   3.294  14.857  2.6764  0.0747  0.2316
12489TIP3   OH258957   6.808   1.412   2.232 -0.0199  0.3403 -0.3598
12489TIP3    H158958   6.720   1.447   2.222 -0.8216 -1.7749 -1.0883
12489TIP3    H258959   6.847   1.463   2.303 -1.4193  2.0703 -0.8133
12490TIP3   OH258960   5.797   4.474   3.099  0.1333  0.1783 -0.6835
12490TIP3    H158961   5.857   4.526   3.152  0.6183  0.0796 -1.1350
12490TIP3    H258962   5.836   4.473   3.012 -0.6178  0.2617 -1.0215
12491TIP3   OH258963   1.576   0.158  16.888  0.5729 -0.2480  0.6588
12491TIP3    H158964   1.650   0.200  16.932 -0.4074  0.8084  1.3285
12491TIP3    H258965   1.544   0.224  16.827 -0.3821 -0.3684  1.0197
12492TIP3   OH258966   0.841   3.696   5.858 -0.2649  0.0631 -0.0336
12492TIP3    H158967   0.827   3.627   5.792 -0.9762  0.0810  0.0911
12492TIP3    H258968   0.784   3.767   5.830 -0.6438  0.0313  0.6544
12493TIP3   OH258969   1.593   4.645  12.250  0.0875  0.3530  0.1429
12493TIP3    H158970   1.606   4.622  12.158  1.5793 -0.2074  0.4875
12493TIP3    H258971   1.595   4.741  12.251  0.0105  0.3618 -0.4109
12494TIP3   OH258972   6.062   3.213   3.697 -0.0838  0.1841  0.6864
12494TIP3    H158973   6.020   3.131   3.672 -0.7244  0.5271  0.6446
12494TIP3    H258974   6.135   3.222   3.635 -1.1886  0.6328 -0.5757
12495TIP3   OH258975   1.503   5.787   2.588 -0.0379  0.2983 -0.1426
12495TIP3    H158976   1.456   5.853   2.638 -1.9709 -1.4143  0.3498
12495TIP3    H258977   1.576   5.761   2.645 -1.3138 -0.5060  1.1477
12496TIP3   OH258978   5.789   3.298   5.479 -0.2346  0.0656 -0.0414
12496TIP3    H158979   5.747   3.212   5.485  1.7064 -0.8869  0.0438
12496TIP3    H258980   5.826   3.313   5.566  0.5507  0.4195 -0.4380
12497TIP3   OH258981   5.418   1.992   2.867  0.0937  0.2618  0.2530
12497TIP3    H158982   5.338   2.035   2.836 -0.8852 -0.5934  1.5281
12497TIP3    H258983   5.387   1.922   2.924  1.7490 -0.4637  0.2981
12498TIP3   OH258984   6.369   6.261  16.506  0.1683 -0.2666 -0.1553
12498TIP3    H158985   6.285   6.215  16.515  0.0585  0.1755  1.3153
12498TIP3    H258986   6.433   6.193  16.488 -0.6734 -0.4902 -2.4261
12499TIP3   OH258987   3.687   2.751  12.145 -0.7082 -0.1424 -0.2145
12499TIP3    H158988   3.691   2.836  12.102 -0.8588 -0.4371 -0.8078
12499TIP3    H258989   3.600   2.750  12.186 -1.1300 -0.4506 -1.1153
12500TIP3   OH258990   5.257   1.432  16.950  0.1068 -0.1388 -0.1571
12500TIP3    H158991   5.255   1.508  17.008  0.6659 -0.8013  0.7469
12500TIP3    H258992   5.277   1.359  17.008  0.5199 -0.8303 -1.1663
12501TIP3   OH258993   5.204   1.392   5.717 -0.7476  0.1421 -0.2360
12501TIP3    H158994   5.285   1.437   5.740 -1.0993  0.2308  0.8518
12501TIP3    H258995   5.152   1.393   5.798 -0.4310 -2.9250  0.0736
12502TIP3   OH258996   3.126   5.735  11.742 -0.1810  0.4244 -0.2595
12502TIP3    H158997   3.107   5.781  11.824 -0.9783 -2.3252  1.1762
12502TIP3    H258998   3.059   5.767  11.681 -1.4743  0.3172  1.0564
12503TIP3   OH258999   1.379   6.712  12.075  0.3895 -0.0782 -0.1239
12503TIP3    H159000   1.292   6.717  12.116  0.9968  0.1134  1.1509
12503TIP3    H259001   1.364   6.663  11.994 -1.3458  2.0293 -1.1336
12504TIP3   OH259002   4.069   0.964   3.605  0.3092  0.0769  0.3485
12504TIP3    H159003   4.055   1.040   3.550 -1.1817 -0.2596  0.2266
12504TIP3    H259004   4.097   0.999   3.689  2.4157  0.5995 -0.5500
12505TIP3   OH259005   1.535   4.820  12.570  0.1211 -0.1890 -0.2474
12505TIP3    H159006   1.577   4.906  12.578  1.4056 -0.9243  1.3244
12505TIP3    H259007   1.448   4.832  12.609 -0.3153  0.7897 -1.4907
12506TIP3   OH259008   3.841   5.572  13.665 -0.1189 -0.3026  0.2179
12506TIP3    H159009   3.856   5.653  13.713  0.6172  0.4315 -1.2394
12506TIP3    H259010   3.923   5.524  13.672 -0.1694 -0.4084  0.0964
12507TIP3   OH259011   2.745   5.605  13.659 -0.6136  0.2219 -0.0862
12507TIP3    H159012   2.808   5.644  13.720  0.9239 -0.2072 -1.3794
12507TIP3    H259013   2.712   5.679  13.609 -1.2039  0.4566  0.6408
12508TIP3   OH259014   0.396   5.197  16.559  0.0237  0.9551  0.0559
12508TIP3    H159015   0.409   5.244  16.641  3.8309  1.5993 -0.7996
12508TIP3    H259016   0.334   5.251  16.510 -0.6692  1.6558  1.6831
12509TIP3   OH259017   0.035   2.245  14.167 -0.1670  0.3855 -0.0234
12509TIP3    H159018  -0.060   2.236  14.162  0.0098 -1.3973 -0.3464
12509TIP3    H259019   0.068   2.189  14.097  1.0919  2.0671 -0.8055
12510TIP3   OH259020   2.830   4.555   0.880  0.0626 -0.0367  0.3213
12510TIP3    H159021   2.795   4.630   0.833  1.6327  0.1497 -0.5602
12510TIP3    H259022   2.791   4.562   0.968  0.0494  1.6871  0.1882
12511TIP3   OH259023   3.847   0.391  16.551  0.3702 -0.1706 -0.1786
12511TIP3    H159024   3.898   0.412  16.472 -0.3819  2.2420 -0.0480
12511TIP3    H259025   3.800   0.311  16.527 -0.6385  1.0790 -2.5853
12512TIP3   OH259026   1.946   2.920  15.373 -0.3554 -0.3420  0.5111
12512TIP3    H159027   2.014   2.966  15.323 -0.2588 -1.5983 -0.5138
12512TIP3    H259028   1.991   2.889  15.452  0.1092 -0.6133  0.1386
12513TIP3   OH259029   6.811   2.526  14.713  0.1908 -0.5346  0.1752
12513TIP3    H159030   6.892   2.478  14.732  0.5174  0.3917  1.2038
12513TIP3    H259031   6.837   2.619  14.715 -0.8488 -0.2407  0.3044
12514TIP3   OH259032   5.472   0.616  13.786 -0.2764 -0.4143  0.3339
12514TIP3    H159033   5.493   0.584  13.698 -2.8992 -0.1108 -0.4649
12514TIP3    H259034   5.394   0.671  13.773 -1.4742 -1.3890  3.0119
12515TIP3   OH259035   1.190   5.570   6.505  0.1746  0.0665  0.2291
12515TIP3    H159036   1.253   5.519   6.454  1.2062  0.5017  1.0459
12515TIP3    H259037   1.162   5.512   6.575  0.2692  0.1339  0.3241
12516TIP3   OH259038   6.625   0.097  11.973 -0.2735 -0.0339 -0.0337
12516TIP3    H159039   6.675   0.020  11.998 -0.0552  0.1704  0.1607
12516TIP3    H259040   6.682   0.171  11.995 -1.2159  0.2621  1.4938
12517TIP3   OH259041   1.044   3.331   6.374  0.0000 -0.0641  0.1606
12517TIP3    H159042   1.072   3.396   6.438  0.3030 -1.1423  1.1516
12517TIP3    H259043   1.045   3.248   6.422 -0.5428 -0.7769 -1.0276
12518TIP3   OH259044   2.149   0.615   0.934  0.7676 -0.1185  0.8069
12518TIP3    H159045   2.108   0.530   0.952 -0.5925  0.3747  0.0552
12518TIP3    H259046   2.160   0.655   1.020 -0.9749  0.0439  0.9662
12519TIP3   OH259047   3.674   3.662  16.513  0.5634 -0.4366 -0.1941
12519TIP3    H159048   3.641   3.573  16.499  3.9204 -1.5813 -1.1744
12519TIP3    H259049   3.612   3.718  16.465 -0.9488 -2.3206 -0.5054
12520TIP3   OH259050   4.019   6.726  13.732  0.4843  0.2564 -0.8787
12520TIP3    H159051   4.005   6.654  13.793 -0.1769  2.2294  1.3992
12520TIP3    H259052   3.960   6.795  13.764  0.5881  1.5571 -3.4037
12521TIP3   OH259053   2.786   1.512   4.676 -0.5331  0.6154 -0.1537
12521TIP3    H159054   2.690   1.514   4.678 -0.5477 -1.1774  1.2460
12521TIP3    H259055   2.807   1.515   4.582 -2.0199 -0.9653 -0.5712
12522TIP3   OH259056   0.994   4.640  12.591  0.7991  0.1027  0.4557
12522TIP3    H159057   1.044   4.716  12.561  1.7398 -0.7323 -0.1080
12522TIP3    H259058   1.038   4.565  12.552 -1.5098 -0.6032 -0.9214
12523TIP3   OH259059   3.591   4.328   0.894 -0.0168  0.1570 -0.1940
12523TIP3    H159060   3.546   4.280   0.825  3.0320 -2.9084 -0.1889
12523TIP3    H259061   3.529   4.331   0.966 -1.9123  0.2061 -1.7927
12524TIP3   OH259062   2.697   1.805  16.487 -0.4979 -0.1587  0.1800
12524TIP3    H159063   2.763   1.813  16.556  0.3312 -1.1699 -0.4839
12524TIP3    H259064   2.744   1.765  16.414 -1.5175  0.3665 -0.7742
12525TIP3   OH259065   2.775   2.028   0.390 -0.1395  0.0639 -0.4549
12525TIP3    H159066   2.708   1.989   0.446 -1.5225  2.8079 -0.1190
12525TIP3    H259067   2.840   2.064   0.451  0.1883 -0.0969 -0.7071
12526TIP3   OH259068   0.315   4.748  11.565  0.3993  0.1402  0.0888
12526TIP3    H159069   0.402   4.709  11.566  0.0567 -0.6315  2.1989
12526TIP3    H259070   0.327   4.831  11.517  2.0694 -0.4051 -0.4834
12527TIP3   OH259071   5.025   6.591   0.609  0.1017  0.1491  1.1741
12527TIP3    H159072   4.954   6.527   0.621 -0.1124  0.4534  1.5741
12527TIP3    H259073   5.018   6.618   0.518 -0.4493  0.3435  1.2666
12528TIP3   OH259074   6.814   4.974  16.658  0.4666 -0.1988  0.0356
12528TIP3    H159075   6.892   5.029  16.654 -1.0415  2.2385  2.3412
12528TIP3    H259076   6.776   4.980  16.570  2.5564 -0.9826 -0.9487
12529TIP3   OH259077   3.764   5.527  14.368 -0.4340  0.3205 -0.2171
12529TIP3    H159078   3.679   5.485  14.353  1.3184 -3.4284 -0.4217
12529TIP3    H259079   3.764   5.549  14.461 -1.9425  1.1005 -0.3983
12530TIP3   OH259080   0.051   4.395   6.400 -0.4231 -0.8080 -0.3780
12530TIP3    H159081   0.040   4.431   6.488 -0.0491 -1.5207 -0.0440
12530TIP3    H259082   0.135   4.431   6.370  0.3277 -2.0324  0.2575
12531TIP3   OH259083   2.486   4.098   4.092 -0.7461  0.0449  0.3140
12531TIP3    H159084   2.556   4.124   4.151  1.1303 -2.1594 -0.8725
12531TIP3    H259085   2.452   4.017   4.128 -0.8086 -0.3610 -0.6332
12532TIP3   OH259086   5.061   5.731   3.606  0.9219 -0.3328 -0.2164
12532TIP3    H159087   5.054   5.735   3.510  2.2560  0.3377 -0.3102
12532TIP3    H259088   4.999   5.663   3.632  0.4364 -0.4233 -1.5464
12533TIP3   OH259089   1.587   1.591   0.086  0.4190  0.4066  0.0640
12533TIP3    H159090   1.495   1.607   0.109 -0.0405  1.2588 -2.2072
12533TIP3    H259091   1.603   1.501   0.112 -0.9797  0.3356  0.7397
12534TIP3   OH259092   2.031   0.789  14.626 -0.0634 -0.4406  0.2970
12534TIP3    H159093   2.055   0.879  14.604 -1.4346 -0.2092 -0.3284
12534TIP3    H259094   1.952   0.773  14.574  0.0970 -1.9533  0.5191
12535TIP3   OH259095   6.525   1.185   2.645 -0.6643  0.4677  0.0523
12535TIP3    H159096   6.467   1.129   2.696 -0.4793 -0.4411 -0.7236
12535TIP3    H259097   6.487   1.272   2.652 -1.4874  0.0777  0.4806
12536TIP3   OH259098   4.529   3.717  10.485 -0.2049  0.0515  0.0150
12536TIP3    H159099   4.576   3.634  10.490 -0.0738 -0.0032 -1.8706
12536TIP3    H259100   4.491   3.728  10.573 -1.7212 -2.8987 -0.1984
12537TIP3   OH259101   2.167   5.409   3.211 -0.6984 -0.2287  0.7062
12537TIP3    H159102   2.246   5.442   3.167 -1.2735  0.6514  0.3152
12537TIP3    H259103   2.200   5.356   3.283  0.2677 -1.5699 -0.6879
12538TIP3   OH259104   5.242   5.163   5.376  0.5178  0.1571  0.0201
12538TIP3    H159105   5.163   5.142   5.426 -0.5779 -1.2839 -2.2243
12538TIP3    H259106   5.247   5.259   5.378 -0.3524  0.1822  1.5805
12539TIP3   OH259107   6.782   0.377  13.152  0.6306 -0.3229 -1.2090
12539TIP3    H159108   6.746   0.436  13.087  0.3287  0.4117 -0.3853
12539TIP3    H259109   6.748   0.291  13.128 -1.9509  0.3749 -0.2981
12540TIP3   OH259110   0.929   6.061   6.149  0.4538  0.2506  0.3024
12540TIP3    H159111   0.908   6.096   6.236  0.9220  2.2548 -0.3587
12540TIP3    H259112   0.845   6.035   6.112  0.5534 -3.8584  2.6392
12541TIP3   OH259113   6.138   5.124  11.986 -0.4066  0.5801  0.4714
12541TIP3    H159114   6.101   5.190  11.927 -1.9557 -1.1954 -0.5803
12541TIP3    H259115   6.073   5.116  12.056 -0.3533 -0.0523  0.4444
12542TIP3   OH259116   1.812   2.868   6.790 -0.0236 -0.5357  0.3693
12542TIP3    H159117   1.746   2.892   6.856 -2.0077 -0.9915 -1.3801
12542TIP3    H259118   1.857   2.950   6.769 -1.1402  0.1030  0.4263
12543TIP3   OH259119   4.927   2.569   2.846 -0.4172  0.5740 -0.0232
12543TIP3    H159120   4.937   2.541   2.755 -3.7764  0.3880 -0.3836
12543TIP3    H259121   4.916   2.488   2.895 -0.2484  0.7596  0.3194
12544TIP3   OH259122   2.496   2.662   3.823  0.1516  0.0919 -0.1042
12544TIP3    H159123   2.499   2.732   3.757  0.1341  0.7778  0.6176
12544TIP3    H259124   2.503   2.581   3.772 -1.3495  0.5508 -1.0825
12545TIP3   OH259125   6.798   5.449  15.525 -0.0195  0.1288 -0.7427
12545TIP3    H159126   6.723   5.395  15.546 -1.3152  1.3985 -1.9668
12545TIP3    H259127   6.874   5.399  15.556 -1.4170 -0.6970  1.4490
12546TIP3   OH259128   2.493   6.603  16.657 -0.1428  0.5209  0.5195
12546TIP3    H159129   2.456   6.602  16.745  0.2761 -1.1559  0.6756
12546TIP3    H259130   2.419   6.581  16.600  0.1738 -1.0271  0.6847
12547TIP3   OH259131   3.856   1.732   2.827  0.1902  0.3364  0.6610
12547TIP3    H159132   3.890   1.810   2.784  0.6744  0.6947  1.6658
12547TIP3    H259133   3.761   1.746   2.831  0.0212 -0.1369 -1.1000
12548TIP3   OH259134   0.399   5.092  10.646  0.1189 -0.2482 -0.0722
12548TIP3    H159135   0.443   5.045  10.717  0.6499 -1.3065 -1.0857
12548TIP3    H259136   0.349   5.024  10.600 -2.4717  0.8832  0.9406
12549TIP3   OH259137   0.423   4.632   1.726  0.7942  0.2498 -0.1395
12549TIP3    H159138   0.505   4.597   1.762  0.9922  1.9124  1.1092
12549TIP3    H259139   0.425   4.608   1.633  2.2932 -0.4907  0.0728
12550TIP3   OH259140   3.529   1.618  16.388 -0.1718  0.0559  0.6123
12550TIP3    H159141   3.448   1.604  16.339 -0.5217  0.9251  0.9379
12550TIP3    H259142   3.508   1.591  16.478  0.3725 -1.2292  0.3688
12551TIP3   OH259143   0.964   4.442   2.165  0.2857  0.0142 -0.3171
12551TIP3    H159144   0.989   4.438   2.257  0.4499 -0.1025 -0.3670
12551TIP3    H259145   0.973   4.534   2.141 -1.2649  0.3151  0.2028
12552TIP3   OH259146   4.821   1.356  15.745  0.0523  0.0942  0.1256
12552TIP3    H159147   4.779   1.344  15.830 -1.3711 -0.8437 -0.6851
12552TIP3    H259148   4.785   1.438  15.712  0.3338  0.2776  0.2758
12553TIP3   OH259149   3.293   4.736  17.026  0.2498 -0.1102  0.5046
12553TIP3    H159150   3.359   4.681  16.983  1.7020  0.1708  2.2913
12553TIP3    H259151   3.301   4.821  16.983  1.9714  0.2835  1.5400
12554TIP3   OH259152   2.532   3.290   0.597  0.1874 -0.6341 -0.0380
12554TIP3    H159153   2.574   3.267   0.515 -0.4194 -2.3478  0.1065
12554TIP3    H259154   2.602   3.287   0.662  0.7486  1.1317 -0.5444
12555TIP3   OH259155   3.296   5.471   2.500  0.5295 -0.1120 -0.1721
12555TIP3    H159156   3.374   5.514   2.534 -1.6241  3.8181  0.1336
12555TIP3    H259157   3.299   5.486   2.406  0.0700  0.2566 -0.1322
12556TIP3   OH259158   3.318   6.557  11.516  0.2717 -0.2139 -0.8539
12556TIP3    H159159   3.349   6.636  11.560 -1.7889 -0.6888  1.5676
12556TIP3    H259160   3.359   6.486  11.564 -0.8250 -0.7038 -0.6278
12557TIP3   OH259161   3.117   0.093  15.899 -0.2419 -0.5949  0.2103
12557TIP3    H159162   3.097  -0.001  15.895  0.8495 -0.8270  0.0493
12557TIP3    H259163   3.053   0.133  15.841  0.3292 -1.4312 -1.0359
12558TIP3   OH259164   4.152   6.328   2.202 -0.4397  0.6620  0.4028
12558TIP3    H159165   4.095   6.397   2.236  0.3899  1.6260 -0.1354
12558TIP3    H259166   4.239   6.349   2.238  0.5519  1.9166 -2.4963
12559TIP3   OH259167   4.576   0.041  12.343  1.0417 -0.5878 -0.5030
12559TIP3    H159168   4.575  -0.001  12.256 -0.7489 -0.7023 -0.4458
12559TIP3    H259169   4.589   0.134  12.325  2.6311 -0.8544 -0.7735
12560TIP3   OH259170   2.353   0.247   6.609  0.4668 -0.2723  0.2156
12560TIP3    H159171   2.433   0.213   6.568  0.2648 -1.1373  0.5247
12560TIP3    H259172   2.372   0.339   6.626  1.3592 -0.4421  0.1810
12561TIP3   OH259173   5.640   5.703   5.145  0.5160  0.1879 -0.0136
12561TIP3    H159174   5.555   5.660   5.156  0.3686  1.0883  2.8295
12561TIP3    H259175   5.620   5.789   5.108  0.2617  0.1653  0.0765
12562TIP3   OH259176   5.142   4.010   6.479  0.0113 -0.2363  0.0917
12562TIP3    H159177   5.117   3.964   6.559 -0.6090  0.2656  0.1950
12562TIP3    H259178   5.188   4.088   6.509 -3.3346  1.8294  0.1279
12563TIP3   OH259179   2.325   5.383  13.379 -0.1017 -0.3309  0.0875
12563TIP3    H159180   2.265   5.451  13.348  0.1355 -1.5708 -3.3059
12563TIP3    H259181   2.402   5.432  13.409 -0.6914  1.0129 -0.5305
12564TIP3   OH259182   0.495   3.922  11.870  0.3272  0.0445  0.6209
12564TIP3    H159183   0.522   3.975  11.794  0.0787  0.9564  1.1616
12564TIP3    H259184   0.474   3.836  11.833  0.1493  0.5038 -0.3602
12565TIP3   OH259185   2.510   0.347  16.519  0.4830  0.2133  0.3088
12565TIP3    H159186   2.501   0.256  16.549 -0.6848  0.3339  0.3345
12565TIP3    H259187   2.430   0.365  16.471  1.0789  0.9713 -0.4260
12566TIP3   OH259188   2.635   1.128   4.386 -0.4650  0.1938 -0.1328
12566TIP3    H159189   2.573   1.199   4.372  2.0240  2.8993  2.0603
12566TIP3    H259190   2.600   1.080   4.461  0.0885  1.7455  1.1381
12567TIP3   OH259191   5.357   3.552  11.990  0.3150 -0.3541  0.1973
12567TIP3    H159192   5.452   3.554  11.972  0.4045 -0.6342  0.6395
12567TIP3    H259193   5.335   3.459  11.987 -0.4872 -0.1130 -2.7253
12568TIP3   OH259194   3.322   4.082   1.628  0.1019 -0.0969  0.4174
12568TIP3    H159195   3.365   4.157   1.669 -0.7774  1.8664 -2.1312
12568TIP3    H259196   3.377   4.007   1.651  0.9959  1.2888  3.0052
12569TIP3   OH259197   6.284   5.559   5.096  0.1929  0.7984  0.3307
12569TIP3    H159198   6.329   5.641   5.118  0.2608  0.9514 -0.3492
12569TIP3    H259199   6.247   5.529   5.179  0.9190  1.0560  0.7568
12570TIP3   OH259200   1.375   0.832  11.589  0.2516  0.6830  0.0344
12570TIP3    H159201   1.298   0.779  11.610 -0.6298  1.8771 -0.1399
12570TIP3    H259202   1.416   0.786  11.516 -1.0591  0.7844 -0.7793
12571TIP3   OH259203   5.129   0.104  16.933  0.2399 -0.0470  0.4353
12571TIP3    H159204   5.214   0.065  16.913  0.3253 -0.6436  1.9076
12571TIP3    H259205   5.090   0.045  16.998 -1.4671  0.0015 -0.5071
12572TIP3   OH259206   5.894   3.655  12.454  0.2473 -0.5319  0.1745
12572TIP3    H159207   5.919   3.678  12.543  2.0568 -0.9853 -0.1873
12572TIP3    H259208   5.926   3.565  12.443 -0.0945 -0.5367 -0.8702
12573TIP3   OH259209   6.703   0.050   3.162 -0.2001 -0.0962 -0.2367
12573TIP3    H159210   6.753   0.013   3.235 -0.4449  0.1761  0.0753
12573TIP3    H259211   6.690   0.142   3.187 -0.8144 -0.1552 -0.3370
12574TIP3   OH259212   2.159   2.476  14.815  0.3393 -0.1400 -0.1195
12574TIP3    H159213   2.205   2.491  14.898 -0.4504  1.9740 -0.0397
12574TIP3    H259214   2.067   2.482  14.838  0.0799 -1.2720 -0.8560
12575TIP3   OH259215   4.984   5.919  14.493 -0.6050  0.0465 -0.0091
12575TIP3    H159216   5.052   5.979  14.526 -0.1962  0.2665 -1.2241
12575TIP3    H259217   4.902   5.962  14.515 -0.3743 -0.4724  1.9594
12576TIP3   OH259218   3.506   1.695   3.184 -0.1086  0.0823  0.3508
12576TIP3    H159219   3.572   1.638   3.145 -2.5361 -3.5068  1.2180
12576TIP3    H259220   3.542   1.719   3.269  1.0564  0.0304 -0.1252
12577TIP3   OH259221   2.620   4.060  11.765 -0.3082  0.4809 -0.6324
12577TIP3    H159222   2.553   4.057  11.834  0.6922 -0.8855  0.3099
12577TIP3    H259223   2.576   4.102  11.691 -1.4552  1.8540  0.7799
12578TIP3   OH259224   4.481   2.838  14.647 -0.5240 -0.2644 -0.5042
12578TIP3    H159225   4.541   2.774  14.687 -1.1522 -1.6882 -1.8171
12578TIP3    H259226   4.429   2.787  14.585 -2.5635  1.1174  0.0329
12579TIP3   OH259227   4.153   5.515   2.616  0.2859 -0.3021 -0.1309
12579TIP3    H159228   4.210   5.541   2.688  0.9510 -1.2775 -0.2890
12579TIP3    H259229   4.189   5.560   2.539  1.0065 -1.1000 -0.2754
12580TIP3   OH259230   0.528   3.180  13.153  0.1305  0.3357  0.2763
12580TIP3    H159231   0.442   3.216  13.132  0.4872 -0.3777 -2.5989
12580TIP3    H259232   0.583   3.257  13.169 -0.3488  0.8957 -0.7458
12581TIP3   OH259233   0.511   3.520   6.764 -0.5750  0.0849 -0.2096
12581TIP3    H159234   0.450   3.585   6.730  0.6627  1.2916 -0.2030
12581TIP3    H259235   0.588   3.571   6.791 -0.5531 -1.1041  2.1419
12582TIP3   OH259236   3.471   3.691   3.364  0.0653  0.0691 -0.0614
12582TIP3    H159237   3.495   3.782   3.376  2.1174 -0.3010 -1.0788
12582TIP3    H259238   3.422   3.668   3.443  2.7925  0.9871  1.9452
12583TIP3   OH259239   6.752   5.452   4.058 -0.1415 -0.5045 -0.9650
12583TIP3    H159240   6.673   5.450   4.112 -0.5225 -0.5865 -1.5216
12583TIP3    H259241   6.787   5.363   4.064  1.2334  0.1493  1.2119
12584TIP3   OH259242   5.895   0.395   3.723  0.1799 -0.1890  0.7325
12584TIP3    H159243   5.809   0.385   3.683 -0.1644 -0.0316  1.4255
12584TIP3    H259244   5.944   0.317   3.696  0.0906  0.1231 -0.3363
12585TIP3   OH259245   0.663   0.972   1.908 -0.1894  0.0495 -0.8440
12585TIP3    H159246   0.721   0.953   1.834 -0.2832  1.7504 -1.3631
12585TIP3    H259247   0.595   1.028   1.872  0.0346  1.3071  0.6282
12586TIP3   OH259248   1.482   2.354   4.200 -0.2654  0.0661 -0.2467
12586TIP3    H159249   1.392   2.384   4.193 -0.6256 -0.9184  0.1531
12586TIP3    H259250   1.527   2.426   4.246 -1.0043  0.2285  0.2352
12587TIP3   OH259251   5.589   5.739  17.228  0.0119 -0.2026 -0.0145
12587TIP3    H159252   5.507   5.762  17.185 -0.7556 -1.4307  0.7597
12587TIP3    H259253   5.616   5.819  17.272 -0.9661  0.1025  0.0423
12588TIP3   OH259254   3.878   3.317  15.118  0.2311  0.0683  0.5496
12588TIP3    H159255   3.782   3.321  15.127  0.4644  0.3720  3.2035
12588TIP3    H259256   3.910   3.385  15.177  2.0677  1.0221 -1.4738
12589TIP3   OH259257   5.161   5.150   5.119 -1.2026 -0.4469  0.0532
12589TIP3    H159258   5.168   5.245   5.107 -4.3221 -0.0039  1.2895
12589TIP3    H259259   5.216   5.132   5.196  0.9255  0.0344 -1.3199
12590TIP3   OH259260   1.300   3.878   2.234 -0.0023  0.7580  0.7134
12590TIP3    H159261   1.365   3.807   2.231 -1.4184 -0.5130 -0.2667
12590TIP3    H259262   1.216   3.833   2.245 -0.9167  2.2922  0.0445
12591TIP3   OH259263   4.032   1.010  11.998  0.3888  0.1078  0.0668
12591TIP3    H159264   4.054   0.944  11.932  2.0168  1.7913 -1.1184
12591TIP3    H259265   4.107   1.011  12.057  0.3689  0.8690  0.0905
12592TIP3   OH259266   1.893   6.632   2.473 -0.2033 -0.1544 -0.6959
12592TIP3    H159267   1.928   6.717   2.500 -0.9719  0.2391 -0.9055
12592TIP3    H259268   1.823   6.654   2.411 -0.3742 -0.9423 -0.7819
12593TIP3   OH259269   5.244   2.098   4.634  0.0445  0.4549 -0.2010
12593TIP3    H159270   5.331   2.138   4.634  0.2596  0.0105 -0.9728
12593TIP3    H259271   5.256   2.013   4.591 -0.5823 -0.0500  0.5914
12594TIP3   OH259272   5.106   1.522  15.312 -0.2745 -0.0923 -0.3015
12594TIP3    H159273   5.076   1.613  15.313 -1.1062 -0.3621 -0.3204
12594TIP3    H259274   5.187   1.523  15.363 -0.3855  0.6201 -0.1253
12595TIP3   OH259275   3.076   0.402  13.634  0.4087 -0.1808  0.3669
12595TIP3    H159276   3.118   0.353  13.563 -1.7482 -0.3832 -0.8214
12595TIP3    H259277   2.984   0.377  13.628  0.0475  0.5283  2.6719
12596TIP3   OH259278   0.426   1.980   6.712 -0.7437 -0.1836  0.2727
12596TIP3    H159279   0.346   2.008   6.668 -0.5457  2.5894  1.5999
12596TIP3    H259280   0.446   2.050   6.773  2.8504 -0.7415 -0.1527
12597TIP3   OH259281   1.697   5.619  14.633  0.4067 -0.0808  0.3240
12597TIP3    H159282   1.789   5.602  14.651  0.8467  1.3405 -0.4954
12597TIP3    H259283   1.665   5.663  14.712  0.7107  0.3963  0.1829
12598TIP3   OH259284   4.260   0.625  15.243  0.0149  0.1525 -0.3522
12598TIP3    H159285   4.280   0.640  15.151  1.2030 -0.2757 -0.1813
12598TIP3    H259286   4.173   0.663  15.256 -0.4970 -0.4875 -1.8261
12599TIP3   OH259287   4.649   3.742  13.601 -0.1942  0.0853 -0.6892
12599TIP3    H159288   4.560   3.708  13.603  0.4307 -1.5024  0.9376
12599TIP3    H259289   4.683   3.713  13.516 -0.5289 -1.1605 -0.4153
12600TIP3   OH259290   1.223   2.129  13.716 -0.5109 -0.0586  0.2687
12600TIP3    H159291   1.245   2.176  13.797 -0.6912  1.7427 -0.6904
12600TIP3    H259292   1.139   2.167  13.690 -0.8617 -1.2344 -0.3156
12601TIP3   OH259293   4.458   4.708  14.686 -0.3279 -0.1097  0.2171
12601TIP3    H159294   4.519   4.767  14.642 -0.5122 -0.5542 -0.6364
12601TIP3    H259295   4.399   4.679  14.618 -0.2689 -1.2549  0.6413
12602TIP3   OH259296   4.829   6.028  13.714 -0.1938 -0.2200 -0.8745
12602TIP3    H159297   4.902   6.090  13.717 -0.5875  0.2109 -0.0497
12602TIP3    H259298   4.865   5.947  13.750 -0.2521  0.1360 -0.0039
12603TIP3   OH259299   2.850   2.560  12.351  0.0113  0.0941 -0.2325
12603TIP3    H159300   2.944   2.562  12.333  0.1520 -0.1754  0.4690
12603TIP3    H259301   2.839   2.615  12.428 -0.2226 -0.9837  0.5140
12604TIP3   OH259302   6.214   3.603  15.806 -0.4575  0.1625 -0.0069
12604TIP3    H159303   6.247   3.693  15.802  0.6406 -0.2652 -0.6896
12604TIP3    H259304   6.236   3.566  15.720 -1.0836 -0.7011  0.1997
12605TIP3   OH259305   2.232   1.172   4.314  0.2346 -0.1970 -0.5520
12605TIP3    H159306   2.149   1.217   4.324  0.3627  0.2883 -1.7013
12605TIP3    H259307   2.297   1.232   4.351  0.4941  0.8920 -2.6907
12606TIP3   OH259308   5.326   1.545   4.298  0.3599  0.2635  0.0867
12606TIP3    H159309   5.269   1.539   4.221  0.1380  1.1141  0.1818
12606TIP3    H259310   5.269   1.528   4.372 -0.1134  2.6879  0.3008
12607TIP3   OH259311   5.178   3.592  12.394  0.2779  0.0847  0.1914
12607TIP3    H159312   5.184   3.674  12.345  1.3825 -0.3751 -0.4578
12607TIP3    H259313   5.129   3.615  12.473  0.6475  1.3867  0.0532
12608TIP3   OH259314   3.476   0.841  17.205  0.1684 -0.2925 -0.9790
12608TIP3    H159315   3.486   0.930  17.238  0.7059  0.0107 -1.9403
12608TIP3    H259316   3.538   0.789  17.256 -0.0415 -0.0938 -0.5178
12609TIP3   OH259317   4.798   1.136  12.766 -0.2656  0.3796  0.2479
12609TIP3    H159318   4.718   1.155  12.815  0.2134  0.4035  1.0260
12609TIP3    H259319   4.869   1.154  12.828  0.3697  1.0619 -0.6690
12610TIP3   OH259320   3.864   1.385   0.955 -0.0625  0.6320 -0.8528
12610TIP3    H159321   3.789   1.344   0.912  0.4599  1.0044 -2.1327
12610TIP3    H259322   3.912   1.312   0.995 -0.3610  0.2516 -1.1894
12611TIP3   OH259323   1.880   4.511  13.170 -0.3077  1.3064  0.0524
12611TIP3    H159324   1.969   4.527  13.204 -0.1236  1.6502 -0.6028
12611TIP3    H259325   1.822   4.543  13.239  0.0793  0.7633  0.6347
12612TIP3   OH259326   6.280   5.908   5.632  0.0264 -0.4680 -0.4219
12612TIP3    H159327   6.309   5.820   5.654  0.5490  0.0378  0.9982
12612TIP3    H259328   6.209   5.896   5.569 -0.6402 -1.9369  0.5961
12613TIP3   OH259329   1.086   1.725  17.251  0.1760 -0.3155 -0.1629
12613TIP3    H159330   1.023   1.767  17.310 -0.5260 -1.5872 -0.0043
12613TIP3    H259331   1.125   1.656  17.304 -1.8835 -2.7727 -1.7678
12614TIP3   OH259332   1.320   6.154  12.615  0.3599 -0.1456 -0.3546
12614TIP3    H159333   1.263   6.213  12.566 -0.7042  0.0621  1.1028
12614TIP3    H259334   1.388   6.211  12.651  1.0832 -0.2831 -1.4878
12615TIP3   OH259335   5.666   4.010  12.969  0.6185  0.9653  0.5172
12615TIP3    H159336   5.645   4.014  13.063  0.0507  1.9127  0.3538
12615TIP3    H259337   5.716   3.929  12.960 -1.1195 -0.2337  1.2871
12616TIP3   OH259338   6.170   2.682  12.687  0.4374  0.5358  0.0922
12616TIP3    H159339   6.138   2.593  12.701 -1.0950  1.2426  1.0980
12616TIP3    H259340   6.265   2.673  12.688  0.3036 -1.1341 -0.1133
12617TIP3   OH259341   4.934   5.925  16.685  0.3678 -0.0662  0.0572
12617TIP3    H159342   4.938   5.843  16.636 -1.1741  0.2048 -0.5562
12617TIP3    H259343   5.025   5.955  16.690  0.7374 -0.9588 -1.1678
12618TIP3   OH259344   1.454   0.098  17.139  0.1915 -0.2885  0.1300
12618TIP3    H159345   1.461   0.151  17.219 -0.8061 -0.7493  0.5284
12618TIP3    H259346   1.525   0.130  17.083  2.1245 -1.2809  1.9496
12619TIP3   OH259347   3.664   3.915  16.118  0.1143 -0.4050  0.7100
12619TIP3    H159348   3.733   3.952  16.174 -0.0705 -0.2762  0.8496
12619TIP3    H259349   3.646   3.984  16.055 -0.8752  0.0951  1.5284
12620TIP3   OH259350   0.724   0.031  12.713 -0.1838  0.5274  0.0998
12620TIP3    H159351   0.785  -0.010  12.653  1.2979  2.5325  0.2077
12620TIP3    H259352   0.645   0.047  12.661  0.6310  1.0917 -0.9629
12621TIP3   OH259353   2.932   6.749   4.422  0.0659  0.4565  0.2841
12621TIP3    H159354   2.976   6.672   4.461 -2.0184 -0.0762  1.6707
12621TIP3    H259355   2.951   6.820   4.483 -1.2538  0.1475  1.0701
12622TIP3   OH259356   6.020   1.166  13.270  0.3388 -0.1124  0.1845
12622TIP3    H159357   5.980   1.141  13.187  0.9573 -1.2828  0.2355
12622TIP3    H259358   6.102   1.210  13.245  0.8675 -1.0792  0.1810
12623TIP3   OH259359   1.569   1.087   2.938  0.1472 -0.2643  0.0229
12623TIP3    H159360   1.502   1.049   2.882  0.8647  0.0033 -1.0271
12623TIP3    H259361   1.554   1.182   2.933 -1.5920 -0.3627  2.5766
12624TIP3   OH259362   4.845   1.905   5.937 -0.8243 -0.2615  0.1009
12624TIP3    H159363   4.913   1.908   6.005  0.1353 -2.3957 -0.7338
12624TIP3    H259364   4.777   1.849   5.973 -0.6698 -0.7544 -0.3636
12625TIP3   OH259365   2.579   3.188  12.588  0.4595 -0.1477 -0.0778
12625TIP3    H159366   2.534   3.180  12.504 -1.0237 -0.6682  0.7655
12625TIP3    H259367   2.671   3.201  12.564 -0.1530  1.2682 -1.8234
12626TIP3   OH259368   3.907   4.537  14.522 -0.3653 -0.1874  0.1108
12626TIP3    H159369   3.848   4.603  14.559  0.8107 -0.0956  1.8577
12626TIP3    H259370   3.850   4.462  14.504 -1.2672  0.4003  0.4581
12627TIP3   OH259371   1.884   6.048  11.087 -0.1803 -0.0603  0.6228
12627TIP3    H159372   1.885   5.984  11.016 -0.0700  1.5075 -0.8148
12627TIP3    H259373   1.794   6.077  11.092  0.2742  1.5983 -0.5141
12628TIP3   OH259374   1.490   2.006   1.547  0.6807 -1.2437  0.2875
12628TIP3    H159375   1.514   2.090   1.585  1.7366 -0.4455 -2.0625
12628TIP3    H259376   1.546   1.943   1.594  0.1365 -0.6276  1.8101
12629TIP3   OH259377   4.096   0.619  12.663  0.2238  0.0858  0.3342
12629TIP3    H159378   4.004   0.646  12.672  0.6233  1.1240  1.5952
12629TIP3    H259379   4.096   0.558  12.590 -1.2307  1.2615 -0.6900
12630TIP3   OH259380   5.580   2.446  12.326 -0.3234 -0.1453  0.8211
12630TIP3    H159381   5.566   2.496  12.246 -0.3823  0.0580  0.9546
12630TIP3    H259382   5.580   2.513  12.395 -0.5248 -0.3451  1.0137
12631TIP3   OH259383   0.917   6.743   4.657 -0.1510 -0.7299  0.1243
12631TIP3    H159384   0.983   6.774   4.595  0.1373  0.7894  1.1554
12631TIP3    H259385   0.837   6.733   4.605 -0.4008  2.3182 -0.1826
12632TIP3   OH259386   1.298   3.172   1.254  0.2659  0.4518  0.3339
12632TIP3    H159387   1.328   3.194   1.342  1.7333  3.0372 -0.7474
12632TIP3    H259388   1.317   3.251   1.202 -1.8676 -0.4857 -1.9780
12633TIP3   OH259389   5.092   0.985   4.234  0.5298 -0.2026 -0.2713
12633TIP3    H159390   5.100   1.051   4.303 -1.0338  2.2745 -2.3655
12633TIP3    H259391   5.141   1.020   4.160 -0.1395 -1.4934 -1.3625
12634TIP3   OH259392   6.643   1.467   4.322  0.3249  0.2584  0.3989
12634TIP3    H159393   6.575   1.481   4.388 -0.5480 -0.0942 -0.4053
12634TIP3    H259394   6.696   1.396   4.356 -0.6027 -0.4598  0.3558
12635TIP3   OH259395   0.325   4.430   4.236  0.0251  0.1777 -0.4654
12635TIP3    H159396   0.401   4.444   4.180  0.2031 -0.3419 -0.3538
12635TIP3    H259397   0.253   4.475   4.191  0.8932  2.8013  0.6480
12636TIP3   OH259398   3.650   2.619  10.745 -0.5516 -0.0698  0.6395
12636TIP3    H159399   3.676   2.710  10.737  1.9943 -0.8135  0.1633
12636TIP3    H259400   3.604   2.600  10.663 -0.3992  0.5692  0.4049
12637TIP3   OH259401   5.174   0.460   6.100 -0.0629  0.2066 -0.3979
12637TIP3    H159402   5.190   0.393   6.032  1.6302 -0.3837  0.5327
12637TIP3    H259403   5.080   0.456   6.116 -0.3145 -0.4503 -1.8839
12638TIP3   OH259404   0.257   3.388   0.196 -0.4662 -0.3591  0.1127
12638TIP3    H159405   0.260   3.342   0.112  2.7747 -1.7855  0.9070
12638TIP3    H259406   0.316   3.463   0.184  0.2212 -0.7127  1.1493
12639TIP3   OH259407   3.639   3.474   1.169  0.0265 -0.4338  0.0102
12639TIP3    H159408   3.583   3.550   1.184  0.7431  0.1074 -0.0868
12639TIP3    H259409   3.696   3.499   1.097  0.5913 -0.8858  0.2974
12640TIP3   OH259410   6.298   2.730   3.867 -0.3000  0.2381 -0.4405
12640TIP3    H159411   6.345   2.659   3.824 -0.2183 -0.1394  0.2696
12640TIP3    H259412   6.326   2.726   3.958  0.5322  1.8581 -0.5988
12641TIP3   OH259413   3.283   5.067   7.146  0.4156 -0.6544 -0.4403
12641TIP3    H159414   3.230   5.133   7.102 -0.9192 -2.1359 -1.1109
12641TIP3    H259415   3.308   5.006   7.076  1.0185 -1.2524  0.2905
12642TIP3   OH259416   2.612   4.611  14.488  0.3414  0.3407 -0.0448
12642TIP3    H159417   2.701   4.623  14.455  0.3572  0.7312  0.1284
12642TIP3    H259418   2.614   4.526  14.532  0.6237  0.3355 -0.0626
12643TIP3   OH259419   4.274   4.061   6.481 -0.6615 -0.2906  0.3294
12643TIP3    H159420   4.325   4.042   6.403 -0.6006 -0.6966  0.4684
12643TIP3    H259421   4.227   3.979   6.501  0.2594 -0.5682  1.4158
12644TIP3   OH259422   2.630   0.078  15.105  0.2752  0.2404  0.6091
12644TIP3    H159423   2.691   0.037  15.045  1.7902 -0.1870  2.3720
12644TIP3    H259424   2.589   0.006  15.152  1.4974  0.6273  2.3333
12645TIP3   OH259425   5.715   5.587   5.894  0.0640 -0.4490 -0.7062
12645TIP3    H159426   5.801   5.628   5.896  0.0407 -0.3886 -0.9176
12645TIP3    H259427   5.654   5.661   5.891  0.0048 -0.4913 -0.5614
12646TIP3   OH259428   1.060   3.650   3.311 -0.0654 -0.3249  0.0526
12646TIP3    H159429   0.994   3.710   3.277 -1.3894 -0.9422  1.4547
12646TIP3    H259430   1.029   3.563   3.286  0.2740 -0.6163  0.6315
12647TIP3   OH259431   1.826   1.984  12.191 -0.6712  0.6440  0.3249
12647TIP3    H159432   1.811   1.984  12.096 -0.0963  1.4865  0.2211
12647TIP3    H259433   1.740   1.970  12.229 -0.9329  0.4512 -0.3281
12648TIP3   OH259434   1.191   6.778   5.309  0.1506  0.0522  0.7185
12648TIP3    H159435   1.144   6.848   5.264 -1.6238 -0.0360  2.4029
12648TIP3    H259436   1.129   6.706   5.315  0.8103 -0.4379  2.0606
12649TIP3   OH259437   0.591   4.564  14.716  0.3468 -0.5742  0.3902
12649TIP3    H159438   0.563   4.568  14.807 -0.0713 -1.4048  0.3058
12649TIP3    H259439   0.678   4.523  14.719  0.6448  0.0556  0.4708
12650TIP3   OH259440   0.398   0.538   1.288 -0.3952  0.4899 -0.5600
12650TIP3    H159441   0.398   0.450   1.249 -0.5882  0.9015 -1.5012
12650TIP3    H259442   0.360   0.594   1.221  0.4706  1.4338 -0.2774
12651TIP3   OH259443   2.056   6.171  17.096  0.2499  0.0168 -0.5079
12651TIP3    H159444   2.112   6.240  17.061  0.6717  0.1298  0.3833
12651TIP3    H259445   2.025   6.124  17.018  1.2315  0.2210 -1.0325
12652TIP3   OH259446   1.866   0.969  16.057  0.4395  0.1160  0.0570
12652TIP3    H159447   1.856   1.022  15.978  2.2184  1.1632  0.4989
12652TIP3    H259448   1.946   0.919  16.042  0.9802  0.5744  1.3288
12653TIP3   OH259449   4.737   0.689  12.903 -0.4460 -0.3050  0.5894
12653TIP3    H159450   4.700   0.613  12.857 -0.1012 -1.3649  2.0019
12653TIP3    H259451   4.751   0.754  12.835  0.9211 -2.1540 -0.9651
12654TIP3   OH259452   4.895   4.585  12.654  0.3438 -0.3714  0.3697
12654TIP3    H159453   4.891   4.673  12.692 -1.2081 -1.3483  2.6014
12654TIP3    H259454   4.958   4.538  12.708 -1.2420 -1.5363  1.2533
12655TIP3   OH259455   3.624   6.736  11.890  0.2818  0.1118  0.0157
12655TIP3    H159456   3.621   6.692  11.974  0.6088 -1.5364 -0.8127
12655TIP3    H259457   3.700   6.794  11.896 -0.1069  0.5068  1.0921
12656TIP3   OH259458   5.436   5.961   2.870 -0.1933  0.8926 -0.1091
12656TIP3    H159459   5.414   5.939   2.960  1.5031 -1.7654 -0.2828
12656TIP3    H259460   5.421   5.880   2.821  3.1469  0.9693 -1.4078
12657TIP3   OH259461   3.768   0.392   3.580  0.1623 -0.0992 -0.0669
12657TIP3    H159462   3.750   0.486   3.585 -0.0124 -0.2055  1.4780
12657TIP3    H259463   3.848   0.386   3.527  0.5050  0.9574  0.3201
12658TIP3   OH259464   3.922   1.909   2.617 -0.2608 -0.3181 -0.2589
12658TIP3    H159465   3.961   1.828   2.585 -1.1304 -0.6394 -0.5121
12658TIP3    H259466   3.997   1.964   2.640  0.3297 -1.5539  0.8497
12659TIP3   OH259467   2.392   2.066   3.540 -0.4796  0.6743 -0.6026
12659TIP3    H159468   2.317   2.052   3.598  0.3111  0.1964  0.3279
12659TIP3    H259469   2.359   2.048   3.453 -0.8740 -1.7821  0.0273
12660TIP3   OH259470   5.339   6.477  15.042 -0.2414  0.0728  0.5887
12660TIP3    H159471   5.280   6.433  15.102 -1.4473 -0.5045 -0.9706
12660TIP3    H259472   5.427   6.457  15.074 -0.8132 -2.0985  0.8487
12661TIP3   OH259473   2.784   4.143  16.231  0.6471  0.0520  0.1295
12661TIP3    H159474   2.851   4.075  16.222 -1.2668 -1.7422 -1.0803
12661TIP3    H259475   2.711   4.099  16.275 -0.3452  1.5161 -0.0158
12662TIP3   OH259476   6.400   4.280  16.432  0.0135  0.0453  0.1756
12662TIP3    H159477   6.376   4.276  16.525 -0.7118 -1.3225 -0.0576
12662TIP3    H259478   6.479   4.227  16.425 -0.4743 -0.6489 -0.1445
12663TIP3   OH259479   1.798   0.056   0.682 -0.2168 -0.4640  0.2835
12663TIP3    H159480   1.714   0.093   0.655 -0.2918 -0.7667  0.1010
12663TIP3    H259481   1.845   0.040   0.600  0.4045  0.5922  0.4219
12664TIP3   OH259482   4.889   5.363  10.846  0.6409  0.2527 -0.7784
12664TIP3    H159483   4.960   5.400  10.898 -0.1544  1.7406 -0.7339
12664TIP3    H259484   4.843   5.305  10.906  0.4035  1.0986 -0.1410
12665TIP3   OH259485   4.082   2.756   6.609 -0.5500  0.1954  0.0868
12665TIP3    H159486   4.098   2.842   6.569  1.1323  0.6143  1.6287
12665TIP3    H259487   4.019   2.774   6.679 -0.2933  0.1539  0.3290
12666TIP3   OH259488   2.337   3.365  11.862 -0.2731  0.2761  0.0215
12666TIP3    H159489   2.257   3.417  11.851  0.2259  1.0922  0.2054
12666TIP3    H259490   2.362   3.379  11.954  0.1163  0.0722 -0.0510
12667TIP3   OH259491   3.152   2.357  14.578  0.0563  0.1433  0.4992
12667TIP3    H159492   3.180   2.270  14.607  0.3769  0.2654  0.5624
12667TIP3    H259493   3.063   2.344  14.545  0.7551 -0.5542 -1.1728
12668TIP3   OH259494   4.532   0.640  10.713 -0.5907  0.4290 -0.0774
12668TIP3    H159495   4.526   0.552  10.674 -1.6320  0.3203  0.3207
12668TIP3    H259496   4.458   0.687  10.677 -0.4586  0.9224  0.2990
12669TIP3   OH259497   5.550   6.292  11.698 -0.3600  0.2481  0.0837
12669TIP3    H159498   5.581   6.356  11.634 -1.0630 -1.5168 -2.0893
12669TIP3    H259499   5.629   6.251  11.732 -0.0136  0.7245 -0.1503
12670TIP3   OH259500   2.427   0.064   3.094  0.4076 -0.1606  0.4491
12670TIP3    H159501   2.339   0.051   3.130  0.1662 -0.2822 -0.1828
12670TIP3    H259502   2.457  -0.025   3.074  0.1065 -0.0113 -0.6803
12671TIP3   OH259503   6.046   6.703   2.292  0.6281  0.7470 -0.2898
12671TIP3    H159504   6.085   6.762   2.227  1.9730 -1.6436 -1.7480
12671TIP3    H259505   5.969   6.667   2.248  1.0217 -0.1803 -0.2277
12672TIP3   OH259506   1.816   3.171   0.381 -0.0800  0.3025  0.6855
12672TIP3    H159507   1.869   3.111   0.330 -3.8940 -1.6447 -1.1913
12672TIP3    H259508   1.820   3.254   0.333 -0.0225 -0.2615 -0.2889
12673TIP3   OH259509   1.511   2.097   5.520 -0.2761  0.1732 -0.5254
12673TIP3    H159510   1.572   2.169   5.511 -0.9247  0.6528 -1.1263
12673TIP3    H259511   1.540   2.050   5.598  2.0230 -0.7331 -1.8527
12674TIP3   OH259512   3.322   0.598  13.956  0.8223 -0.6787 -0.1303
12674TIP3    H159513   3.311   0.676  14.010  1.0927 -0.3525 -0.5484
12674TIP3    H259514   3.253   0.604  13.890  1.7829 -0.0274 -1.0773
12675TIP3   OH259515   5.514   1.750   2.487 -0.2759 -0.0517  0.4223
12675TIP3    H159516   5.541   1.818   2.549 -0.8302  0.8296 -0.2960
12675TIP3    H259517   5.537   1.667   2.530 -0.6096  0.5563  1.7792
12676TIP3   OH259518   5.295   5.599  13.702 -0.2457  0.6484  0.2907
12676TIP3    H159519   5.232   5.670  13.711  0.3509  1.2142 -0.0140
12676TIP3    H259520   5.319   5.599  13.609 -0.3083 -0.0080  0.2676
12677TIP3   OH259521   3.578   6.009  17.092 -0.3744 -0.1066  0.2021
12677TIP3    H159522   3.543   6.049  17.012 -0.1384 -0.1709  0.0676
12677TIP3    H259523   3.552   6.070  17.161  0.3015  0.4788 -0.0449
12678TIP3   OH259524   4.949   5.064  11.439 -1.0492 -0.2094  0.3666
12678TIP3    H159525   4.992   5.146  11.415 -1.3685  0.4252  1.9551
12678TIP3    H259526   4.962   5.007  11.362  0.7280  0.7050 -0.0368
12679TIP3   OH259527   6.782   1.768  15.428 -0.4185  0.5155  0.0927
12679TIP3    H159528   6.859   1.824  15.433 -0.4419  0.5179  0.4238
12679TIP3    H259529   6.710   1.829  15.412 -0.4245  0.5684  0.3144
12680TIP3   OH259530   0.840   0.269  15.715  0.4623 -0.5940  0.3162
12680TIP3    H159531   0.803   0.354  15.689  0.0414 -1.3445 -1.5919
12680TIP3    H259532   0.934   0.282  15.711  0.4212  0.1455  1.3065
12681TIP3   OH259533   1.230   2.279   0.983  0.0438  0.1381  0.5692
12681TIP3    H159534   1.255   2.214   0.918  0.6785 -2.0064  2.9161
12681TIP3    H259535   1.140   2.255   1.008 -0.0827  0.7536  0.7185
12682TIP3   OH259536   2.450   4.251   2.188  0.2477 -0.0818 -0.2605
12682TIP3    H159537   2.435   4.163   2.154 -0.2825 -0.0196 -0.2024
12682TIP3    H259538   2.362   4.288   2.197  0.4852  0.5999 -0.6728
12683TIP3   OH259539   2.657   4.998  11.362 -0.0277  0.4509  0.6424
12683TIP3    H159540   2.587   5.056  11.333 -0.9432 -0.9145  0.1003
12683TIP3    H259541   2.652   5.001  11.458 -1.0577  0.0958  0.6051
12684TIP3   OH259542   2.432   4.793   3.656 -0.2686 -0.5700 -0.2745
12684TIP3    H159543   2.422   4.830   3.569  0.2055 -1.4676 -0.7139
12684TIP3    H259544   2.488   4.855   3.703  0.0738 -0.4610 -0.8335
12685TIP3   OH259545   5.829   4.889   1.128 -0.1061  0.1980  0.1571
12685TIP3    H159546   5.856   4.918   1.041 -0.4599  0.1986  0.0465
12685TIP3    H259547   5.800   4.969   1.172  1.9121  0.5174  0.9643
12686TIP3   OH259548   4.743   5.820  13.552  0.2037 -0.2166 -0.0081
12686TIP3    H159549   4.772   5.888  13.613  0.4137 -0.1631 -0.1675
12686TIP3    H259550   4.648   5.832  13.547  0.2544  0.1374 -0.1223
12687TIP3   OH259551   4.755   2.789   3.428  0.2064 -0.3374 -0.3697
12687TIP3    H159552   4.701   2.712   3.440 -2.1283  1.5203  1.3717
12687TIP3    H259553   4.813   2.790   3.504 -0.8359  0.4456  0.4308
12688TIP3   OH259554   0.403   0.369  13.211 -1.1421  0.4677  0.4576
12688TIP3    H159555   0.435   0.339  13.296  0.6304  0.9717 -0.0120
12688TIP3    H259556   0.446   0.453  13.197 -1.8732  0.6643 -0.6660
12689TIP3   OH259557   1.959   6.800  14.778 -0.4387 -0.1158 -0.0367
12689TIP3    H159558   1.909   6.726  14.744  1.0754 -1.0883 -0.1895
12689TIP3    H259559   1.989   6.847  14.700  0.2113 -0.4419  0.0117
12690TIP3   OH259560   0.442   0.267   1.663 -0.1709 -0.2883 -0.1657
12690TIP3    H159561   0.537   0.263   1.676 -0.2456  0.8470  0.8146
12690TIP3    H259562   0.424   0.198   1.599  0.9689 -2.3135  1.6173
12691TIP3   OH259563   4.805   5.031   1.805 -0.3030 -0.5197  0.4516
12691TIP3    H159564   4.762   5.116   1.792 -0.3825 -0.3456  1.7713
12691TIP3    H259565   4.789   5.010   1.897 -0.3815 -2.0340  0.0995
12692TIP3   OH259566   0.218   6.130  13.547 -0.0394  0.3598  0.1192
12692TIP3    H159567   0.227   6.035  13.534 -1.8134  0.0612  0.9067
12692TIP3    H259568   0.247   6.145  13.637  2.2056  0.8784 -0.6753
12693TIP3   OH259569   6.178   1.477  12.540  0.2563 -0.3151  0.5323
12693TIP3    H159570   6.175   1.532  12.618  0.7823  0.5154 -0.0257
12693TIP3    H259571   6.265   1.491  12.504 -0.3203  0.0748 -0.7442
12694TIP3   OH259572   6.651   4.769   3.077  0.2183 -0.1016 -0.2091
12694TIP3    H159573   6.741   4.801   3.073  0.4295 -0.8223 -1.9140
12694TIP3    H259574   6.660   4.675   3.095 -0.2643  0.1605  1.4163
12695TIP3   OH259575   6.575   5.265  15.569 -0.6345 -0.5222 -0.2555
12695TIP3    H159576   6.526   5.302  15.496  0.0951 -0.4969 -0.7294
12695TIP3    H259577   6.513   5.204  15.611 -1.4328  0.3148 -0.1911
12696TIP3   OH259578   2.280   2.886   1.144 -0.3565 -0.3072 -0.4294
12696TIP3    H159579   2.195   2.923   1.120  1.0671  1.2353 -3.3882
12696TIP3    H259580   2.340   2.960   1.139  1.3207 -1.5542  0.7716
12697TIP3   OH259581   0.035   6.172   3.745 -0.4574 -0.1959  0.0968
12697TIP3    H159582   0.009   6.237   3.679  1.8189  0.5756 -0.0695
12697TIP3    H259583  -0.035   6.175   3.810 -0.5245  2.2319 -0.0434
12698TIP3   OH259584   4.393   1.825   0.214 -0.5041  0.1785 -0.2055
12698TIP3    H159585   4.373   1.915   0.190  1.1158  0.4663 -0.5807
12698TIP3    H259586   4.401   1.826   0.309  1.0312  0.7932 -0.3156
12699TIP3   OH259587   0.147   3.246   2.057 -0.2598  0.7602 -0.1414
12699TIP3    H159588   0.236   3.256   2.023  0.0053  1.0347  0.6100
12699TIP3    H259589   0.096   3.212   1.983  0.5136  0.4064 -0.5143
12700TIP3   OH259590   6.452   1.722  14.914 -0.0055 -0.0962 -0.3422
12700TIP3    H159591   6.371   1.671  14.904  0.4567 -0.7916 -0.5469
12700TIP3    H259592   6.501   1.676  14.982  1.2069 -0.9494 -1.7652
12701TIP3   OH259593   3.843   2.282   2.406 -0.4989 -0.1102  0.2471
12701TIP3    H159594   3.894   2.233   2.342  0.3235 -0.6393  1.2849
12701TIP3    H259595   3.879   2.371   2.403  1.5803 -0.8488  2.0798
12702TIP3   OH259596   0.427   6.255   4.535  1.0594 -0.3693  0.1459
12702TIP3    H159597   0.454   6.313   4.463  3.6762  1.0540  2.2070
12702TIP3    H259598   0.339   6.226   4.509  1.1912  1.5224 -2.7619
12703TIP3   OH259599   2.595   0.969   3.546 -0.2462 -0.0280  0.0589
12703TIP3    H159600   2.504   0.944   3.531 -0.9065  0.8061  2.3985
12703TIP3    H259601   2.592   1.063   3.564  1.0596 -0.0337  0.4124
12704TIP3   OH259602   0.257   1.851  15.998  0.0693  0.3514 -0.0118
12704TIP3    H159603   0.229   1.804  15.920  1.2814 -1.6721  0.7128
12704TIP3    H259604   0.221   1.939  15.988 -2.3732 -0.7513 -1.3742
12705TIP3   OH259605   6.632   1.666  12.996 -0.0005 -0.3702 -0.1402
12705TIP3    H159606   6.698   1.734  12.982 -2.2549  2.1380  0.8479
12705TIP3    H259607   6.682   1.588  13.020  2.6375  1.1247 -0.5836
12706TIP3   OH259608   6.604   1.150   0.222  0.4170 -0.2640 -0.0445
12706TIP3    H159609   6.580   1.194   0.141  0.2537 -2.7749 -1.4141
12706TIP3    H259610   6.523   1.147   0.273  0.2327  0.2614 -0.3093
12707TIP3   OH259611   4.280   4.299  13.113  0.5775 -0.1656 -0.0480
12707TIP3    H159612   4.239   4.213  13.107 -0.3548  0.2223  0.6183
12707TIP3    H259613   4.251   4.346  13.035  0.0729 -0.0285  0.2213
12708TIP3   OH259614   6.263   2.357   3.899 -0.3316 -0.0950 -0.2497
12708TIP3    H159615   6.337   2.416   3.886 -1.0389  1.1661  1.3454
12708TIP3    H259616   6.301   2.269   3.893  1.4898  0.5265  1.6492
12709TIP3   OH259617   4.391   1.399  12.988 -0.1556  0.0527  0.7823
12709TIP3    H159618   4.431   1.478  13.025  0.3375  0.9492 -1.6228
12709TIP3    H259619   4.309   1.429  12.949 -0.4374 -0.7995  0.7002
12710TIP3   OH259620   2.261   1.461   3.749  0.6422 -0.1612 -0.0203
12710TIP3    H159621   2.233   1.543   3.709  1.0365  0.4816  1.0038
12710TIP3    H259622   2.184   1.404   3.742  0.4555  0.1869 -0.9900
12711TIP3   OH259623   2.349   3.254  13.967 -0.0921 -0.1368 -0.1270
12711TIP3    H159624   2.356   3.192  14.039  2.2773  0.3679  0.1349
12711TIP3    H259625   2.326   3.337  14.009  0.6212  0.0091 -0.0186
12712TIP3   OH259626   0.583   4.037  12.877 -0.2249 -0.4512 -0.5944
12712TIP3    H159627   0.645   4.097  12.918 -0.5085  0.0621 -0.9044
12712TIP3    H259628   0.570   4.073  12.789 -0.1125 -1.1791 -0.9101
12713TIP3   OH259629   6.557   0.842  16.301 -0.3281 -0.0602 -0.5060
12713TIP3    H159630   6.510   0.759  16.298 -1.0547  0.2580  1.2770
12713TIP3    H259631   6.576   0.856  16.394 -0.5446  1.9408 -0.7279
12714TIP3   OH259632   3.127   0.380  14.762  0.0210 -0.4093 -0.0105
12714TIP3    H159633   3.222   0.383  14.751  0.3225 -2.2428  1.7491
12714TIP3    H259634   3.096   0.329  14.687  0.5341 -0.4988 -0.1674
12715TIP3   OH259635   3.712   5.418   3.113 -0.1534 -0.2735 -0.0890
12715TIP3    H159636   3.689   5.333   3.075 -0.9810 -0.7254  1.3870
12715TIP3    H259637   3.794   5.401   3.159  0.6867  0.1995 -1.3896
12716TIP3   OH259638   2.058   2.423   4.374 -0.6536 -0.6440 -0.1876
12716TIP3    H159639   2.037   2.385   4.289 -0.4981 -0.4040 -0.3346
12716TIP3    H259640   2.119   2.494   4.354 -1.6442  0.2694 -0.0104
12717TIP3   OH259641   0.303   4.894  13.228  1.1579  0.2027  0.0130
12717TIP3    H159642   0.282   4.960  13.161  2.2065  1.2628  0.7207
12717TIP3    H259643   0.222   4.844  13.238  0.9625  0.0531 -2.0160
12718TIP3   OH259644   0.942   6.484  13.508 -0.5835 -0.5941 -0.0731
12718TIP3    H159645   0.906   6.408  13.462 -0.1670 -0.3320 -0.8343
12718TIP3    H259646   0.887   6.493  13.586 -1.3268 -1.0115 -0.5466
12719TIP3   OH259647   4.093   4.529  11.766  0.0145 -0.1144  0.8903
12719TIP3    H159648   4.091   4.455  11.706  2.5474  1.0867 -0.8112
12719TIP3    H259649   4.124   4.493  11.849 -0.5443 -1.2656  0.6002
12720TIP3   OH259650   6.177   2.870   4.501 -0.0408 -0.5047 -0.3621
12720TIP3    H159651   6.271   2.886   4.509 -0.3490  1.3033 -0.3000
12720TIP3    H259652   6.146   2.864   4.592 -0.3701  1.2644 -0.3422
12721TIP3   OH259653   4.462   1.395   4.511 -0.3285 -0.3626  0.2748
12721TIP3    H159654   4.368   1.401   4.496 -0.6260 -2.8551  0.8369
12721TIP3    H259655   4.479   1.301   4.518  2.3946 -0.0231 -0.9457
12722TIP3   OH259656   6.133   3.161   2.928 -0.3095  0.3863  0.1804
12722TIP3    H159657   6.153   3.224   2.997 -3.0931  1.9651 -0.3843
12722TIP3    H259658   6.119   3.215   2.850 -1.3867 -1.0245 -0.6219
12723TIP3   OH259659   4.902   5.525  16.662  0.0057 -0.0601 -0.0393
12723TIP3    H159660   4.921   5.579  16.585  0.2248  2.1424  1.5349
12723TIP3    H259661   4.850   5.581  16.719  0.4051 -1.4370  1.7332
12724TIP3   OH259662   4.957   3.049  11.348  0.4936 -0.4687 -0.3709
12724TIP3    H159663   4.936   3.003  11.266 -0.0241 -0.9984  0.0594
12724TIP3    H259664   4.873   3.083  11.379  0.6371 -0.5516  0.1155
12725TIP3   OH259665   1.446   2.067   0.649 -1.0057  0.4778  0.8631
12725TIP3    H159666   1.456   2.162   0.645  0.1863  0.3831  1.4876
12725TIP3    H259667   1.483   2.036   0.566  0.6109  0.4016  1.6036
12726TIP3   OH259668   0.030   1.625   0.493  0.9439 -0.6702 -0.5786
12726TIP3    H159669  -0.038   1.576   0.540 -0.0762 -0.2740 -1.6450
12726TIP3    H259670   0.008   1.614   0.401  2.1303 -0.2429 -0.9113
12727TIP3   OH259671   0.865   3.081   2.938  0.4983  0.6868 -0.0287
12727TIP3    H159672   0.852   3.174   2.918  0.0632  1.0918  2.0976
12727TIP3    H259673   0.955   3.076   2.970  0.3857  0.4435  0.2545
12728TIP3   OH259674   6.361   6.095  16.771  0.1601 -0.0414  0.4385
12728TIP3    H159675   6.286   6.054  16.728  0.0202  1.6001 -0.8980
12728TIP3    H259676   6.388   6.031  16.837 -1.0244 -1.6050 -0.5625
12729TIP3   OH259677   6.178   3.257   5.141  0.0754  0.6430 -0.0375
12729TIP3    H159678   6.226   3.202   5.079 -0.8713 -0.5455  0.2643
12729TIP3    H259679   6.103   3.203   5.167  0.5693  1.0616  2.2873
12730TIP3   OH259680   6.638   6.004  16.675 -0.6142  0.3891 -0.6976
12730TIP3    H159681   6.665   5.914  16.694  0.1230  0.5788 -0.8444
12730TIP3    H259682   6.545   6.007  16.699 -0.2772 -0.0093  0.6542
12731TIP3   OH259683   1.233   3.009   2.006 -0.0718  0.5731 -0.3715
12731TIP3    H159684   1.201   2.919   2.007  1.7101 -0.0868  0.8718
12731TIP3    H259685   1.164   3.059   2.050 -0.1189 -0.5588  0.9102
12732TIP3   OH259686   6.170   3.808   0.430  0.2218  0.3620  0.6650
12732TIP3    H159687   6.239   3.820   0.496  1.7747 -0.5817 -0.7783
12732TIP3    H259688   6.175   3.887   0.376  2.1491 -0.9895 -1.2120
12733TIP3   OH259689   3.502   2.572  16.615  0.2280 -0.5014  0.5897
12733TIP3    H159690   3.420   2.553  16.569 -1.0073  1.1582  2.0335
12733TIP3    H259691   3.571   2.558  16.550 -1.3151 -0.4879 -1.0608
12734TIP3   OH259692   2.063   4.254  11.248 -0.2704  0.2972  0.1243
12734TIP3    H159693   2.053   4.349  11.256  1.8856  0.4875  0.9461
12734TIP3    H259694   2.093   4.241  11.158  3.0425  0.7807  1.0914
12735TIP3   OH259695   6.351   5.309   3.115 -0.2837  0.3492 -0.1734
12735TIP3    H159696   6.384   5.221   3.096  0.6537  0.5664  0.4061
12735TIP3    H259697   6.405   5.367   3.060 -0.7139  0.5810 -0.3488
12736TIP3   OH259698   3.535   6.013   2.039 -0.4069 -0.0116  0.6861
12736TIP3    H159699   3.568   5.924   2.055 -0.8708 -0.2431  0.3731
12736TIP3    H259700   3.442   6.000   2.020 -1.0086  0.7517  2.9388
12737TIP3   OH259701   5.987   5.557  12.093 -0.0888 -0.3582  0.0279
12737TIP3    H159702   5.940   5.633  12.058  0.6130 -0.1767 -0.5318
12737TIP3    H259703   6.038   5.524  12.018  1.5120  0.0869  0.9023
12738TIP3   OH259704   1.875   1.064  14.806 -0.5611  0.2751  0.1879
12738TIP3    H159705   1.903   1.035  14.893 -1.2310 -1.3674 -0.1110
12738TIP3    H259706   1.957   1.083  14.760  0.0964 -3.1467 -0.2298
12739TIP3   OH259707   0.649   4.080   0.156 -0.1428 -0.4851 -0.3003
12739TIP3    H159708   0.687   4.061   0.242 -1.6335  0.4318  0.5700
12739TIP3    H259709   0.667   4.001   0.104  2.7928 -0.1576  0.1116
12740TIP3   OH259710   5.506   1.936  10.834  0.1442  0.3521  0.2957
12740TIP3    H159711   5.575   1.894  10.886  2.2722  1.1250 -1.8071
12740TIP3    H259712   5.473   2.007  10.890  0.6482 -0.3795  1.5402
12741TIP3   OH259713   0.107   3.375   1.782  0.5563 -0.4320  0.2829
12741TIP3    H159714   0.030   3.324   1.806 -1.6422  2.1199 -1.0343
12741TIP3    H259715   0.114   3.440   1.852 -0.1611  1.0512 -0.9921
12742TIP3   OH259716   1.077   5.325   0.950  0.2544 -0.2413  0.0053
12742TIP3    H159717   1.108   5.290   0.867 -0.0110  1.1059 -0.6615
12742TIP3    H259718   1.136   5.398   0.969 -0.8526  0.6430  0.0582
12743TIP3   OH259719   5.171   6.740   4.190 -0.5501 -0.2658  0.0504
12743TIP3    H159720   5.239   6.794   4.230 -0.2905 -0.1147 -0.6017
12743TIP3    H259721   5.094   6.754   4.245 -0.5362  0.9180 -0.2294
12744TIP3   OH259722   1.780   1.061  13.361 -0.3497  0.5403 -0.1856
12744TIP3    H159723   1.807   1.016  13.441  0.3598 -0.3286 -0.9055
12744TIP3    H259724   1.811   1.151  13.373  3.2337 -0.4893 -1.1120
12745TIP3   OH259725   0.356   0.661   3.893 -0.7124 -0.1236  0.0916
12745TIP3    H159726   0.285   0.638   3.954 -1.0126  2.3109  0.7104
12745TIP3    H259727   0.374   0.753   3.911  1.1517 -0.1380 -1.5679
12746TIP3   OH259728   5.641   3.738  12.703 -0.3305 -0.5437 -0.2586
12746TIP3    H159729   5.689   3.709  12.781 -0.1428 -2.5731 -1.0923
12746TIP3    H259730   5.607   3.657  12.664 -3.5247  0.7141 -0.3104
12747TIP3   OH259731   5.211   3.200   2.260 -0.4806 -0.5972 -0.1587
12747TIP3    H159732   5.275   3.225   2.194 -1.1805  2.0447  0.1304
12747TIP3    H259733   5.126   3.211   2.218 -0.8387 -2.7708 -0.0919
12748TIP3   OH259734   3.727   3.875  15.776 -1.0155  0.1396 -0.0233
12748TIP3    H159735   3.815   3.854  15.743 -1.0879  0.0076 -0.1344
12748TIP3    H259736   3.718   3.821  15.854 -1.0183  0.1114 -0.0427
12749TIP3   OH259737   2.681   3.892  15.271 -0.0856 -0.0735  0.3896
12749TIP3    H159738   2.665   3.850  15.187  0.1174 -0.5743  0.5958
12749TIP3    H259739   2.766   3.858  15.300 -0.0635  0.2407  0.7067
12750TIP3   OH259740   4.186   0.770   3.396 -0.2661 -0.9508 -0.4433
12750TIP3    H159741   4.278   0.743   3.404  0.0342  0.1297 -0.2771
12750TIP3    H259742   4.173   0.833   3.466 -1.2783 -1.4577 -0.1604
12751TIP3   OH259743   3.281   1.323   4.885 -0.4631 -0.0442 -0.2846
12751TIP3    H159744   3.260   1.304   4.977 -2.6390  1.5165 -0.4129
12751TIP3    H259745   3.225   1.263   4.835 -2.5378  2.0860 -0.6010
12752TIP3   OH259746   6.099   2.425  14.957 -0.3109 -0.2700  0.5099
12752TIP3    H159747   6.078   2.387  15.042 -1.2702 -0.8330  0.0297
12752TIP3    H259748   6.143   2.507  14.978 -1.8235  0.3069  1.5472
12753TIP3   OH259749   4.641   5.592   2.011 -0.3374 -0.5106  0.1298
12753TIP3    H159750   4.604   5.505   2.026  2.0144 -1.8453 -1.5058
12753TIP3    H259751   4.593   5.627   1.936 -0.8342 -0.6503  0.3794
12754TIP3   OH259752   6.240   4.632   0.076  0.3337  0.4297 -0.6302
12754TIP3    H159753   6.168   4.615   0.015 -0.5191  2.1978 -0.1248
12754TIP3    H259754   6.268   4.721   0.057  1.1125  0.4365  0.5051
12755TIP3   OH259755   1.288   3.825  11.851 -0.0995 -0.1149 -0.3658
12755TIP3    H159756   1.294   3.860  11.762  1.5501 -1.4469 -0.8400
12755TIP3    H259757   1.229   3.884  11.897 -0.1820  1.1856 -2.0717
12756TIP3   OH259758   0.397   5.133   4.736 -0.4328  0.1288  0.1272
12756TIP3    H159759   0.335   5.089   4.793 -0.2278 -1.6189 -0.9312
12756TIP3    H259760   0.346   5.200   4.690 -0.5209  1.7770  2.5469
12757TIP3   OH259761   6.005   4.202  11.676 -0.3220  0.2728 -0.4924
12757TIP3    H159762   6.043   4.115  11.687  0.2634  0.4137 -1.3172
12757TIP3    H259763   6.076   4.262  11.698 -1.1346  0.5547  1.4117
12758TIP3   OH259764   4.036   3.567   3.319 -0.3288 -0.5884 -0.3951
12758TIP3    H159765   4.102   3.589   3.254 -0.2003  1.1725  0.2990
12758TIP3    H259766   3.964   3.627   3.302 -0.2400 -0.0233  1.1524
12759TIP3   OH259767   1.766   4.744   0.971  0.5324 -0.2595 -0.0289
12759TIP3    H159768   1.769   4.651   0.995 -0.4483 -0.1466  0.5702
12759TIP3    H259769   1.856   4.774   0.982  1.0961 -1.4230 -1.3816
12760TIP3   OH259770   4.743   4.739   3.116 -0.1453  0.1437  0.2128
12760TIP3    H159771   4.740   4.788   3.034  0.8216  0.4135  0.3359
12760TIP3    H259772   4.654   4.705   3.126  0.3577 -2.0260 -2.2238
12761TIP3   OH259773   5.126   1.771   4.701  1.0637  0.3722  0.1272
12761TIP3    H159774   5.164   1.833   4.639 -1.1019  2.0415  0.3835
12761TIP3    H259775   5.171   1.789   4.784 -0.5952  2.7465  0.5751
12762TIP3   OH259776   4.482   6.781   1.205 -0.4829 -0.2827 -0.2157
12762TIP3    H159777   4.558   6.751   1.255 -0.0841  0.7788 -0.1726
12762TIP3    H259778   4.494   6.742   1.118 -0.9761 -1.8064  0.3893
12763TIP3   OH259779   5.101   0.589  13.715 -0.4618 -0.0346 -0.5123
12763TIP3    H159780   5.050   0.517  13.753  0.3796 -1.6986 -2.4533
12763TIP3    H259781   5.037   0.641  13.666 -0.7848 -0.4651 -0.5499
12764TIP3   OH259782   3.526   3.418   4.155  0.5197 -0.2836  0.7480
12764TIP3    H159783   3.506   3.392   4.065  1.4387  0.1456  0.4133
12764TIP3    H259784   3.505   3.340   4.207 -1.0168 -0.1802  0.3027
12765TIP3   OH259785   3.840   2.474  10.499  0.4749  0.3376 -0.1616
12765TIP3    H159786   3.770   2.536  10.519  0.2353  0.3105 -0.8815
12765TIP3    H259787   3.814   2.435  10.415  1.7223  0.8927 -0.8250
12766TIP3   OH259788   4.417   5.954   1.451 -0.2032 -0.0991 -0.1094
12766TIP3    H159789   4.504   5.920   1.470 -0.0449  0.8602  0.8916
12766TIP3    H259790   4.357   5.891   1.492  0.0657  0.2779  0.8743
12767TIP3   OH259791   6.291   2.909  12.176 -0.1079 -0.4041  0.1856
12767TIP3    H159792   6.352   2.860  12.231  1.5474  1.9021  0.4509
12767TIP3    H259793   6.324   2.900  12.087  0.4140  0.5242  0.2813
12768TIP3   OH259794   1.727   3.097   5.530 -0.2786  0.1412  0.8835
12768TIP3    H159795   1.639   3.067   5.550 -0.5157  0.0978 -0.1712
12768TIP3    H259796   1.746   3.164   5.595 -1.3899  0.6932  0.6452
12769TIP3   OH259797   6.216   6.371  14.579  0.2124  0.6693 -0.4017
12769TIP3    H159798   6.242   6.448  14.528  0.3338  0.2296 -1.0060
12769TIP3    H259799   6.264   6.298  14.538 -1.4867 -0.0582 -1.1210
12770TIP3   OH259800   0.746   4.790   0.382 -0.0754  0.2572 -0.3852
12770TIP3    H159801   0.751   4.714   0.439 -1.2791  1.7280  1.7667
12770TIP3    H259802   0.730   4.864   0.441  1.5568  2.2727 -2.3464
12771TIP3   OH259803   3.575   4.013  14.466 -0.3193 -0.4674  0.5162
12771TIP3    H159804   3.599   4.010  14.559 -0.8416 -0.8474  0.6444
12771TIP3    H259805   3.626   3.944  14.425 -0.3734 -0.5535  0.5929
12772TIP3   OH259806   4.570   5.025   2.048  0.0973  0.0989 -0.4769
12772TIP3    H159807   4.584   4.937   2.014  0.8010 -0.2130  0.6069
12772TIP3    H259808   4.475   5.032   2.060  0.1575 -0.9738  0.6806
12773TIP3   OH259809   6.322   6.707  14.087  0.2734 -0.6226 -0.2418
12773TIP3    H159810   6.370   6.730  14.167  1.7120 -0.1469 -1.2221
12773TIP3    H259811   6.272   6.786  14.066  2.3775  0.4109 -1.5652
12774TIP3   OH259812   1.246   0.006   5.586 -0.2839 -0.3706  0.1977
12774TIP3    H159813   1.240   0.023   5.492 -2.1933 -1.1642  0.1529
12774TIP3    H259814   1.290  -0.079   5.592 -0.2396 -0.3603  0.0223
12775TIP3   OH259815   3.355   0.665  11.405 -0.1107 -0.3868  0.0174
12775TIP3    H159816   3.426   0.607  11.378  0.8923  1.1882 -0.7272
12775TIP3    H259817   3.284   0.646  11.344  0.7712  0.3224 -1.2353
12776TIP3   OH259818   4.069   3.336  16.109  0.7148  0.0571 -0.2635
12776TIP3    H159819   4.130   3.302  16.044  1.1635 -0.3012  0.3428
12776TIP3    H259820   4.124   3.358  16.184  0.4044  1.8508 -0.5358
12777TIP3   OH259821   1.211   5.684   0.363  0.0495  0.4662 -0.2818
12777TIP3    H159822   1.258   5.759   0.327 -0.7195  1.1974  0.2297
12777TIP3    H259823   1.265   5.609   0.340  1.0255  1.2128 -0.4587
12778TIP3   OH259824   2.001   2.157  15.224 -0.5458 -0.8821 -0.0796
12778TIP3    H159825   2.050   2.240  15.225 -0.1343 -1.1344  1.0673
12778TIP3    H259826   1.952   2.160  15.141  0.1402  0.1104 -0.4699
12779TIP3   OH259827   5.522   0.616   3.661 -0.0766 -0.0602  0.0482
12779TIP3    H159828   5.500   0.636   3.751 -1.9785 -1.1074 -0.1628
12779TIP3    H259829   5.554   0.699   3.625 -0.2173  0.5926  1.4028
12780TIP3   OH259830   5.753   2.149  14.624 -0.4175 -0.4388 -0.0577
12780TIP3    H159831   5.742   2.056  14.606 -1.6026 -0.4525  0.7081
12780TIP3    H259832   5.815   2.179  14.558  1.3160 -2.1324  0.7402
12781TIP3   OH259833   0.613   3.737  13.957  0.0874  0.0827 -0.7585
12781TIP3    H159834   0.621   3.658  13.904 -0.5801  0.3828 -1.3171
12781TIP3    H259835   0.611   3.705  14.047 -0.1227 -0.5377 -0.9783
12782TIP3   OH259836   2.842   6.503   0.902 -0.1677  0.0975  0.4521
12782TIP3    H159837   2.772   6.539   0.957 -2.2559  0.6521 -2.4178
12782TIP3    H259838   2.816   6.412   0.887  0.2842  0.0038  0.2419
12783TIP3   OH259839   1.762   2.002  14.825  0.1743 -0.4173 -0.4809
12783TIP3    H159840   1.707   2.055  14.768 -1.0601 -1.6098 -0.4498
12783TIP3    H259841   1.806   2.064  14.882  0.2836  0.6851 -1.7666
12784TIP3   OH259842   6.072   2.442   5.516 -0.2655  0.3402 -0.0866
12784TIP3    H159843   5.997   2.427   5.459  0.0289 -0.5498 -0.2569
12784TIP3    H259844   6.147   2.407   5.467 -0.0290 -0.5912  0.8919
12785TIP3   OH259845   0.700   6.498   1.074 -0.1974 -0.0148  0.9249
12785TIP3    H159846   0.613   6.482   1.112 -0.5017 -0.5742  0.0286
12785TIP3    H259847   0.683   6.552   0.997  0.3280  0.4917  1.1676
12786TIP3   OH259848   0.982   3.645   1.839  0.2230 -0.6710  0.4381
12786TIP3    H159849   1.036   3.572   1.868 -0.8567 -1.2321  1.0897
12786TIP3    H259850   0.979   3.704   1.915  4.0356  1.8618 -1.2299
12787TIP3   OH259851   3.209   0.789  17.204  0.2724  0.1808  0.8243
12787TIP3    H159852   3.301   0.813  17.193  0.4754 -0.9990 -0.0914
12787TIP3    H259853   3.203   0.762  17.296  0.2181  2.8943  1.6513
12788TIP3   OH259854   3.897   2.690  14.031 -0.1507  0.3128  0.7094
12788TIP3    H159855   3.839   2.691  13.955  0.6409 -0.4160  0.0989
12788TIP3    H259856   3.950   2.611  14.021  1.1263  1.0969  1.1524
12789TIP3   OH259857   6.508   1.354  13.494 -0.4752  0.4232  0.2992
12789TIP3    H159858   6.456   1.422  13.537 -0.7832  1.8587 -2.2367
12789TIP3    H259859   6.445   1.305  13.442 -0.1536 -1.4790  1.6793
12790TIP3   OH259860   2.829   2.799  16.154  0.1535  0.4117 -0.7169
12790TIP3    H159861   2.756   2.763  16.105  0.1925 -0.1631 -0.3614
12790TIP3    H259862   2.894   2.729  16.156  0.1117  0.3855  0.2384
12791TIP3   OH259863   5.902   6.763   3.139 -0.1925  0.2358 -0.4941
12791TIP3    H159864   5.991   6.728   3.130 -0.7391 -0.9539 -1.3459
12791TIP3    H259865   5.911   6.833   3.204  1.1877 -0.4880  0.1313
12792TIP3   OH259866   0.577   5.543   3.515 -0.3823 -0.1507  0.0680
12792TIP3    H159867   0.595   5.617   3.456 -3.3191 -0.2126 -0.9942
12792TIP3    H259868   0.598   5.466   3.463 -0.1337 -0.1353  0.1449
12793TIP3   OH259869   0.521   3.914   3.776 -0.5586 -0.3567 -0.5327
12793TIP3    H159870   0.574   3.928   3.698  0.5150 -1.2885  0.0088
12793TIP3    H259871   0.488   3.825   3.767  1.7264 -1.4435  1.3051
12794TIP3   OH259872   1.733   0.804   4.163 -0.0850  0.1651  0.0329
12794TIP3    H159873   1.701   0.858   4.091 -0.4408  0.9959  0.8016
12794TIP3    H259874   1.776   0.730   4.120  0.0413  0.8390 -1.0297
12795TIP3   OH259875   6.032   3.194   0.220 -0.1406  0.7022  0.1961
12795TIP3    H159876   5.975   3.118   0.208 -0.5067  0.6549  2.1799
12795TIP3    H259877   5.974   3.263   0.251  0.4878  1.3343 -0.0230
12796TIP3   OH259878   4.701   3.914  15.371 -0.2072  0.2859 -0.7746
12796TIP3    H159879   4.702   3.849  15.300 -0.5734  0.2228 -0.7228
12796TIP3    H259880   4.710   3.862  15.451  0.3637  0.3690 -0.7794
12797TIP3   OH259881   6.759   2.201  17.136  0.3497 -0.3275 -0.5578
12797TIP3    H159882   6.785   2.219  17.045  1.4015 -1.0616 -0.4141
12797TIP3    H259883   6.758   2.287  17.178  0.2027 -0.0211 -1.1814
12798TIP3   OH259884   1.992   1.736  17.139 -0.2402 -0.0918  0.4041
12798TIP3    H159885   1.905   1.751  17.177  0.4760  1.8519  1.3700
12798TIP3    H259886   1.980   1.746  17.045 -0.9403  0.8909  0.5888
12799TIP3   OH259887   5.848   3.834  16.978  0.0424 -0.0833 -0.4101
12799TIP3    H159888   5.795   3.913  16.964  0.4726  1.0509  3.6705
12799TIP3    H259889   5.917   3.839  16.912 -1.5837  1.4691 -2.0419
12800TIP3   OH259890   1.949   6.342   0.438 -0.4931  0.3791  1.2195
12800TIP3    H159891   1.881   6.354   0.503 -0.9551 -3.0673  1.4715
12800TIP3    H259892   2.027   6.320   0.489 -0.5811 -1.1746  0.7274
12801TIP3   OH259893   4.716   3.268  12.182 -0.0061 -0.7113 -0.0508
12801TIP3    H159894   4.683   3.330  12.247 -3.1515 -1.1602 -1.1175
12801TIP3    H259895   4.705   3.182  12.222  0.2468 -0.8543 -0.2842
12802TIP3   OH259896   1.405   0.241   5.125 -0.0362  0.0296  0.1058
12802TIP3    H159897   1.366   0.240   5.037 -0.2393 -0.0805  0.1947
12802TIP3    H259898   1.470   0.171   5.123  0.9570  0.9723 -0.3959
12803TIP3   OH259899   1.600   2.686  12.430 -0.0428  0.6073 -0.0814
12803TIP3    H159900   1.543   2.711  12.502  1.2635 -0.4231  1.3400
12803TIP3    H259901   1.558   2.610  12.391 -0.0948  0.3912  0.3979
12804TIP3   OH259902   5.947   4.188  13.771 -0.2544 -0.0214  0.0212
12804TIP3    H159903   6.009   4.261  13.772  0.1252 -0.3413  1.7436
12804TIP3    H259904   5.940   4.163  13.679 -0.3706  2.1646 -0.5955
12805TIP3   OH259905   5.412   6.704  16.528  0.1899 -0.0439 -0.2935
12805TIP3    H159906   5.423   6.783  16.475  0.6679 -0.3091 -0.5981
12805TIP3    H259907   5.475   6.642  16.490 -0.1199 -0.5344  0.0031
12806TIP3   OH259908   5.526   3.933   1.555 -0.1695 -0.1419  0.8079
12806TIP3    H159909   5.552   3.874   1.626 -1.8104 -0.1299  1.4331
12806TIP3    H259910   5.467   3.881   1.501  0.9799 -0.1058 -0.5004
12807TIP3   OH259911   6.028   5.802   0.860 -0.6694  0.1454 -0.0543
12807TIP3    H159912   6.104   5.753   0.891  0.7214  1.8588 -0.6762
12807TIP3    H259913   5.987   5.744   0.795  0.4977 -0.5095 -0.2253
12808TIP3   OH259914   3.303   5.062  11.350 -0.3131  0.0005 -0.2283
12808TIP3    H159915   3.248   5.018  11.286 -0.1076 -1.5947  0.6870
12808TIP3    H259916   3.341   5.135  11.301 -3.5805  1.4579 -0.7643
12809TIP3   OH259917   1.282   4.863  13.241 -0.1511 -0.0345 -0.1657
12809TIP3    H159918   1.210   4.914  13.205  1.4341  1.5331 -1.2267
12809TIP3    H259919   1.343   4.929  13.276  0.7463 -1.3217  0.7619
12810TIP3   OH259920   1.684   1.618   1.308  0.7004  0.7524  0.5227
12810TIP3    H159921   1.714   1.527   1.308  0.1525  0.5652  1.7293
12810TIP3    H259922   1.764   1.670   1.321  1.0209  0.4503 -0.2306
12811TIP3   OH259923   0.788   5.267  15.305  0.2452 -0.5654 -0.2587
12811TIP3    H159924   0.705   5.221  15.318  0.0847 -0.0302  0.7320
12811TIP3    H259925   0.763   5.358  15.290  0.5759 -0.7215 -1.8390
12812TIP3   OH259926   4.131   5.782   3.151  1.2630  0.1550  0.1405
12812TIP3    H159927   4.043   5.814   3.128  1.1939 -0.4899 -0.4941
12812TIP3    H259928   4.179   5.861   3.175  0.0369  0.3415  2.0506
12813TIP3   OH259929   3.613   5.292  16.809  0.2101 -0.6523 -0.2772
12813TIP3    H159930   3.639   5.364  16.866 -0.6747 -1.3161  0.9810
12813TIP3    H259931   3.526   5.317  16.778 -0.6127 -1.7099  1.1088
12814TIP3   OH259932   2.993   1.677   1.180 -0.0303 -0.2108 -0.0867
12814TIP3    H159933   2.949   1.713   1.256  1.6106 -0.9557  1.2525
12814TIP3    H259934   2.926   1.673   1.112 -1.2096  1.5809  0.9534
12815TIP3   OH259935   5.673   4.933  15.576 -0.4624  0.0293 -0.4193
12815TIP3    H159936   5.639   5.007  15.526  0.8916  0.7595 -0.2784
12815TIP3    H259937   5.622   4.858  15.545 -0.7404  0.7476 -1.7441
12816TIP3   OH259938   4.309   2.203  16.170 -0.2967 -0.0415  0.1242
12816TIP3    H159939   4.265   2.263  16.109  1.0041  2.8040  1.8580
12816TIP3    H259940   4.391   2.180  16.127 -0.2737  0.3620 -0.0505
12817TIP3   OH259941   5.588   3.396   6.022 -0.1432  0.3068  0.0111
12817TIP3    H159942   5.577   3.469   5.961 -1.1999 -0.5398 -0.8292
12817TIP3    H259943   5.533   3.420   6.097 -0.3737  0.4571 -0.2005
12818TIP3   OH259944   5.024   1.928   5.561  0.0283 -0.3719  0.1139
12818TIP3    H159945   4.938   1.953   5.595 -1.0332 -1.7878 -1.4538
12818TIP3    H259946   5.035   1.978   5.481  0.7900  0.0090  0.4513
12819TIP3   OH259947   2.291   3.941   4.735  0.6697 -0.1428  0.1865
12819TIP3    H159948   2.295   3.861   4.789  2.0349  0.4680  1.0406
12819TIP3    H259949   2.226   3.996   4.779 -0.3006 -0.7971 -0.4243
12820TIP3   OH259950   1.193   0.199  11.450  0.3191  0.0906 -0.5782
12820TIP3    H159951   1.284   0.210  11.478  0.9925 -0.4103 -2.5047
12820TIP3    H259952   1.147   0.166  11.527  2.1457 -1.3954 -0.1141
12821TIP3   OH259953   5.374   6.776   4.929  0.2914  0.4478 -0.0418
12821TIP3    H159954   5.365   6.776   4.834 -3.0758  1.5345  0.2245
12821TIP3    H259955   5.366   6.684   4.954  1.4971  0.1231 -0.7992
12822TIP3   OH259956   6.798   0.063  11.076  0.4489 -0.1998  0.1907
12822TIP3    H159957   6.879   0.041  11.031 -0.4888  2.3419 -2.9406
12822TIP3    H259958   6.802   0.158  11.087 -3.1242  0.3379 -2.2337
12823TIP3   OH259959   6.736   3.920  12.730 -0.2974 -0.7505  0.3560
12823TIP3    H159960   6.705   3.990  12.787 -0.1074  1.3074 -1.9687
12823TIP3    H259961   6.668   3.911  12.663  1.5530  0.1217 -1.7220
12824TIP3   OH259962   4.397   6.647  11.756 -0.7817 -0.6057 -0.2488
12824TIP3    H159963   4.338   6.719  11.734 -0.0708  0.6523  1.8404
12824TIP3    H259964   4.376   6.626  11.847  3.1669  1.0684  1.1448
12825TIP3   OH259965   1.018   2.061   3.745  0.2404 -0.3167  0.4813
12825TIP3    H159966   0.957   2.135   3.744  1.5632  0.7795  0.2707
12825TIP3    H259967   1.022   2.032   3.653 -2.0248 -2.1361  0.9032
12826TIP3   OH259968   2.518   0.276  10.905 -0.0477 -0.1373  0.0044
12826TIP3    H159969   2.492   0.241  10.820 -1.2525  0.8951 -0.0637
12826TIP3    H259970   2.438   0.311  10.942  0.6155  0.0857  1.2518
12827TIP3   OH259971   3.711   0.870  11.875 -0.4202  0.5182 -0.1232
12827TIP3    H159972   3.756   0.785  11.870 -0.7515  0.3607 -0.5080
12827TIP3    H259973   3.623   0.849  11.904 -0.5542  0.7138 -0.3891
12828TIP3   OH259974   4.125   0.163   0.760  1.0285 -0.0512 -0.0328
12828TIP3    H159975   4.109   0.093   0.697 -0.4036 -0.0575  0.3029
12828TIP3    H259976   4.174   0.121   0.831 -2.1982 -1.4582  1.4899
12829TIP3   OH259977   1.809   5.489  15.815 -0.1511 -0.1585 -0.2132
12829TIP3    H159978   1.819   5.472  15.721  1.4647  1.2241 -0.2970
12829TIP3    H259979   1.718   5.516  15.824 -0.4761 -0.8396 -1.2951
12830TIP3   OH259980   2.045   1.304  13.639 -0.0671  0.1791  0.2195
12830TIP3    H159981   2.054   1.336  13.729 -0.4254  0.4110  0.1731
12830TIP3    H259982   2.111   1.353  13.589 -0.3674  0.5794  0.2163
12831TIP3   OH259983   1.586   3.833  13.330  0.2439 -0.0574 -0.1814
12831TIP3    H159984   1.613   3.783  13.252  1.3170 -1.7777  1.2425
12831TIP3    H259985   1.666   3.878  13.358  0.4480 -1.2620  1.2214
12832TIP3   OH259986   4.076   4.106  13.060 -0.0851  0.2482 -0.1905
12832TIP3    H159987   4.049   4.195  13.040 -1.3820 -0.3660 -1.2285
12832TIP3    H259988   3.998   4.064  13.095  0.5283 -0.4758  0.3393
12833TIP3   OH259989   4.358   6.515   2.427 -0.1697  0.3489 -0.0707
12833TIP3    H159990   4.302   6.494   2.502  0.8112  0.8241  0.8019
12833TIP3    H259991   4.371   6.432   2.382 -0.5267  0.0136  0.4453
12834TIP3   OH259992   5.827   2.184   2.034  0.5809 -0.4440  0.4219
12834TIP3    H159993   5.851   2.091   2.033 -0.0530 -0.6158  0.9308
12834TIP3    H259994   5.796   2.200   2.123 -1.1253 -0.2196 -0.1935
12835TIP3   OH259995   3.368   6.106   5.277 -0.4396 -0.2361  0.3200
12835TIP3    H159996   3.276   6.134   5.276  0.1283  1.6743  0.1320
12835TIP3    H259997   3.399   6.129   5.365  0.1516  0.1101  0.0213
12836TIP3   OH259998   5.403   5.051  13.631 -1.1670 -0.4592 -0.5893
12836TIP3    H159999   5.467   4.993  13.673 -0.6842 -0.0100 -0.7069
12836TIP3    H260000   5.451   5.132  13.615 -1.9663  0.1211 -0.0464
12837TIP3   OH260001   6.424   4.394   2.539  0.6720  0.1020  0.4283
12837TIP3    H160002   6.388   4.480   2.516 -1.8900 -0.4480  2.0842
12837TIP3    H260003   6.390   4.335   2.472  1.3818  0.1740  0.0086
12838TIP3   OH260004   6.503   4.872   4.465 -0.9099  0.5395 -0.3143
12838TIP3    H160005   6.526   4.782   4.443  1.5915  1.1425 -0.3360
12838TIP3    H260006   6.409   4.877   4.451 -1.0443 -2.0021 -0.5346
12839TIP3   OH260007   1.266   0.940  10.788 -0.0791 -0.1848 -0.5610
12839TIP3    H160008   1.256   1.033  10.768 -0.4843 -0.1088 -0.0157
12839TIP3    H260009   1.354   0.933  10.826  1.0985 -0.4816 -3.1964
12840TIP3   OH260010   4.407   2.180   1.894  0.4007  0.3692  0.5452
12840TIP3    H160011   4.413   2.169   1.799  0.6823 -0.0937  0.6118
12840TIP3    H260012   4.324   2.138   1.918  0.6935 -0.1995  0.5930
12841TIP3   OH260013   4.337   4.045  14.018  0.2050 -0.1507  0.5171
12841TIP3    H160014   4.384   3.995  14.085  0.9600 -1.0205 -0.6437
12841TIP3    H260015   4.257   4.074  14.061  2.0284  1.8237  2.7063
12842TIP3   OH260016   2.225   0.964  15.500  0.3878  0.9042 -0.6961
12842TIP3    H160017   2.229   0.984  15.407 -1.1579  2.0969 -0.5327
12842TIP3    H260018   2.313   0.982  15.533  1.0235  0.1545 -1.9831
12843TIP3   OH260019   6.050   6.243  11.706  0.5391  0.1005  0.5267
12843TIP3    H160020   6.124   6.193  11.671 -0.9128 -1.7416  0.0061
12843TIP3    H260021   6.056   6.328  11.662  1.5126 -0.5157 -0.5726
12844TIP3   OH260022   6.772   4.392  12.401 -0.0048 -0.1754  0.3293
12844TIP3    H160023   6.780   4.373  12.308  0.7057 -1.5724  0.6614
12844TIP3    H260024   6.745   4.484  12.405 -1.7719 -0.5845 -1.2854
12845TIP3   OH260025   5.205   3.547   4.714 -0.0262 -0.0405  0.5320
12845TIP3    H160026   5.155   3.535   4.795 -0.5489  1.6573  0.4684
12845TIP3    H260027   5.220   3.641   4.708 -0.3433 -0.0964 -1.5641
12846TIP3   OH260028   4.949   3.184  14.497 -0.1899  0.8028 -0.3143
12846TIP3    H160029   4.972   3.206  14.407 -0.2540 -1.3713 -0.8845
12846TIP3    H260030   5.033   3.167  14.540 -0.1858  1.4564 -0.0522
12847TIP3   OH260031   1.354   3.694  13.518 -0.0768  1.3033  0.5972
12847TIP3    H160032   1.373   3.739  13.435 -1.5093  4.1375  1.7487
12847TIP3    H260033   1.410   3.617  13.516 -0.9941  0.5870 -3.6052
12848TIP3   OH260034   0.276   0.400   1.057 -0.0389  0.0878  0.1116
12848TIP3    H160035   0.364   0.417   1.024  0.1638 -0.2370  0.4880
12848TIP3    H260036   0.219   0.411   0.980  0.1984  1.3945  0.1175
12849TIP3   OH260037   3.525   3.330  13.052 -0.1752  0.0539 -0.6934
12849TIP3    H160038   3.534   3.417  13.091  0.1040  1.4876 -3.7593
12849TIP3    H260039   3.616   3.301  13.038 -0.2684 -0.4199 -0.2977
12850TIP3   OH260040   2.163   4.223   2.247  0.3102  0.2753  0.5743
12850TIP3    H160041   2.165   4.139   2.201  1.1592  1.6174 -1.9573
12850TIP3    H260042   2.078   4.261   2.225  1.0150  1.2484 -0.5918
12851TIP3   OH260043   4.650   0.286  16.358 -0.4214 -0.2771 -0.1590
12851TIP3    H160044   4.576   0.228  16.337  0.7299 -0.9463 -2.5715
12851TIP3    H260045   4.659   0.280  16.453 -1.8223 -2.2259 -0.1210
12852TIP3   OH260046   4.418   3.323   1.258 -0.2738  0.0468  0.2475
12852TIP3    H160047   4.423   3.388   1.327  1.2751  1.2752 -1.0010
12852TIP3    H260048   4.398   3.373   1.179 -2.1319 -1.3461 -0.2130
12853TIP3   OH260049   4.821   5.788   3.819  0.1678 -0.1765  0.6784
12853TIP3    H160050   4.799   5.720   3.882  0.0176 -0.9003 -0.1461
12853TIP3    H260051   4.771   5.766   3.740 -0.9595  1.6622  0.8383
12854TIP3   OH260052   6.451   0.976  13.992 -0.0717 -1.1614  0.0409
12854TIP3    H160053   6.501   0.932  14.060  2.1701  1.7206  0.3717
12854TIP3    H260054   6.502   0.962  13.912 -2.0843 -3.5408 -0.8632
12855TIP3   OH260055   5.649   3.571  14.922 -0.4918  0.5954  0.1997
12855TIP3    H160056   5.692   3.564  14.836 -0.7826 -1.6285  0.2103
12855TIP3    H260057   5.720   3.588  14.983 -0.0968  0.7660 -0.3010
12856TIP3   OH260058   1.828   4.984   5.460  0.4978  0.2837  0.9661
12856TIP3    H160059   1.770   5.047   5.501  2.8816  2.5449  1.0102
12856TIP3    H260060   1.798   4.899   5.492 -3.5000  1.2303  0.0108
12857TIP3   OH260061   3.959   6.002   4.004  0.1693 -0.4012 -0.4566
12857TIP3    H160062   3.884   5.979   3.949  0.9330  1.9891 -2.6358
12857TIP3    H260063   4.005   6.069   3.954  0.7487  2.1691  3.2989
12858TIP3   OH260064   4.329   1.807  13.609 -0.1773 -0.3114 -0.5697
12858TIP3    H160065   4.405   1.807  13.551 -0.1913 -3.8481 -0.6564
12858TIP3    H260066   4.360   1.851  13.688  2.0034 -1.7617 -0.5694
12859TIP3   OH260067   6.619   6.523   0.861 -0.0510  0.8545  0.1558
12859TIP3    H160068   6.554   6.456   0.882 -0.7561  1.7206  0.7861
12859TIP3    H260069   6.694   6.474   0.827 -0.8682 -0.1878 -0.1815
12860TIP3   OH260070   4.068   4.644   4.467  0.8469 -0.0257 -0.0629
12860TIP3    H160071   4.104   4.698   4.537 -1.1187  1.1095  0.1090
12860TIP3    H260072   3.999   4.594   4.508 -0.1650  0.4741 -1.1156
12861TIP3   OH260073   1.945   1.334   1.105  0.3414  0.4493 -0.5539
12861TIP3    H160074   1.978   1.399   1.042  0.5184 -0.0852 -1.0195
12861TIP3    H260075   2.009   1.263   1.102 -0.6180 -0.4222 -1.1664
12862TIP3   OH260076   6.461   2.452  12.027  0.0155 -0.1281 -0.9397
12862TIP3    H160077   6.443   2.493  12.111  0.6735  1.6504 -1.6423
12862TIP3    H260078   6.556   2.457  12.017 -0.1354  0.5472 -2.2071
12863TIP3   OH260079   4.844   4.200  16.256 -0.0308 -0.0168  0.0100
12863TIP3    H160080   4.768   4.258  16.254 -0.9234 -1.1870 -0.6823
12863TIP3    H260081   4.910   4.248  16.306 -1.6713  0.4874  1.7441
12864TIP3   OH260082   5.012   3.292   0.481  0.2426  0.0688  0.2229
12864TIP3    H160083   4.989   3.223   0.418  0.3764  0.4156 -0.2073
12864TIP3    H260084   4.961   3.271   0.559 -0.6924  0.2095 -0.3434
12865TIP3   OH260085   5.301   5.123   4.372 -0.1548  0.1446  0.0592
12865TIP3    H160086   5.342   5.057   4.316 -0.1280 -0.3472  0.6493
12865TIP3    H260087   5.256   5.072   4.440 -2.2412  0.6383 -0.8946
12866TIP3   OH260088   6.171   6.644   2.518  0.0257  0.3303  0.0951
12866TIP3    H160089   6.137   6.663   2.430 -2.3490  0.4821  1.0162
12866TIP3    H260090   6.222   6.722   2.541  0.1120  0.5659 -0.8784
12867TIP3   OH260091   0.869   3.332   5.882 -0.2473  0.2575  0.5211
12867TIP3    H160092   0.928   3.332   5.957 -1.2583 -0.0448  1.3337
12867TIP3    H260093   0.922   3.364   5.809  1.2908 -1.3356  0.9135
12868TIP3   OH260094   3.064   1.985  11.404 -0.7927 -0.4575  0.1001
12868TIP3    H160095   3.009   1.920  11.448  0.7179 -1.8240  0.0524
12868TIP3    H260096   3.151   1.973  11.444 -0.0822  0.3092 -1.1929
12869TIP3   OH260097   0.115   6.696   0.902  0.3999  0.1559  0.0503
12869TIP3    H160098   0.129   6.783   0.940  0.8181  1.1594 -2.3535
12869TIP3    H260099   0.199   6.651   0.915  0.8095  0.7779 -0.4126
12870TIP3   OH260100   6.596   0.312   3.181  0.3550  0.3629  0.3941
12870TIP3    H160101   6.525   0.303   3.245  0.1998  0.9667  0.3067
12870TIP3    H260102   6.652   0.380   3.217 -1.6047  3.2614 -1.8236
12871TIP3   OH260103   5.524   4.582   3.425  0.0444 -0.1760  0.1596
12871TIP3    H160104   5.481   4.535   3.497  0.9107  0.2383  0.9699
12871TIP3    H260105   5.457   4.591   3.358 -0.1929 -2.3925  0.0821
12872TIP3   OH260106   3.844   5.049  12.124  0.1578  0.0954  0.4451
12872TIP3    H160107   3.851   5.055  12.029 -2.6379 -2.5848 -0.0216
12872TIP3    H260108   3.822   5.138  12.153  1.9412  1.1236 -1.2934
12873TIP3   OH260109   5.748   0.378   2.633  0.6005  0.6204  0.2723
12873TIP3    H160110   5.842   0.390   2.622  0.7614  0.2074  1.0900
12873TIP3    H260111   5.723   0.442   2.700  0.7396 -0.8148  1.7408
12874TIP3   OH260112   2.003   2.088   4.806 -0.1918 -0.9055  0.6256
12874TIP3    H160113   2.040   2.003   4.781  2.5821 -0.0159  1.5492
12874TIP3    H260114   1.984   2.079   4.900  0.6384 -0.3131  0.8493
12875TIP3   OH260115   1.773   3.079  14.852  0.2365 -0.1903  0.0479
12875TIP3    H160116   1.848   3.139  14.859  0.0487 -0.0399  0.8192
12875TIP3    H260117   1.714   3.107  14.922 -0.5669 -0.2724 -0.6003
12876TIP3   OH260118   5.997   2.248  12.880 -0.0426  0.2555  0.3347
12876TIP3    H160119   5.965   2.206  12.800 -2.1096  0.5712  0.9638
12876TIP3    H260120   5.969   2.189  12.950 -0.4100  1.2009  0.9938
12877TIP3   OH260121   4.298   5.713  11.220 -0.2453  0.6802 -0.3265
12877TIP3    H160122   4.270   5.707  11.128  0.1705 -0.2800 -0.3924
12877TIP3    H260123   4.327   5.804  11.230  1.6412  0.2636 -1.7013
12878TIP3   OH260124   1.942   6.616  11.479 -0.3971  0.9542 -0.0369
12878TIP3    H160125   1.969   6.616  11.388  0.2574  0.1353  0.1510
12878TIP3    H260126   2.017   6.652  11.526  0.6790 -1.9816  0.5702
12879TIP3   OH260127   2.104   0.920   6.773 -0.7070 -0.0534  0.2109
12879TIP3    H160128   2.104   1.004   6.819 -0.9515 -0.0622  0.2263
12879TIP3    H260129   2.111   0.855   6.843 -2.3631 -0.1180  0.3251
12880TIP3   OH260130   2.823   5.088  16.220  0.5034 -0.0928  0.1047
12880TIP3    H160131   2.766   5.164  16.225 -0.6052 -0.9235  0.4961
12880TIP3    H260132   2.812   5.044  16.305  1.5183 -0.4151  0.0751
12881TIP3   OH260133   4.424   6.425  16.075 -0.0601 -0.1313  0.0122
12881TIP3    H160134   4.514   6.392  16.083  0.3278  0.9564  0.2608
12881TIP3    H260135   4.434   6.514  16.042 -0.9106  0.9093  2.4491
12882TIP3   OH260136   6.063   6.022  16.104  0.0320 -0.3899  0.5390
12882TIP3    H160137   6.078   6.047  16.195 -2.5465  0.4086  0.7690
12882TIP3    H260138   6.039   5.929  16.108  0.9859 -0.6408  0.5506
12883TIP3   OH260139   5.909   3.254   5.734 -0.3056 -0.0541  0.0217
12883TIP3    H160140   5.946   3.167   5.720 -3.5383 -1.0032 -3.3665
12883TIP3    H260141   5.875   3.251   5.823  0.3601 -1.9426  0.2411
12884TIP3   OH260142   3.825   0.789  17.153  0.1518 -0.5173 -0.2589
12884TIP3    H160143   3.755   0.854  17.139 -0.7065 -1.2798  0.3897
12884TIP3    H260144   3.894   0.838  17.198  0.0867  0.2742 -0.9993
12885TIP3   OH260145   0.043   6.119  12.232 -0.3658 -0.3761  0.2875
12885TIP3    H160146   0.035   6.038  12.282 -0.6317 -0.2332  0.4803
12885TIP3    H260147   0.136   6.138  12.232 -0.1624 -1.2756 -0.6997
12886TIP3   OH260148   4.987   4.430   2.987 -0.4370 -0.0860  0.3152
12886TIP3    H160149   4.998   4.344   3.027  0.0174 -0.5070 -0.7096
12886TIP3    H260150   4.915   4.418   2.924  2.2170 -0.7576 -2.7123
12887TIP3   OH260151   3.308   2.878   5.978  0.4673  0.5588  0.2951
12887TIP3    H160152   3.262   2.882   6.062 -0.3304 -1.5594 -0.0091
12887TIP3    H260153   3.238   2.875   5.912  1.0782  1.1784 -0.4001
12888TIP3   OH260154   5.537   1.709   4.169 -0.1799 -0.5146 -0.5929
12888TIP3    H160155   5.561   1.673   4.084 -0.2813  0.6000 -1.0976
12888TIP3    H260156   5.449   1.676   4.186 -1.2713  1.4720 -2.1900
12889TIP3   OH260157   5.392   3.172   1.622 -0.3764  0.2554  0.2530
12889TIP3    H160158   5.362   3.102   1.564 -0.7846  0.6490 -0.0163
12889TIP3    H260159   5.446   3.227   1.566  0.4862 -0.1991  0.6246
12890TIP3   OH260160   0.875   4.540  16.903  0.7336 -0.2995 -0.2288
12890TIP3    H160161   0.883   4.632  16.879  0.3732 -0.2881 -0.3136
12890TIP3    H260162   0.962   4.516  16.937  0.6024  0.2884  0.5491
12891TIP3   OH260163   5.964   4.752   6.072 -0.5356 -0.0690  0.2809
12891TIP3    H160164   5.888   4.696   6.092  1.9954 -3.0571  2.0303
12891TIP3    H260165   5.979   4.801   6.153 -0.1929 -0.0117  0.1836
12892TIP3   OH260166   0.031   5.246   2.078 -0.0822 -0.3683 -0.3927
12892TIP3    H160167   0.016   5.172   2.019 -0.3531 -1.4332  0.9596
12892TIP3    H260168  -0.040   5.240   2.142 -0.1721  1.1449 -0.3381
12893TIP3   OH260169   2.263   2.487  12.656 -0.4828 -0.0205  0.2265
12893TIP3    H160170   2.238   2.577  12.677 -0.9170 -0.1430  0.2460
12893TIP3    H260171   2.190   2.434  12.688 -1.0693 -0.2301 -1.3882
12894TIP3   OH260172   3.635   0.617  14.839 -0.4840 -0.7077  1.3148
12894TIP3    H160173   3.652   0.711  14.846  1.2274 -1.0009  1.4711
12894TIP3    H260174   3.600   0.605  14.751  0.7087 -0.1074  0.7454
12895TIP3   OH260175   5.880   6.547   2.486 -0.2927 -0.6217 -0.2497
12895TIP3    H160176   5.812   6.531   2.421  1.0070  0.7293 -2.0047
12895TIP3    H260177   5.949   6.593   2.438  0.8387  0.1569  2.0243
12896TIP3   OH260178   2.940   3.493   5.664  0.0614 -0.2089 -0.2510
12896TIP3    H160179   2.940   3.569   5.606 -1.3154  0.6800  0.8945
12896TIP3    H260180   2.848   3.469   5.672  0.3824 -1.2576  0.3608
12897TIP3   OH260181   3.490   0.668  14.216  0.0495  0.1082  0.1687
12897TIP3    H160182   3.548   0.615  14.271  1.5187  0.3515 -1.1102
12897TIP3    H260183   3.497   0.628  14.129 -1.9734 -0.0578  0.0516
12898TIP3   OH260184   2.372   0.325  10.583 -0.1544 -0.2354 -0.0323
12898TIP3    H160185   2.400   0.416  10.569 -0.5983 -0.2145 -0.8246
12898TIP3    H260186   2.293   0.316  10.530  0.1423 -1.2203 -0.3108
12899TIP3   OH260187   2.981   3.166  15.854  0.6295  0.0992 -0.2292
12899TIP3    H160188   2.995   3.084  15.806  0.0791 -0.2224  0.1527
12899TIP3    H260189   2.896   3.154  15.897  0.5071  0.9076 -0.2417
12900TIP3   OH260190   0.016   6.170   4.070  0.6390  0.0898 -0.1770
12900TIP3    H160191   0.022   6.098   4.133  1.0076 -0.7094 -1.1199
12900TIP3    H260192  -0.066   6.154   4.022  1.0445 -0.0534 -0.8216
12901TIP3   OH260193   4.289   4.794   0.487  0.2109 -0.2052  0.3215
12901TIP3    H160194   4.304   4.724   0.550  2.8967 -0.2686 -0.3401
12901TIP3    H260195   4.288   4.874   0.539  0.1683 -0.4561  0.7074
12902TIP3   OH260196   6.561   3.527   3.334  0.1762 -0.2791  0.1837
12902TIP3    H160197   6.566   3.448   3.279  0.9912 -0.0008 -0.1513
12902TIP3    H260198   6.642   3.526   3.385 -0.0993  0.0140  0.6268
12903TIP3   OH260199   5.903   5.613   0.707  0.6551  0.4936  0.2584
12903TIP3    H160200   5.807   5.612   0.706  0.6576 -0.6171 -0.4777
12903TIP3    H260201   5.928   5.534   0.659  1.9371  0.4304  0.9981
12904TIP3   OH260202   2.087   1.593   4.532 -0.2588 -0.0499  0.0972
12904TIP3    H160203   2.072   1.662   4.597 -0.6865 -0.0925  0.0457
12904TIP3    H260204   2.066   1.635   4.448  0.8273  0.1739 -0.0741
12905TIP3   OH260205   4.071   6.403  13.250  0.1306  0.6927  0.1882
12905TIP3    H160206   4.082   6.351  13.330  0.3308  0.8903  0.2876
12905TIP3    H260207   3.983   6.442  13.259 -0.6764 -0.9040 -0.6265
12906TIP3   OH260208   4.772   4.189   2.805  0.2259 -0.6176 -0.2871
12906TIP3    H160209   4.723   4.107   2.808 -1.1020  0.1595 -0.1172
12906TIP3    H260210   4.705   4.257   2.808  1.4142  0.5289  3.4795
12907TIP3   OH260211   2.487   0.181   0.138 -0.1727  0.5688 -0.1150
12907TIP3    H160212   2.422   0.149   0.201 -0.4068  1.0570 -0.1085
12907TIP3    H260213   2.508   0.104   0.085 -1.6636  0.6835 -0.8980
12908TIP3   OH260214   0.658   5.316  11.362  0.2127 -0.3065  0.3345
12908TIP3    H160215   0.569   5.286  11.345 -0.6805  0.3169  3.5938
12908TIP3    H260216   0.712   5.267  11.300 -2.1857 -1.9587 -0.5177
12909TIP3   OH260217   4.457   3.980  10.887  0.1032  0.0193 -0.3557
12909TIP3    H160218   4.478   3.943  10.973 -0.1852 -0.9779 -0.7049
12909TIP3    H260219   4.536   4.025  10.860 -0.6559  2.6759  1.6379
12910TIP3   OH260220   1.923   5.694   5.011 -0.2494  0.0253 -0.0184
12910TIP3    H160221   1.966   5.630   5.068  3.3862  0.9789 -1.5632
12910TIP3    H260222   1.896   5.643   4.935  1.0294 -0.0392 -0.4447
12911TIP3   OH260223   0.025   1.274   5.687 -0.1471 -0.0320  0.2489
12911TIP3    H160224  -0.022   1.202   5.644 -0.0456 -0.5547  1.0077
12911TIP3    H260225  -0.023   1.353   5.663 -1.4225 -0.5649  1.0395
12912TIP3   OH260226   5.317   5.103   3.900 -0.2576  0.3676  0.5281
12912TIP3    H160227   5.283   5.044   3.967 -0.2038 -0.0686  0.1730
12912TIP3    H260228   5.405   5.126   3.930  0.5567 -1.4194 -0.3770
12913TIP3   OH260229   3.998   6.487  13.906 -0.6552 -0.1543  0.1513
12913TIP3    H160230   3.921   6.442  13.942 -0.5467 -0.2905  0.2119
12913TIP3    H260231   4.071   6.430  13.927 -0.2773  0.9114  1.8241
12914TIP3   OH260232   4.474   6.191   3.935 -0.1869 -0.5752 -0.0730
12914TIP3    H160233   4.526   6.111   3.938 -1.2028 -1.1975  1.3796
12914TIP3    H260234   4.506   6.242   4.011  0.1151  0.1884 -0.7027
12915TIP3   OH260235   0.835   3.979   4.264 -0.2323  0.2605  0.4632
12915TIP3    H160236   0.862   3.926   4.339  1.9211  2.4718  1.3402
12915TIP3    H260237   0.795   3.917   4.203  0.7561 -2.0825  2.1302
12916TIP3   OH260238   4.419   3.405  14.949  0.6765  0.0141  0.5299
12916TIP3    H160239   4.502   3.416  14.903  1.4607  0.6140  2.0707
12916TIP3    H260240   4.413   3.310  14.965  0.3107 -0.2312 -0.9078
12917TIP3   OH260241   5.166   3.054  11.035  0.3515 -0.0337  0.2303
12917TIP3    H160242   5.218   3.134  11.029 -0.6304  0.5635 -0.3795
12917TIP3    H260243   5.204   3.007  11.110  1.1302  0.8539  0.4074
12918TIP3   OH260244   0.180   2.436   5.091 -0.0985  0.1164  0.1228
12918TIP3    H160245   0.171   2.452   4.998  0.7997  0.1335  0.0321
12918TIP3    H260246   0.179   2.340   5.099 -0.8552  0.1292  0.1677
12919TIP3   OH260247   1.448   5.943   2.786  0.0717  0.1163 -0.1610
12919TIP3    H160248   1.430   5.858   2.825  2.0659 -0.6278 -0.8342
12919TIP3    H260249   1.478   5.997   2.860 -0.3580  0.0080  0.0982
12920TIP3   OH260250   4.664   6.660   1.725 -0.2504 -0.5972  0.2139
12920TIP3    H160251   4.643   6.582   1.777 -0.8305 -0.9613 -0.5448
12920TIP3    H260252   4.583   6.680   1.679 -0.3210  0.9161  0.9775
12921TIP3   OH260253   2.103   0.712  12.506 -0.0246  0.0380  0.0312
12921TIP3    H160254   2.157   0.791  12.510 -4.0404  2.9766 -0.4613
12921TIP3    H260255   2.126   0.662  12.584  2.2240  1.9393  0.6333
12922TIP3   OH260256   0.943   1.259   0.790  0.2634 -0.0335  0.3262
12922TIP3    H160257   0.958   1.247   0.884  1.1944  0.6388  0.2664
12922TIP3    H260258   1.029   1.281   0.754  0.2980 -2.1516 -0.9909
12923TIP3   OH260259   3.667   5.718  16.458 -0.3165 -0.2359  0.3742
12923TIP3    H160260   3.686   5.787  16.521 -0.2431 -0.5110  0.6500
12923TIP3    H260261   3.678   5.637  16.507 -0.2550 -0.4482  0.0066
12924TIP3   OH260262   1.424   5.457  12.976  0.5609 -0.1078  0.3193
12924TIP3    H160263   1.405   5.503  12.894 -1.2038  0.6322  1.1107
12924TIP3    H260264   1.519   5.467  12.987  0.4572  1.9677 -0.3574
12925TIP3   OH260265   0.649   0.626   1.328 -0.1551 -0.2935 -0.1832
12925TIP3    H160266   0.700   0.557   1.371 -0.8937 -0.6365  0.1382
12925TIP3    H260267   0.561   0.590   1.322 -1.0761  1.5316  2.0162
12926TIP3   OH260268   0.295   1.712  10.719 -0.2513  0.4090 -0.3629
12926TIP3    H160269   0.214   1.662  10.704 -1.3067  1.6471  1.1079
12926TIP3    H260270   0.278   1.797  10.679 -0.3910  1.3049  1.5905
12927TIP3   OH260271   0.371   4.517   0.706 -0.2016 -0.3751 -0.2282
12927TIP3    H160272   0.358   4.556   0.620  1.4519  0.1650 -0.2388
12927TIP3    H260273   0.454   4.553   0.737 -0.0189 -1.7525  0.9367
12928TIP3   OH260274   4.808   6.446  12.976 -0.4245  0.5483  0.0361
12928TIP3    H160275   4.719   6.459  12.943 -0.2687  0.6795 -0.3308
12928TIP3    H260276   4.849   6.389  12.911 -0.5766 -0.4023  0.7641
12929TIP3   OH260277   3.569   6.794  15.122 -0.4048  0.0162 -0.1363
12929TIP3    H160278   3.609   6.855  15.184 -0.3414 -0.3608  0.1946
12929TIP3    H260279   3.632   6.721  15.117 -0.2488  0.2000 -0.8953
12930TIP3   OH260280   5.123   1.583  14.287 -0.4531  0.4416 -0.0538
12930TIP3    H160281   5.170   1.638  14.350 -0.0532 -1.5595  1.4756
12930TIP3    H260282   5.190   1.559  14.223 -0.6235  1.6881 -0.7133
12931TIP3   OH260283   2.828   4.900   4.121 -0.0525 -0.5483  0.0198
12931TIP3    H160284   2.736   4.884   4.099 -0.9825  1.5176  2.2128
12931TIP3    H260285   2.832   4.993   4.142  2.4840 -0.6911  0.3000
12932TIP3   OH260286   2.640   1.052  11.982 -0.6913 -0.7429 -0.1601
12932TIP3    H160287   2.549   1.064  12.009 -0.7806  0.4894 -0.9573
12932TIP3    H260288   2.649   1.106  11.904  1.0053  0.0125  0.5338
12933TIP3   OH260289   4.867   2.445   2.469 -0.6449  0.1983  0.3370
12933TIP3    H160290   4.828   2.510   2.410 -0.8435 -0.4419 -0.2456
12933TIP3    H260291   4.824   2.363   2.446  1.8073 -0.7377 -1.0718
12934TIP3   OH260292   4.028   0.510   0.208 -0.0629  0.0568 -0.4572
12934TIP3    H160293   4.044   0.599   0.240 -1.3736 -0.7080  2.4618
12934TIP3    H260294   4.116   0.472   0.201  0.2944 -0.2540  3.9772
12935TIP3   OH260295   1.491   4.352   1.500 -0.3905 -0.2919 -0.3247
12935TIP3    H160296   1.510   4.259   1.512  0.8441  0.0624  0.5954
12935TIP3    H260297   1.407   4.354   1.454 -1.3197 -1.8286  1.2704
12936TIP3   OH260298   1.806   3.174  12.747 -0.0108 -0.0298  0.2567
12936TIP3    H160299   1.804   3.254  12.800 -0.2883  1.1432 -1.4974
12936TIP3    H260300   1.731   3.123  12.778  0.1582  0.3861  1.3765
12937TIP3   OH260301   1.046   0.101   1.828  0.3440  0.2120  0.4113
12937TIP3    H160302   1.078   0.084   1.917 -1.3122  0.4090  1.0619
12937TIP3    H260303   0.996   0.022   1.806  0.7802  0.1500 -0.3659
12938TIP3   OH260304   0.063   1.226   2.032 -0.2780  0.1548 -0.5233
12938TIP3    H160305   0.059   1.282   2.110 -1.4076 -1.4287  0.5652
12938TIP3    H260306   0.128   1.269   1.976 -0.3523  1.9838  0.7459
12939TIP3   OH260307   4.422   6.540  13.846 -0.0295 -0.1203 -0.7436
12939TIP3    H160308   4.371   6.560  13.767 -1.5254  2.2164  0.7583
12939TIP3    H260309   4.486   6.611  13.852  1.6340 -1.5597 -1.1067
12940TIP3   OH260310   4.696   4.889   2.889  0.4649  0.2665 -0.0712
12940TIP3    H160311   4.621   4.898   2.831 -0.3332  1.9325  1.1832
12940TIP3    H260312   4.763   4.946   2.852  0.2739  0.6234  0.1301
12941TIP3   OH260313   2.590   3.287   0.278  0.5891  0.7041 -0.5016
12941TIP3    H160314   2.581   3.371   0.323  1.3693  0.3435  0.3530
12941TIP3    H260315   2.684   3.268   0.283  0.4494 -0.0899 -0.9302
12942TIP3   OH260316   4.132   1.392   0.872  0.2486 -0.6536  0.0882
12942TIP3    H160317   4.172   1.471   0.838  1.6875 -1.1400  0.6064
12942TIP3    H260318   4.045   1.419   0.902  1.8294  1.4195  3.0658
12943TIP3   OH260319   2.316   1.408   4.623  0.5232  0.4290 -0.4580
12943TIP3    H160320   2.225   1.434   4.609  0.7004  0.6306 -1.2190
12943TIP3    H260321   2.310   1.326   4.672 -0.0694  0.4067 -0.5690
12944TIP3   OH260322   5.888   4.628  12.706  0.0487 -0.6167  0.1965
12944TIP3    H160323   5.891   4.650  12.799 -1.1516  0.1724  0.0503
12944TIP3    H260324   5.836   4.698  12.666  1.5847 -0.2840 -1.2620
12945TIP3   OH260325   1.508   0.392  15.853 -0.1277 -0.4385 -0.8439
12945TIP3    H160326   1.499   0.335  15.776 -2.6166 -1.2060 -0.0399
12945TIP3    H260327   1.525   0.331  15.925 -0.9740 -0.0101 -0.2789
12946TIP3   OH260328   0.580   3.684   3.408 -0.2910  0.5308  0.2215
12946TIP3    H160329   0.586   3.607   3.465  0.2737  0.5001  0.1207
12946TIP3    H260330   0.513   3.738   3.448 -1.3230 -0.4225 -0.1860
12947TIP3   OH260331   1.581   5.374  10.942 -0.3197  0.4907 -0.1728
12947TIP3    H160332   1.595   5.466  10.920 -0.8457  1.0553  1.7926
12947TIP3    H260333   1.495   5.353  10.905 -0.0033  0.6406 -1.0143
12948TIP3   OH260334   1.335   2.458   6.151 -0.0535 -0.1072 -0.2167
12948TIP3    H160335   1.329   2.378   6.203  1.0674  0.1853  0.3737
12948TIP3    H260336   1.302   2.527   6.209 -1.4077 -0.1967 -0.8683
12949TIP3   OH260337   0.394   6.547   2.559  0.6190  0.4977  0.0808
12949TIP3    H160338   0.413   6.638   2.579  0.8198  0.8421 -1.6228
12949TIP3    H260339   0.419   6.499   2.639  1.2972  1.8235  0.6705
12950TIP3   OH260340   5.766   0.417   3.077  0.4430  0.5387  0.9419
12950TIP3    H160341   5.832   0.350   3.056  0.8855  1.0373  0.7365
12950TIP3    H260342   5.712   0.376   3.145 -0.1567 -0.5578 -0.1799
12951TIP3   OH260343   5.841   0.861   2.655  0.6301  0.7014  0.1012
12951TIP3    H160344   5.859   0.780   2.607 -0.6895  0.1878  0.4596
12951TIP3    H260345   5.905   0.861   2.726 -0.8438 -1.2135  1.4962
12952TIP3   OH260346   3.419   5.002  14.786 -0.2007 -0.0252 -0.2552
12952TIP3    H160347   3.333   4.961  14.787 -0.7108  1.0230 -0.3588
12952TIP3    H260348   3.480   4.931  14.807 -1.0803 -0.7797 -0.2251
12953TIP3   OH260349   5.365   5.231  16.195  0.0001 -0.1410  0.0583
12953TIP3    H160350   5.368   5.307  16.254  0.5170 -0.0524 -0.0796
12953TIP3    H260351   5.368   5.270  16.107  2.0384 -0.3980 -0.0033
12954TIP3   OH260352   0.456   2.868  13.191 -0.3641 -0.5977  0.2286
12954TIP3    H160353   0.385   2.860  13.255  0.1174 -0.6613  0.7471
12954TIP3    H260354   0.515   2.932  13.228  1.4367 -2.7885  1.2486
12955TIP3   OH260355   0.726   3.948   5.570  0.0217  0.1757  0.1639
12955TIP3    H160356   0.679   3.883   5.623 -0.7530 -0.0507 -0.7788
12955TIP3    H260357   0.815   3.913   5.564 -0.9211 -2.0079 -2.2053
12956TIP3   OH260358   1.832   4.845   5.044  0.0602 -0.1290  0.1614
12956TIP3    H160359   1.759   4.903   5.065  1.1648  0.6132  2.0790
12956TIP3    H260360   1.899   4.865   5.110  1.7083 -1.3185 -1.0932
12957TIP3   OH260361   1.982   2.659  15.772  0.3450 -0.1671 -0.0312
12957TIP3    H160362   1.996   2.564  15.783 -1.4355 -0.4487  0.0229
12957TIP3    H260363   1.889   2.671  15.790 -0.0485  1.1963 -2.7526
12958TIP3   OH260364   1.863   4.974   0.793 -0.5151  0.1994  0.4031
12958TIP3    H160365   1.812   4.908   0.839 -1.7144 -0.8901 -2.4180
12958TIP3    H260366   1.805   5.050   0.787  0.2038  0.9063  2.0057
12959TIP3   OH260367   3.638   2.872  16.124  0.0090  0.3821 -0.3053
12959TIP3    H160368   3.606   2.961  16.107  1.2751  1.0220  0.5239
12959TIP3    H260369   3.733   2.879  16.111 -0.0736 -1.2592 -1.8909
12960TIP3   OH260370   1.795   4.669  12.884 -0.2745  0.5104 -0.4242
12960TIP3    H160371   1.739   4.615  12.939 -0.6306  0.6382 -0.6648
12960TIP3    H260372   1.878   4.674  12.932  0.4858 -2.0037 -1.3677
12961TIP3   OH260373   4.690   3.836  11.945 -0.0110 -0.0185  0.3773
12961TIP3    H160374   4.770   3.884  11.966  1.3762 -1.6216 -1.0711
12961TIP3    H260375   4.652   3.884  11.872  0.1632  0.1692  0.4095
12962TIP3   OH260376   3.670   3.127   2.820 -0.5996 -0.2486  0.0313
12962TIP3    H160377   3.622   3.045   2.809 -1.9028  0.2845  1.5444
12962TIP3    H260378   3.698   3.127   2.912  2.4985 -0.6250 -0.8346
12963TIP3   OH260379   1.839   1.869  16.552  0.5183 -0.4342  0.8594
12963TIP3    H160380   1.749   1.851  16.581  0.4477  1.0181  1.6470
12963TIP3    H260381   1.856   1.958  16.585  2.8936 -1.3968  2.3084
12964TIP3   OH260382   0.126   1.775   1.837  0.4539  0.1708  0.1207
12964TIP3    H160383   0.098   1.715   1.768 -0.5525  1.1727 -0.3570
12964TIP3    H260384   0.088   1.739   1.917 -2.0628  1.3536 -0.4772
12965TIP3   OH260385   2.095   3.478   2.788 -0.4333 -0.5903  0.4214
12965TIP3    H160386   2.159   3.513   2.850 -0.3753 -0.6359  0.3864
12965TIP3    H260387   2.076   3.390   2.821 -0.1304 -0.7503  0.1668
12966TIP3   OH260388   2.028   2.317   3.021  0.7897 -0.0769 -0.0104
12966TIP3    H160389   1.967   2.290   2.952  0.3452  1.7251 -0.3439
12966TIP3    H260390   2.073   2.393   2.984  1.6757 -0.0624  1.0919
12967TIP3   OH260391   6.185   0.163   6.080 -0.4058 -0.3043 -0.2839
12967TIP3    H160392   6.138   0.240   6.049 -1.2192 -0.9162 -0.5662
12967TIP3    H260393   6.117   0.099   6.100  0.1430 -0.2915  1.7723
12968TIP3   OH260394   1.754   1.372  14.907  0.1725 -0.1643 -0.5567
12968TIP3    H160395   1.709   1.288  14.920  1.8497 -1.3150 -1.9759
12968TIP3    H260396   1.703   1.416  14.839  0.4140 -0.9209 -1.2457
12969TIP3   OH260397   5.651   4.701   1.552 -0.3782  0.1634  0.5587
12969TIP3    H160398   5.700   4.779   1.526  0.0243 -0.1197  0.4599
12969TIP3    H260399   5.603   4.727   1.631 -1.2757  0.9022 -0.2236
12970TIP3   OH260400   6.099   1.444   2.711 -0.7261  0.3110 -0.0317
12970TIP3    H160401   6.111   1.539   2.703  2.3779  0.0867  1.2377
12970TIP3    H260402   6.144   1.421   2.792 -0.9938 -2.3266 -0.5930
12971TIP3   OH260403   3.626   4.151   5.425  0.4516  0.5192  0.0688
12971TIP3    H160404   3.601   4.212   5.356  0.3784 -0.3414 -0.6602
12971TIP3    H260405   3.675   4.082   5.381 -0.4154 -0.5351  0.7245
12972TIP3   OH260406   0.115   2.707   0.136  0.1619 -0.3507  0.4655
12972TIP3    H160407   0.137   2.801   0.130  2.6865 -0.9744 -0.8594
12972TIP3    H260408   0.168   2.675   0.209 -1.0228 -0.6777  1.1923
12973TIP3   OH260409   1.320   5.715   0.765  0.4811 -0.0084  0.3654
12973TIP3    H160410   1.266   5.783   0.807  1.0434  0.5227  0.2411
12973TIP3    H260411   1.265   5.680   0.695 -0.1433 -0.2936  0.9968
12974TIP3   OH260412   0.822   1.261   3.366  0.1293 -0.2011 -0.1918
12974TIP3    H160413   0.860   1.308   3.439  1.3304 -0.8866 -0.3693
12974TIP3    H260414   0.744   1.312   3.343  0.8344  1.1095  0.2734
12975TIP3   OH260415   0.846   3.909  10.511  0.0226  0.2730 -0.7639
12975TIP3    H160416   0.879   3.829  10.470 -1.9955 -0.1902 -1.5677
12975TIP3    H260417   0.781   3.943  10.448  1.4480  3.0169 -0.8356
12976TIP3   OH260418   1.244   0.226   1.697  0.2735 -0.2496 -0.4549
12976TIP3    H160419   1.200   0.204   1.779 -0.9481  2.6661 -0.2477
12976TIP3    H260420   1.185   0.195   1.628 -0.1894  0.0827 -0.2048
12977TIP3   OH260421   1.124   3.622  17.092 -0.2039  0.4673  0.8804
12977TIP3    H160422   1.077   3.540  17.077  3.2877 -1.3241 -1.0262
12977TIP3    H260423   1.161   3.613  17.180  0.9209 -0.4591  0.3322
12978TIP3   OH260424   4.545   4.942   6.526  0.1219 -0.9155 -0.0796
12978TIP3    H160425   4.491   4.955   6.448 -2.3410  1.2576  1.8538
12978TIP3    H260426   4.497   4.876   6.576  0.8577 -1.1631  0.2924
12979TIP3   OH260427   4.326   3.760  10.684 -0.0169 -0.3555 -0.4340
12979TIP3    H160428   4.389   3.691  10.704  0.1485  0.7201  3.1622
12979TIP3    H260429   4.250   3.741  10.739 -0.5308  1.5110 -0.4375
12980TIP3   OH260430   6.039   4.939   5.185  0.0728 -0.0324  0.2580
12980TIP3    H160431   6.130   4.964   5.167  0.6431 -1.7853  0.6752
12980TIP3    H260432   5.999   4.931   5.098  0.5743 -0.2246  0.0428
12981TIP3   OH260433   1.134   6.301  15.277 -0.1274  0.2826 -0.0851
12981TIP3    H160434   1.109   6.313  15.368 -2.8808 -2.0643 -0.4562
12981TIP3    H260435   1.067   6.349  15.227 -0.7529 -1.4502 -0.9495
12982TIP3   OH260436   0.812   6.046   0.092 -0.2526 -0.0987  0.5259
12982TIP3    H160437   0.895   6.061   0.136  0.6298 -2.4602 -0.2248
12982TIP3    H260438   0.804   6.118   0.029  1.6628 -0.3241 -0.0065
12983TIP3   OH260439   5.376   1.203  13.640 -0.0057  0.9282 -0.3898
12983TIP3    H160440   5.402   1.290  13.610  1.1383  1.1700  1.2552
12983TIP3    H260441   5.381   1.208  13.736  0.6814 -1.1173 -0.2929
12984TIP3   OH260442   2.828   5.919  12.568 -0.2277 -0.2008  0.7231
12984TIP3    H160443   2.906   5.960  12.529  1.0193 -1.4815  1.7892
12984TIP3    H260444   2.807   5.975  12.643  1.7890 -1.6946  2.4895
12985TIP3   OH260445   0.677   3.856   2.950  0.3573 -0.2672  0.1583
12985TIP3    H160446   0.666   3.919   3.021 -2.3485 -0.1574 -0.3224
12985TIP3    H260447   0.627   3.779   2.978  0.9293 -0.9887 -0.7435
12986TIP3   OH260448   0.608   1.789  17.259 -0.0407 -0.1297  0.1162
12986TIP3    H160449   0.528   1.841  17.265 -0.1606 -0.5707  2.5996
12986TIP3    H260450   0.679   1.853  17.263 -0.2211  0.0194  0.9893
12987TIP3   OH260451   2.998   6.120   4.970  0.3238  0.2267 -0.7321
12987TIP3    H160452   2.998   6.110   4.875  1.0657 -1.5118 -0.5715
12987TIP3    H260453   3.086   6.151   4.991 -0.5373  2.8490 -0.7900
12988TIP3   OH260454   6.256   5.749  14.111 -0.5294  0.0815 -0.1125
12988TIP3    H160455   6.164   5.721  14.116 -0.2584 -1.0012 -0.9562
12988TIP3    H260456   6.277   5.779  14.200 -0.7703 -2.6851  0.9345
12989TIP3   OH260457   1.258   6.666  13.852  0.3911 -0.1100 -0.0054
12989TIP3    H160458   1.265   6.628  13.765 -0.0964  0.6360 -0.3718
12989TIP3    H260459   1.171   6.706  13.855  0.8128  0.7911  0.4456
12990TIP3   OH260460   0.021   4.808  15.608 -0.0871  0.0635 -0.5003
12990TIP3    H160461  -0.054   4.797  15.667 -1.0743  0.4589 -1.6771
12990TIP3    H260462   0.098   4.803  15.666 -0.9358 -2.1111  0.4677
12991TIP3   OH260463   3.588   6.519   4.969  0.2122  0.2141 -0.2931
12991TIP3    H160464   3.658   6.464   5.003 -0.6872 -0.9715 -0.3220
12991TIP3    H260465   3.570   6.483   4.882  1.2486  2.0728 -1.2925
12992TIP3   OH260466   1.657   4.473  16.171 -0.0497  0.3667  0.1786
12992TIP3    H160467   1.636   4.382  16.151 -0.6670  0.0982  1.9677
12992TIP3    H260468   1.668   4.475  16.266  1.3017  1.8916  0.0188
12993TIP3   OH260469   5.731   4.915  12.719 -0.4382  0.5838 -0.5227
12993TIP3    H160470   5.800   4.910  12.653 -1.2515 -0.5887 -1.3227
12993TIP3    H260471   5.777   4.912  12.803  0.5000  0.2251 -1.0422
12994TIP3   OH260472   0.670   4.571   2.276 -0.0009  0.1921  0.7085
12994TIP3    H160473   0.724   4.641   2.239  1.9138 -1.6433 -0.1021
12994TIP3    H260474   0.589   4.574   2.225  0.5802  0.9660 -0.1944
12995TIP3   OH260475   3.114   2.649  14.434 -0.0524  0.2732  0.4561
12995TIP3    H160476   3.113   2.664  14.339  0.4092 -0.9105  0.2475
12995TIP3    H260477   3.037   2.694  14.466 -0.7486 -0.1289 -0.6214
12996TIP3   OH260478   0.121   2.739   2.216 -0.0578  0.0546 -0.3441
12996TIP3    H160479   0.176   2.726   2.294  0.1346  0.1426 -0.4660
12996TIP3    H260480   0.182   2.761   2.147 -0.1962 -0.3645 -0.6025
12997TIP3   OH260481   5.085   5.852  14.231 -0.2983  0.1466 -0.3339
12997TIP3    H160482   5.155   5.917  14.230 -0.3158  0.1570 -0.9530
12997TIP3    H260483   5.041   5.866  14.315  1.0459 -0.5073  0.4875
12998TIP3   OH260484   6.104   1.077   1.232 -0.1538 -0.3427 -0.0467
12998TIP3    H160485   6.159   1.042   1.302 -0.3223 -0.1867  0.1649
12998TIP3    H260486   6.118   1.172   1.235 -2.3144 -0.0455  1.6306
12999TIP3   OH260487   1.268   2.170  14.909  0.3541 -0.0052 -0.3226
12999TIP3    H160488   1.363   2.155  14.916  0.5021  1.3781  0.8722
12999TIP3    H260489   1.232   2.131  14.988  0.1754  1.3023  0.2577
13000TIP3   OH260490   6.740   6.817   0.322  0.2815 -0.0086  0.0326
13000TIP3    H160491   6.723   6.775   0.238  0.9350  0.4332 -0.3314
13000TIP3    H260492   6.728   6.748   0.387  0.7477 -0.6047 -0.5078
13001TIP3   OH260493   0.967   4.635  15.238  0.3577 -0.6110 -0.1673
13001TIP3    H160494   1.016   4.581  15.299  1.1998 -1.8040 -1.8605
13001TIP3    H260495   0.902   4.576  15.201 -2.3887  0.9215  1.9800
13002TIP3   OH260496   1.810   3.673  14.756  0.5021  0.2384  0.1860
13002TIP3    H160497   1.743   3.614  14.791 -0.2586  0.2608 -1.1848
13002TIP3    H260498   1.882   3.668  14.819 -0.4777 -0.3743  1.2835
13003TIP3   OH260499   4.786   1.720   3.394 -0.1009 -0.7856 -0.2455
13003TIP3    H160500   4.828   1.795   3.434  0.5269 -1.5200  0.4919
13003TIP3    H260501   4.736   1.756   3.321  1.0324  0.2154 -0.5392
13004TIP3   OH260502   2.668   2.990   2.048 -0.0151 -0.3688 -0.0376
13004TIP3    H160503   2.755   3.030   2.058 -0.0099 -0.6788  1.2722
13004TIP3    H260504   2.612   3.041   2.106 -0.5871 -0.5182 -0.4649
13005TIP3   OH260505   0.642   3.863   4.551 -0.5585 -0.6470 -0.1299
13005TIP3    H160506   0.661   3.884   4.643  0.5570 -0.0675 -0.4911
13005TIP3    H260507   0.710   3.802   4.525 -1.4891 -1.6317 -0.2677
13006TIP3   OH260508   6.340   6.342   6.891 -0.1506 -0.5177 -0.0449
13006TIP3    H160509   6.295   6.301   6.818 -1.1114 -1.9018  1.3056
13006TIP3    H260510   6.295   6.426   6.903 -0.8683 -0.8802 -0.1958
13007TIP3   OH260511   2.288   2.169  14.240 -0.1842 -0.2605  0.0901
13007TIP3    H160512   2.210   2.136  14.285 -0.4329  0.5123  0.2422
13007TIP3    H260513   2.322   2.237  14.299 -0.0841  0.2378 -0.5376
13008TIP3   OH260514   6.447   1.441  14.693  0.7680  0.1211  0.4514
13008TIP3    H160515   6.410   1.528  14.713  0.8909  0.1712  0.4599
13008TIP3    H260516   6.376   1.395  14.649  0.9909  0.5239 -0.3317
13009TIP3   OH260517   3.446   4.203   3.816  0.0661  0.0163 -0.0102
13009TIP3    H160518   3.359   4.234   3.790  0.6634  0.3247 -1.7178
13009TIP3    H260519   3.496   4.284   3.830 -0.6790 -0.0828  3.8579
13010TIP3   OH260520   2.883   3.208   6.133  0.3600 -0.0858 -0.1954
13010TIP3    H160521   2.819   3.264   6.089  0.4673 -0.3233 -0.6639
13010TIP3    H260522   2.892   3.246   6.220 -0.3734 -0.0173 -0.1431
13011TIP3   OH260523   4.915   4.028  13.911  0.3527 -0.5616 -0.3806
13011TIP3    H160524   4.828   4.008  13.945  0.3131 -1.0497 -0.7560
13011TIP3    H260525   4.957   4.078  13.980 -0.2236 -0.3340 -0.1926
13012TIP3   OH260526   3.693   6.803   0.717 -0.6657  0.4530  0.1110
13012TIP3    H160527   3.730   6.744   0.652 -1.7459 -1.1978  0.9424
13012TIP3    H260528   3.654   6.874   0.666  0.5123  0.3779 -0.9167
13013TIP3   OH260529   2.502   2.699  12.429  0.6195 -0.5497  0.0186
13013TIP3    H160530   2.507   2.628  12.493 -0.3503  0.1426  0.9070
13013TIP3    H260531   2.492   2.656  12.345 -0.8275 -1.4699  0.6438
13014TIP3   OH260532   2.918   4.410  13.284 -0.0887 -0.1813 -0.3709
13014TIP3    H160533   2.824   4.423  13.274 -0.2625 -1.4744 -0.4944
13014TIP3    H260534   2.936   4.434  13.375 -0.5939 -0.3039 -0.2412
13015TIP3   OH260535   5.345   6.108   0.533 -0.4600 -0.3692  0.1326
13015TIP3    H160536   5.259   6.124   0.493  0.2970  1.3467 -0.8449
13015TIP3    H260537   5.407   6.113   0.461  0.4320 -2.1670  0.7454
13016TIP3   OH260538   4.453   6.628   6.208  0.1511  0.6352  0.6980
13016TIP3    H160539   4.442   6.624   6.113  0.1600  1.7448  0.6442
13016TIP3    H260540   4.428   6.540   6.239 -2.4787  1.0637 -0.0567
13017TIP3   OH260541   2.215   0.953  15.962 -0.8839  0.4940  0.1088
13017TIP3    H160542   2.210   0.940  16.056 -0.4769  2.1746  0.3820
13017TIP3    H260543   2.294   1.006  15.949 -1.0766  0.4969 -1.1400
13018TIP3   OH260544   0.942   5.704  14.400 -0.0974  0.0009  0.4482
13018TIP3    H160545   0.935   5.763  14.325  0.8357 -0.3045  0.1110
13018TIP3    H260546   0.860   5.655  14.401 -0.4133  0.5227  0.0647
13019TIP3   OH260547   6.328   4.011  15.912  0.1011  0.2211  0.2321
13019TIP3    H160548   6.308   3.927  15.954  0.3316 -0.2320 -0.5685
13019TIP3    H260549   6.252   4.029  15.857  0.0065  0.5913  0.4809
13020TIP3   OH260550   4.274   4.807  15.423 -0.0276  0.4028  0.0670
13020TIP3    H160551   4.271   4.714  15.447  1.0706  0.0727 -1.0038
13020TIP3    H260552   4.206   4.816  15.356  0.5170  0.1471 -0.5285
13021TIP3   OH260553   4.189   5.220  15.027 -0.2627  0.0273 -0.3568
13021TIP3    H160554   4.177   5.298  14.973  1.6173  0.3884 -0.2894
13021TIP3    H260555   4.275   5.232  15.067 -0.3656 -1.6419  0.3922
13022TIP3   OH260556   4.290   0.511   1.125  0.2074 -0.2192 -0.8126
13022TIP3    H160557   4.355   0.527   1.193 -0.1883  4.1008 -1.2860
13022TIP3    H260558   4.334   0.453   1.063  1.8866 -1.1803  1.1889
13023TIP3   OH260559   1.028   2.899   2.330 -0.1862  0.0135 -0.0415
13023TIP3    H160560   1.058   2.967   2.390 -0.6721  0.2271 -0.0431
13023TIP3    H260561   0.936   2.918   2.315 -0.7392 -1.5574  1.1996
13024TIP3   OH260562   3.338   6.256   1.649 -0.0173 -0.3818  0.4301
13024TIP3    H160563   3.345   6.254   1.554  0.9212 -0.3650  0.4990
13024TIP3    H260564   3.335   6.164   1.675  0.2665 -0.3960  0.4193
13025TIP3   OH260565   0.440   0.624   5.547  0.3337  0.1448  0.1778
13025TIP3    H160566   0.443   0.629   5.452 -0.1770  0.2756  0.1657
13025TIP3    H260567   0.507   0.559   5.570 -0.6040 -1.0332 -0.3639
13026TIP3   OH260568   2.071   3.754   6.014  0.2771  0.8169 -0.5130
13026TIP3    H160569   2.108   3.816   6.076 -0.8833  1.3224 -0.3077
13026TIP3    H260570   2.140   3.739   5.950  1.2399  0.8293  0.5159
13027TIP3   OH260571   1.597   4.790   2.484  0.0948  0.2169 -0.6411
13027TIP3    H160572   1.636   4.767   2.399  0.7442  0.1742 -0.3303
13027TIP3    H260573   1.663   4.845   2.527 -0.5978  0.9561 -0.5240
13028TIP3   OH260574   1.563   1.379  14.275 -0.0031 -0.0416 -0.0111
13028TIP3    H160575   1.538   1.320  14.204 -0.6833  0.1516  0.0586
13028TIP3    H260576   1.486   1.381  14.332  0.2812  0.3525  0.3602
13029TIP3   OH260577   6.085   2.734  14.127  0.5368  0.2368  0.0804
13029TIP3    H160578   5.990   2.744  14.126  0.5996  0.7923 -0.6724
13029TIP3    H260579   6.117   2.822  14.147  0.8645 -0.1845  1.4741
13030TIP3   OH260580   2.034   1.291  12.655 -0.2123 -0.0701  0.4288
13030TIP3    H160581   1.994   1.369  12.694 -0.5732  0.7589 -1.5458
13030TIP3    H260582   1.961   1.239  12.624  0.0958 -0.4645  0.3673
13031TIP3   OH260583   1.427   3.129  16.591  0.0911 -0.7059  0.0436
13031TIP3    H160584   1.405   3.129  16.497 -1.1871 -0.9285  0.3296
13031TIP3    H260585   1.492   3.198  16.600 -1.0532  0.5135 -0.7401
13032TIP3   OH260586   0.268   2.983  17.052 -0.3517  0.7663  0.1298
13032TIP3    H160587   0.314   3.001  16.970 -1.1125 -1.6266 -0.8524
13032TIP3    H260588   0.337   2.959  17.114  0.1202  1.4695 -0.1125
13033TIP3   OH260589   0.681   4.666   2.580  0.3678  0.0696 -0.4775
13033TIP3    H160590   0.719   4.600   2.523  1.7559  0.2692  0.1917
13033TIP3    H260591   0.594   4.682   2.544  0.4272 -1.3436 -1.2630
13034TIP3   OH260592   4.479   6.051   1.816 -0.3189 -0.0285 -0.2822
13034TIP3    H160593   4.402   6.071   1.764 -0.7237 -2.2384 -0.6102
13034TIP3    H260594   4.455   5.973   1.866  2.1264 -1.5701 -1.3911
13035TIP3   OH260595   4.666   1.369  12.652  0.6394  0.0378 -0.1864
13035TIP3    H160596   4.724   1.368  12.576  2.1991 -0.9149  0.9831
13035TIP3    H260597   4.612   1.290  12.641  0.7849 -0.0362 -0.3758
13036TIP3   OH260598   1.274   2.675   5.181 -0.2816 -0.2669  0.0532
13036TIP3    H160599   1.291   2.596   5.233 -0.9479 -0.0907  0.5534
13036TIP3    H260600   1.275   2.746   5.244  0.0465  0.0950 -0.3586
13037TIP3   OH260601   2.757   2.193   5.701 -0.3104  0.0532  0.3840
13037TIP3    H160602   2.739   2.169   5.610 -2.4572  1.8001  0.3193
13037TIP3    H260603   2.777   2.286   5.698 -1.2336  0.3097  1.8043
13038TIP3   OH260604   0.714   0.070   3.718  0.3748  0.5115 -0.3150
13038TIP3    H160605   0.742  -0.001   3.661  1.4928  0.9621 -0.3445
13038TIP3    H260606   0.716   0.148   3.663 -2.1717  0.3742 -0.6482
13039TIP3   OH260607   6.010   2.005  17.169  0.2814 -0.4593 -0.5534
13039TIP3    H160608   6.011   2.030  17.076 -0.8141  0.0437 -0.4388
13039TIP3    H260609   5.917   1.991  17.189  0.2870  1.5944  1.0467
13040TIP3   OH260610   4.994   2.635   0.568  0.2233 -0.4274 -0.3518
13040TIP3    H160611   5.031   2.722   0.557 -0.4196  0.0806  1.3183
13040TIP3    H260612   5.018   2.588   0.488  1.7748  0.8417 -0.6456
13041TIP3   OH260613   0.912   5.352   6.178  0.0499  0.2223  0.1896
13041TIP3    H160614   0.915   5.263   6.213 -0.0891 -0.6220 -1.8691
13041TIP3    H260615   0.850   5.398   6.234 -1.0479 -1.4085  0.3223
13042TIP3   OH260616   0.120   5.223   5.930  0.0851 -0.7461 -0.0015
13042TIP3    H160617   0.144   5.160   5.997  0.9215 -0.0045  0.3995
13042TIP3    H260618   0.095   5.301   5.978  0.0770 -0.4180 -0.5324
13043TIP3   OH260619   5.840   5.836  12.220  0.6354  0.0759  0.0739
13043TIP3    H160620   5.805   5.869  12.138 -0.6776  0.3003  0.6995
13043TIP3    H260621   5.935   5.843  12.211  0.5032 -0.0021 -1.4491
13044TIP3   OH260622   5.523   2.611   3.685  0.5037  0.3232  0.3014
13044TIP3    H160623   5.519   2.706   3.677 -0.0476  0.1340 -2.1676
13044TIP3    H260624   5.484   2.579   3.603  2.4277 -2.0012  0.2511
13045TIP3   OH260625   0.013   4.585   6.154 -0.3587  0.2360  0.1425
13045TIP3    H160626  -0.058   4.526   6.180 -1.8096  1.4485 -0.9737
13045TIP3    H260627   0.030   4.638   6.231 -0.7432  0.0105  0.3857
13046TIP3   OH260628   3.953   5.268   2.202  0.0558 -0.0475  0.5966
13046TIP3    H160629   3.961   5.301   2.112  0.7732 -0.4883  0.4894
13046TIP3    H260630   3.975   5.343   2.257 -0.3773  0.2229  0.4027
13047TIP3   OH260631   6.001   0.436   2.577 -0.6822 -0.3099 -0.6451
13047TIP3    H160632   6.017   0.427   2.483  2.3883 -0.0516 -0.1781
13047TIP3    H260633   6.087   0.429   2.617 -1.8717  0.2824  2.1180
13048TIP3   OH260634   1.319   0.981  14.185  0.6227 -0.2308  0.4744
13048TIP3    H160635   1.358   0.979  14.272 -0.0099 -2.1898  0.7432
13048TIP3    H260636   1.224   0.987  14.201  0.4902 -0.7834 -0.0607
13049TIP3   OH260637   0.506   5.330   1.268 -0.1772  0.2878 -0.6340
13049TIP3    H160638   0.422   5.283   1.268 -0.6860  1.1949 -1.1622
13049TIP3    H260639   0.490   5.407   1.322  0.5507  0.0700 -0.0956
13050TIP3   OH260640   0.869   3.975  11.216 -0.1170  0.5189  0.1972
13050TIP3    H160641   0.807   3.927  11.162  0.6634 -0.9558  0.6048
13050TIP3    H260642   0.852   3.946  11.305 -0.6804  2.1581  0.6495
13051TIP3   OH260643   1.496   4.346   0.236  0.1423 -0.0377 -0.0262
13051TIP3    H160644   1.432   4.407   0.273  0.5867  2.2881 -2.8683
13051TIP3    H260645   1.444   4.269   0.211 -0.9668  0.4533  0.6919
13052TIP3   OH260646   4.223   3.851   2.451  0.6405  0.3463  0.1205
13052TIP3    H160647   4.192   3.900   2.375 -1.0714 -1.1442 -0.1793
13052TIP3    H260648   4.263   3.772   2.414  1.1139  0.2991  0.7189
13053TIP3   OH260649   1.988   3.703  15.726 -0.3875  0.5152 -0.2394
13053TIP3    H160650   1.940   3.759  15.787  0.2162  1.6046 -0.7700
13053TIP3    H260651   2.075   3.693  15.765 -0.8869 -1.1103  0.5019
13054TIP3   OH260652   6.424   1.474  16.773 -0.6361 -0.3178 -0.3778
13054TIP3    H160653   6.371   1.476  16.694  0.7842 -0.9579 -1.3635
13054TIP3    H260654   6.471   1.558  16.772  0.3447 -0.8666 -0.8982
13055TIP3   OH260655   5.013   5.726   2.229 -0.3499 -0.3957 -0.1844
13055TIP3    H160656   5.016   5.719   2.134 -2.2662 -0.2344 -0.2942
13055TIP3    H260657   4.945   5.664   2.255 -2.3663  2.0651  0.7189
13056TIP3   OH260658   0.175   0.698  11.892  0.4133 -1.0870  0.4210
13056TIP3    H160659   0.218   0.746  11.821  2.4020 -1.8092  1.0983
13056TIP3    H260660   0.240   0.696  11.962 -1.1098 -1.3631  1.8587
13057TIP3   OH260661   3.481   4.108  11.692  0.2158  0.1002  0.4804
13057TIP3    H160662   3.460   4.105  11.785  0.3917  0.8192  0.5471
13057TIP3    H260663   3.548   4.040  11.680 -2.3433 -2.4629  0.1955
13058TIP3   OH260664   5.534   4.496   3.978  0.6632  0.2965 -0.6349
13058TIP3    H160665   5.523   4.412   3.934 -2.0786 -0.0749  0.6147
13058TIP3    H260666   5.604   4.480   4.042 -0.7920 -1.5132  0.5842
13059TIP3   OH260667   2.249   6.087   2.736  0.0434  0.1241 -0.1362
13059TIP3    H160668   2.277   6.006   2.778  0.2274  1.1331  1.7244
13059TIP3    H260669   2.159   6.070   2.709 -1.1050  0.3839  3.2491
13060TIP3   OH260670   4.447   0.937   5.349 -0.1845 -0.4385 -0.3077
13060TIP3    H160671   4.358   0.950   5.383  0.1329  0.4439  0.1954
13060TIP3    H260672   4.442   0.966   5.257  0.1972  2.0999  0.4360
13061TIP3   OH260673   4.665   4.982   5.287  0.3580 -0.3600  0.5400
13061TIP3    H160674   4.760   4.986   5.288  0.4733 -2.3737 -0.0958
13061TIP3    H260675   4.645   4.891   5.266 -1.7119  0.2017 -0.0242
13062TIP3   OH260676   5.948   4.490   2.860  0.0479  0.3094  0.0383
13062TIP3    H160677   5.926   4.434   2.786 -1.0736  0.7244  0.0485
13062TIP3    H260678   5.954   4.578   2.822  2.4747  0.1143 -0.1057
13063TIP3   OH260679   3.191   3.028  15.710 -0.2689 -0.2147 -0.4600
13063TIP3    H160680   3.232   2.982  15.784 -0.8684  0.5590  0.3517
13063TIP3    H260681   3.262   3.081  15.672  0.0921 -0.7800 -0.5890
13064TIP3   OH260682   5.844   4.256  14.320 -0.0271 -0.0022 -0.5249
13064TIP3    H160683   5.818   4.347  14.307  0.9620  0.4121  0.2607
13064TIP3    H260684   5.763   4.206  14.312 -0.3527  0.7860 -2.4201
13065TIP3   OH260685   5.157   5.315  10.985  0.5655  0.1044  0.0238
13065TIP3    H160686   5.199   5.388  11.031 -1.5383  1.4384 -0.0916
13065TIP3    H260687   5.127   5.257  11.054  0.6726  0.2546  0.1960
13066TIP3   OH260688   0.083   1.415   4.571 -1.2167 -0.2876 -0.0667
13066TIP3    H160689   0.001   1.422   4.620 -0.8027  1.3264  0.4435
13066TIP3    H260690   0.067   1.346   4.507 -2.1508 -1.6613  1.5926
13067TIP3   OH260691   0.133   6.476  13.636 -0.2807  0.8585 -0.2255
13067TIP3    H160692   0.081   6.401  13.667 -0.9377  0.9548 -1.0658
13067TIP3    H260693   0.163   6.449  13.549 -0.0170  1.3313 -0.2771
13068TIP3   OH260694   3.716   0.814   5.747  0.2357 -0.7448 -0.3380
13068TIP3    H160695   3.774   0.813   5.823  0.2594 -2.8179 -0.3514
13068TIP3    H260696   3.675   0.900   5.750  2.2532  0.2366  0.4714
13069TIP3   OH260697   5.291   2.234   5.189 -0.1863  0.0588  0.3807
13069TIP3    H160698   5.376   2.205   5.222  0.3030  0.0461 -0.8695
13069TIP3    H260699   5.287   2.201   5.099 -0.7308  1.5877 -0.1838
13070TIP3   OH260700   4.792   6.440   2.715  0.0622 -0.1020 -0.0401
13070TIP3    H160701   4.872   6.396   2.688 -0.5034 -1.2589  0.1466
13070TIP3    H260702   4.744   6.375   2.766  0.4241  1.5449  2.5196
13071TIP3   OH260703   3.686   1.442  15.563 -0.5198  0.3550  0.1826
13071TIP3    H160704   3.626   1.386  15.614 -0.2553 -1.0524 -1.0183
13071TIP3    H260705   3.629   1.508  15.524 -1.1066 -0.1200  0.2160
13072TIP3   OH260706   6.264   2.812  14.483 -0.2972 -0.1346 -0.0738
13072TIP3    H160707   6.314   2.893  14.468  0.3882 -0.5995 -0.3404
13072TIP3    H260708   6.328   2.752  14.523 -0.4648 -0.9642 -1.0443
13073TIP3   OH260709   4.077   2.600   3.653  0.0465  0.1810  0.4622
13073TIP3    H160710   3.986   2.627   3.664 -0.1749 -0.6427  0.6691
13073TIP3    H260711   4.120   2.628   3.734 -0.5679 -1.6672  1.4410
13074TIP3   OH260712   1.713   6.712   2.278 -0.7612 -0.0277 -0.4796
13074TIP3    H160713   1.627   6.697   2.238 -0.6247 -0.6889 -0.5155
13074TIP3    H260714   1.775   6.700   2.206 -0.5506 -0.7474 -0.1733
13075TIP3   OH260715   0.429   6.417   1.710 -0.4053  0.0763 -0.1020
13075TIP3    H160716   0.511   6.368   1.699 -0.2570  0.5100 -0.9083
13075TIP3    H260717   0.370   6.354   1.753 -0.0450 -0.6412 -0.6415
13076TIP3   OH260718   3.520   1.261  15.148  0.1637 -0.3861 -0.1256
13076TIP3    H160719   3.601   1.305  15.122  0.2151  0.0829  0.8435
13076TIP3    H260720   3.450   1.321  15.121  0.2429  0.4029  1.4106
13077TIP3   OH260721   4.075   6.369   5.819 -0.0696  0.5193  0.1928
13077TIP3    H160722   4.043   6.446   5.773 -1.3487 -0.2927 -0.2862
13077TIP3    H260723   4.016   6.360   5.894 -0.7161 -0.7313 -0.4561
13078TIP3   OH260724   0.977   2.095  16.934 -0.0727 -0.3687  0.7942
13078TIP3    H160725   0.914   2.023  16.925  0.9414 -1.1807  0.0208
13078TIP3    H260726   0.975   2.138  16.848  1.9066 -1.6665  0.0434
13079TIP3   OH260727   2.849   6.447   4.199 -0.8331 -0.0636  0.1972
13079TIP3    H160728   2.870   6.414   4.111  0.3233 -0.9898  0.8191
13079TIP3    H260729   2.766   6.405   4.221 -3.0124  2.9218 -1.8948
13080TIP3   OH260730   2.262   1.389   1.127 -0.5787 -0.3424 -0.0813
13080TIP3    H160731   2.207   1.384   1.205  0.8571  2.0491  1.1575
13080TIP3    H260732   2.286   1.482   1.121  1.5003 -0.9529 -1.8347
13081TIP3   OH260733   6.322   4.115  12.563  0.1057 -0.4784  0.1706
13081TIP3    H160734   6.348   4.100  12.654 -0.9584 -0.5117  0.4720
13081TIP3    H260735   6.327   4.210  12.552 -1.1173 -0.3510  0.6780
13082TIP3   OH260736   1.900   0.937  13.972 -0.6707  0.1872  0.8611
13082TIP3    H160737   1.974   0.995  13.986  1.2034 -1.3649 -2.1691
13082TIP3    H260738   1.840   0.987  13.916  0.0741 -0.0827 -0.1922
13083TIP3   OH260739   6.389   4.007  12.815  0.6930  0.2470 -0.0139
13083TIP3    H160740   6.295   3.990  12.820  0.5535  1.0751  0.1881
13083TIP3    H260741   6.413   4.037  12.902  1.4459 -1.4136  0.3711
13084TIP3   OH260742   4.977   6.744  13.445 -0.5651 -0.1338  0.4659
13084TIP3    H160743   5.020   6.788  13.372  1.4099 -2.6216  0.0802
13084TIP3    H260744   4.885   6.740  13.420 -0.0178 -0.3936 -1.5936
13085TIP3   OH260745   5.942   6.408  16.273 -0.5431 -0.0237  0.2150
13085TIP3    H160746   5.990   6.332  16.307  2.0030  2.4377  2.4276
13085TIP3    H260747   5.967   6.413  16.181  0.1358 -1.2845  0.3228
13086TIP3   OH260748   0.023   2.164   3.854 -0.4603 -0.0283 -0.5991
13086TIP3    H160749   0.025   2.114   3.773 -1.5055 -2.0843  0.6040
13086TIP3    H260750  -0.026   2.243   3.833  0.2320 -0.0393 -2.2485
13087TIP3   OH260751   5.575   1.473   1.337 -0.2436 -0.0923 -0.2292
13087TIP3    H160752   5.586   1.554   1.287 -0.7686 -0.7874 -1.4955
13087TIP3    H260753   5.568   1.404   1.270  2.0478 -1.4335  0.8332
13088TIP3   OH260754   3.763   4.491   0.286  0.0235 -0.3558 -0.8003
13088TIP3    H160755   3.801   4.406   0.265  1.1383 -0.1862  0.4788
13088TIP3    H260756   3.687   4.471   0.339  0.1225 -0.5666 -0.7371
13089TIP3   OH260757   6.692   0.584  11.132  0.3917  0.4171 -0.0053
13089TIP3    H160758   6.750   0.546  11.066 -0.8672 -0.6392 -0.5255
13089TIP3    H260759   6.604   0.559  11.104 -0.3116  1.7817  0.9136
13090TIP3   OH260760   2.945   4.292  14.510  0.2284 -0.6382  0.0031
13090TIP3    H160761   3.028   4.319  14.472 -0.2520  0.3510 -0.3654
13090TIP3    H260762   2.949   4.321  14.601  1.0529 -2.2934  0.5156
13091TIP3   OH260763   4.587   1.662  13.005  0.2148 -0.1310 -0.0192
13091TIP3    H160764   4.678   1.632  13.013  0.5047  0.6398 -0.3133
13091TIP3    H260765   4.586   1.713  12.924 -0.6986 -0.8824 -0.4865
13092TIP3   OH260766   0.163   0.509  13.234 -0.1556  0.2182 -0.0938
13092TIP3    H160767   0.231   0.447  13.261 -0.0511  0.6366  0.6079
13092TIP3    H260768   0.088   0.455  13.210  0.9632 -0.3600 -2.5111
13093TIP3   OH260769   2.734   0.065   2.929  0.4733 -0.5772  0.3395
13093TIP3    H160770   2.658   0.027   2.972  0.1804  0.7279  0.9987
13093TIP3    H260771   2.786   0.103   3.000  0.0967  1.4174 -0.4133
13094TIP3   OH260772   4.561   6.455  12.876 -0.0108  0.0801  0.1148
13094TIP3    H160773   4.519   6.468  12.961 -0.7091  0.5514 -0.2890
13094TIP3    H260774   4.574   6.544  12.843 -0.1570 -0.1124 -0.4667
13095TIP3   OH260775   4.751   1.590   2.017  0.8930  0.3093 -0.2699
13095TIP3    H160776   4.788   1.513   1.973  0.8811  0.0788  0.1248
13095TIP3    H260777   4.798   1.596   2.100 -0.6649 -0.5950  0.6931
13096TIP3   OH260778   4.096   2.647  14.950 -0.0928  0.0778 -0.8750
13096TIP3    H160779   4.001   2.640  14.961  0.0746 -1.4999 -0.3593
13096TIP3    H260780   4.109   2.653  14.855 -0.8861  3.5465 -0.8449
13097TIP3   OH260781   6.680   3.886  11.251 -0.4991  0.2591 -0.2866
13097TIP3    H160782   6.762   3.850  11.284 -0.5519 -0.5292 -1.0086
13097TIP3    H260783   6.629   3.905  11.330 -1.1900 -2.9373  0.1079
13098TIP3   OH260784   6.286   1.820   6.183  0.4584 -0.1091 -1.0707
13098TIP3    H160785   6.306   1.850   6.272 -0.2026 -0.1232 -0.9151
13098TIP3    H260786   6.361   1.848   6.131  2.6475 -3.3588  0.2006
13099TIP3   OH260787   3.448   2.486  12.405  0.2668 -0.1333 -0.4315
13099TIP3    H160788   3.488   2.559  12.356  1.0274  0.1316  0.5502
13099TIP3    H260789   3.503   2.411  12.385  0.7199  0.0253  0.1664
13100TIP3   OH260790   3.158   4.156   0.954  0.0059 -0.0135  0.2342
13100TIP3    H160791   3.158   4.156   0.858 -0.0447 -1.8394  0.2163
13100TIP3    H260792   3.087   4.215   0.978  0.5511  1.1119 -0.8326
13101TIP3   OH260793   2.836   4.557   4.099  0.0648 -0.1896  0.4544
13101TIP3    H160794   2.877   4.541   4.185  0.3942  0.2408  0.3807
13101TIP3    H260795   2.909   4.579   4.042 -0.1901 -0.1856  0.1307
13102TIP3   OH260796   2.657   6.495  11.779  0.4718 -0.3036 -0.1067
13102TIP3    H160797   2.705   6.491  11.696  1.4907  1.0968  0.4043
13102TIP3    H260798   2.613   6.580  11.776 -0.8328 -0.9639  0.0659
13103TIP3   OH260799   2.307   4.070   4.480 -0.2429  0.0021  0.0208
13103TIP3    H160800   2.331   4.156   4.512  1.3069 -0.6094  0.5475
13103TIP3    H260801   2.303   4.015   4.558 -2.9217 -0.0427 -0.0971
13104TIP3   OH260802   5.679   6.180   5.602  0.2240  0.1854 -0.2687
13104TIP3    H160803   5.649   6.268   5.580 -1.0006 -0.0674  0.3543
13104TIP3    H260804   5.714   6.187   5.691  2.8250  0.6545 -1.2801
13105TIP3   OH260805   4.680   2.165  13.186 -0.4853 -0.0490  0.1315
13105TIP3    H160806   4.702   2.197  13.273 -0.0022 -0.8861  0.3273
13105TIP3    H260807   4.721   2.079  13.181 -0.8218 -0.1662 -0.7886
13106TIP3   OH260808   0.603   5.311   2.193 -0.1591 -0.7776  0.0009
13106TIP3    H160809   0.612   5.282   2.284 -1.8250  2.9096  1.4423
13106TIP3    H260810   0.509   5.313   2.178 -0.0403  1.9436 -0.6222
13107TIP3   OH260811   4.017   5.661  11.244 -0.4172  0.1184  0.2028
13107TIP3    H160812   4.026   5.570  11.273 -0.7036  0.1999  0.5479
13107TIP3    H260813   4.107   5.693  11.237 -0.1950 -0.8895 -2.1565
13108TIP3   OH260814   3.131   6.364   5.130 -0.1444  0.0579 -0.1085
13108TIP3    H160815   3.154   6.372   5.037 -0.1492  1.1778 -0.0142
13108TIP3    H260816   3.035   6.360   5.130 -0.1257 -0.3972 -0.1855
13109TIP3   OH260817   2.258   4.075  11.346  0.1779 -0.6170 -0.9229
13109TIP3    H160818   2.217   4.161  11.347  2.1934  0.3616 -0.1528
13109TIP3    H260819   2.289   4.064  11.256  2.5330  0.7469 -0.2932
13110TIP3   OH260820   4.630   5.872   2.099 -0.3497  0.0564 -0.2895
13110TIP3    H160821   4.651   5.804   2.035 -0.4174  0.2872 -0.5538
13110TIP3    H260822   4.711   5.886   2.147 -0.4073 -0.4077 -0.0559
13111TIP3   OH260823   1.177   2.761   4.425  0.5016  0.0368  0.1603
13111TIP3    H160824   1.268   2.785   4.408  0.5321 -0.1802  0.0164
13111TIP3    H260825   1.139   2.838   4.469  0.6011  0.3491 -0.2982
13112TIP3   OH260826   6.166   2.549   1.742 -0.0288 -0.1012  1.0875
13112TIP3    H160827   6.133   2.464   1.773 -2.1816  0.8628  1.4976
13112TIP3    H260828   6.234   2.572   1.805  0.3274 -1.3609  1.1827
13113TIP3   OH260829   6.121   6.682   1.539  0.2726 -0.5768 -0.4628
13113TIP3    H160830   6.174   6.727   1.605 -0.4457  0.9732 -0.9249
13113TIP3    H260831   6.182   6.625   1.493  1.0694 -0.5666  0.5672
13114TIP3   OH260832   3.507   5.581   5.603  0.2097 -0.4018 -0.0811
13114TIP3    H160833   3.426   5.631   5.589  0.7762  0.4156 -0.5312
13114TIP3    H260834   3.521   5.534   5.521 -0.9437 -2.2209  0.7634
13115TIP3   OH260835   0.737   3.867  15.583  0.7370 -0.1372 -0.3494
13115TIP3    H160836   0.731   3.961  15.565  2.9735  0.1121  0.1245
13115TIP3    H260837   0.704   3.858  15.673 -0.5271  0.0216 -0.7833
13116TIP3   OH260838   5.535   5.022  11.193  0.5848  0.1454  0.2084
13116TIP3    H160839   5.554   4.978  11.110  1.5071  0.4579  0.2500
13116TIP3    H260840   5.480   4.960  11.241  1.6013 -0.8366  0.1321
13117TIP3   OH260841   1.763   0.781  16.569  0.6256 -0.1607 -0.0718
13117TIP3    H160842   1.757   0.686  16.557 -0.7955 -0.1913  0.7248
13117TIP3    H260843   1.795   0.814  16.485  0.4468 -1.2724 -0.5900
13118TIP3   OH260844   3.015   3.638   0.074 -1.0848 -0.3201 -0.2160
13118TIP3    H160845   3.087   3.616   0.016 -0.7616  1.0510 -0.3637
13118TIP3    H260846   2.980   3.720   0.038  0.4160  1.6623  2.6565
13119TIP3   OH260847   5.950   1.236   4.666 -0.6058 -0.4975 -0.7566
13119TIP3    H160848   5.886   1.256   4.598 -0.7499 -1.6406 -0.9688
13119TIP3    H260849   5.915   1.158   4.711  0.3261 -0.7774 -0.4845
13120TIP3   OH260850   2.596   0.384  14.245  0.1589 -0.0178  0.4396
13120TIP3    H160851   2.691   0.382  14.237  0.1155 -0.5316 -0.0136
13120TIP3    H260852   2.567   0.443  14.176 -0.0492 -2.4027 -1.5822
13121TIP3   OH260853   1.165   0.974   4.993 -0.3985  0.6558  0.1233
13121TIP3    H160854   1.249   1.019   4.985 -0.5752  0.9124 -0.3418
13121TIP3    H260855   1.151   0.934   4.907 -1.5189  1.9901 -0.3609
13122TIP3   OH260856   2.979   3.873   2.165 -0.2157 -0.1989 -0.0147
13122TIP3    H160857   2.969   3.802   2.229  0.9052 -0.8635 -0.5649
13122TIP3    H260858   3.046   3.930   2.202 -0.9411  0.4650  0.3076
13123TIP3   OH260859   6.168   2.661  13.626  0.0994 -0.3148  0.2037
13123TIP3    H160860   6.124   2.638  13.708  0.0794  2.2192  0.9330
13123TIP3    H260861   6.232   2.728  13.651 -1.1953  1.8680 -2.1546
13124TIP3   OH260862   4.417   6.520   2.842 -0.6477  0.3104 -0.2732
13124TIP3    H160863   4.347   6.537   2.778  0.4651  0.4790 -1.4562
13124TIP3    H260864   4.480   6.466   2.795 -0.0260  0.0653  0.8337
13125TIP3   OH260865   1.900   6.336   3.087 -0.1056 -0.6037  0.2698
13125TIP3    H160866   1.879   6.245   3.107 -0.7392 -0.0790  2.0852
13125TIP3    H260867   1.921   6.375   3.172  2.3366  0.4012 -0.7633
13126TIP3   OH260868   6.218   0.497   4.398  0.3055 -0.2683 -0.8120
13126TIP3    H160869   6.164   0.526   4.472  0.5846 -0.1341 -0.6604
13126TIP3    H260870   6.157   0.451   4.340  0.0208 -0.0852 -0.6592
13127TIP3   OH260871   6.286   6.362  13.353  0.3743 -0.3055 -0.9375
13127TIP3    H160872   6.359   6.305  13.375  0.5239 -0.2605 -1.3185
13127TIP3    H260873   6.266   6.407  13.435  0.4474 -0.6860 -0.7094
13128TIP3   OH260874   4.020   6.608   1.071 -0.1786 -0.0986  0.6887
13128TIP3    H160875   3.929   6.625   1.044 -0.9299  0.1315  3.2686
13128TIP3    H260876   4.049   6.538   1.013 -2.6973 -1.6170  1.1990
13129TIP3   OH260877   2.814   4.568  10.567  0.1818 -0.4189 -0.6169
13129TIP3    H160878   2.746   4.513  10.528 -0.7891  0.6940 -0.5149
13129TIP3    H260879   2.842   4.521  10.645  0.0657 -1.2485 -1.0762
13130TIP3   OH260880   3.100   3.694   4.295  0.4007  0.2693 -0.0326
13130TIP3    H160881   3.112   3.692   4.390 -3.2044 -0.7241  0.4612
13130TIP3    H260882   3.173   3.642   4.261  1.4727  0.2425  2.2047
13131TIP3   OH260883   5.541   5.100  13.350  0.2189 -0.2847 -0.2743
13131TIP3    H160884   5.501   5.014  13.354 -0.8090  0.1861 -0.1384
13131TIP3    H260885   5.499   5.149  13.421  1.1878  0.1673  0.0038
13132TIP3   OH260886   0.513   2.351   4.692  0.3188  0.2290  1.0027
13132TIP3    H160887   0.496   2.378   4.782  2.4946  0.0832  1.4839
13132TIP3    H260888   0.608   2.347   4.686  0.3271  2.7188 -2.0284
13133TIP3   OH260889   5.070   4.216  11.809 -0.4442  0.2172  0.5987
13133TIP3    H160890   5.127   4.156  11.857 -1.6714  0.1115  1.9712
13133TIP3    H260891   5.055   4.288  11.869 -0.8942  0.7549 -0.1526
13134TIP3   OH260892   1.629   1.504   5.095  0.4065  0.5815 -0.3585
13134TIP3    H160893   1.710   1.524   5.142 -0.5140  0.6886  1.2342
13134TIP3    H260894   1.627   1.408   5.091  1.1571  0.6050 -1.3962
13135TIP3   OH260895   2.489   1.836  11.497  0.2982  0.3571 -0.5723
13135TIP3    H160896   2.457   1.745  11.492  1.3274 -0.0269 -0.2996
13135TIP3    H260897   2.414   1.889  11.470 -0.3416 -0.5721 -0.6569
13136TIP3   OH260898   1.121   2.529  11.743  0.0779  0.1533 -0.4716
13136TIP3    H160899   1.048   2.477  11.776  1.0572 -0.9961 -0.0471
13136TIP3    H260900   1.088   2.569  11.662 -0.3135 -2.1575 -1.5008
13137TIP3   OH260901   4.097   2.078   5.937  0.1161  0.2505 -0.2755
13137TIP3    H160902   4.057   2.058   6.022  1.8095 -1.3013  0.1840
13137TIP3    H260903   4.145   1.999   5.914  0.0552  0.8189 -2.4945
13138TIP3   OH260904   5.198   5.746  16.711  0.0450 -0.2630 -0.3869
13138TIP3    H160905   5.291   5.726  16.702 -0.5804 -3.8627 -0.0128
13138TIP3    H260906   5.187   5.770  16.803  0.4543 -0.8800 -0.1764
13139TIP3   OH260907   4.413   1.630  14.136 -0.4580  0.4370 -0.4449
13139TIP3    H160908   4.420   1.570  14.211 -0.4941  0.3105 -0.5423
13139TIP3    H260909   4.460   1.586  14.066  0.4083  0.9891 -0.2300
13140TIP3   OH260910   5.282   1.853  11.654  0.1493 -0.5107 -0.5761
13140TIP3    H160911   5.264   1.947  11.658 -1.1530 -0.7384 -1.0655
13140TIP3    H260912   5.313   1.831  11.742  1.2461  0.5185 -0.6761
13141TIP3   OH260913   6.019   2.611   0.142  0.6290 -0.6241  0.0753
13141TIP3    H160914   5.969   2.532   0.122 -1.3182  0.7529 -0.6096
13141TIP3    H260915   6.001   2.628   0.235  1.0088 -0.9207  0.2096
13142TIP3   OH260916   2.744   4.485  15.251  0.3831 -0.5533  0.2411
13142TIP3    H160917   2.710   4.498  15.339 -0.8009  1.2113 -0.4381
13142TIP3    H260918   2.700   4.552  15.198  3.8817  0.9182 -0.9565
13143TIP3   OH260919   3.777   3.390   1.894  0.3016 -0.1468  0.0257
13143TIP3    H160920   3.793   3.480   1.866 -0.8919 -0.0898 -0.5016
13143TIP3    H260921   3.712   3.398   1.965 -0.9946 -0.6912 -1.0799
13144TIP3   OH260922   3.085   4.385  11.111  0.0310 -0.9500 -0.2149
13144TIP3    H160923   2.997   4.359  11.138  0.0708 -1.5526 -0.6477
13144TIP3    H260924   3.101   4.334  11.031  1.3939 -2.0896  0.7631
13145TIP3   OH260925   3.133   1.599   1.831 -0.1249 -0.4365  0.2040
13145TIP3    H160926   3.159   1.639   1.915  2.8871  1.2954 -1.4291
13145TIP3    H260927   3.053   1.645   1.806  0.5613  1.1187  0.7808
13146TIP3   OH260928   0.129   5.960   2.522  0.2335  0.2157 -0.3854
13146TIP3    H160929   0.034   5.960   2.524  0.2493 -0.9587  0.8734
13146TIP3    H260930   0.151   5.906   2.445 -0.1142  0.8795 -0.9510
13147TIP3   OH260931   2.091   0.181  13.734  0.1017 -0.1460  0.0040
13147TIP3    H160932   2.055   0.155  13.819 -1.4503  0.2357 -0.5289
13147TIP3    H260933   2.077   0.275  13.730 -0.2927 -0.2378 -0.8866
13148TIP3   OH260934   6.681   4.410   5.046  0.2106  0.5550  0.1361
13148TIP3    H160935   6.622   4.362   5.103  0.3297 -0.7770 -0.8462
13148TIP3    H260936   6.629   4.483   5.012 -0.4175  0.2426  0.4370
13149TIP3   OH260937   4.871   2.752   1.306  0.2843 -0.5170  0.1193
13149TIP3    H160938   4.953   2.785   1.269 -0.8174 -0.6187 -2.5322
13149TIP3    H260939   4.896   2.719   1.392  3.4525 -2.4127 -1.3993
13150TIP3   OH260940   2.955   1.989   3.810 -0.0153  0.6232  0.1106
13150TIP3    H160941   3.014   1.952   3.744  0.9662  1.5636  0.4454
13150TIP3    H260942   3.014   2.022   3.878 -1.0272 -0.9539  1.7935
13151TIP3   OH260943   0.344   6.430  12.361 -0.3454 -0.0565 -0.3290
13151TIP3    H160944   0.265   6.477  12.332 -0.6974  0.3819  1.2481
13151TIP3    H260945   0.355   6.458  12.452  0.2548 -1.9720  0.2054
13152TIP3   OH260946   5.187   4.738   4.790  0.2990  0.0474  0.4935
13152TIP3    H160947   5.240   4.721   4.868  0.2855 -0.9730  0.2783
13152TIP3    H260948   5.152   4.826   4.804  1.3684  0.4016  1.0295
13153TIP3   OH260949   0.284   1.565   2.171 -1.2284 -0.2447  0.3274
13153TIP3    H160950   0.241   1.529   2.249 -0.5814  0.7494  1.1623
13153TIP3    H260951   0.212   1.602   2.119 -1.7345 -1.4491  0.1416
13154TIP3   OH260952   4.165   1.892   1.140  0.2417  0.0966  0.1452
13154TIP3    H160953   4.149   1.985   1.126 -2.0218 -0.3014 -0.1254
13154TIP3    H260954   4.085   1.860   1.182  0.6602 -1.8762 -0.5013
13155TIP3   OH260955   6.416   2.164   0.804  0.0194 -0.0710 -0.3718
13155TIP3    H160956   6.417   2.123   0.890  1.3087 -0.4674 -0.5709
13155TIP3    H260957   6.474   2.240   0.812 -1.5843  1.1844 -0.2811
13156TIP3   OH260958   4.121   5.839  12.113 -0.0963  0.2847  0.1907
13156TIP3    H160959   4.143   5.746  12.115  0.2863  0.3667 -0.1640
13156TIP3    H260960   4.154   5.872  12.197  0.4802  0.2566 -0.0209
13157TIP3   OH260961   5.386   3.787  12.848  0.2947  0.0043 -0.0876
13157TIP3    H160962   5.386   3.693  12.827  0.2618 -0.5350  2.1726
13157TIP3    H260963   5.478   3.811  12.851  0.2910  0.2037 -1.2607
13158TIP3   OH260964   0.307   2.437  16.451  0.2554 -0.0484  0.2048
13158TIP3    H160965   0.369   2.477  16.390  0.0415  1.2909  0.8444
13158TIP3    H260966   0.361   2.378  16.504  1.0357  1.2482  0.8840
13159TIP3   OH260967   3.574   5.657   2.344 -0.0183 -0.2050 -0.2813
13159TIP3    H160968   3.493   5.708   2.342  0.5956  0.9837  2.4408
13159TIP3    H260969   3.610   5.664   2.256 -1.8858  0.9168 -0.9573
13160TIP3   OH260970   4.386   6.470  12.659 -0.8451  0.3588  0.4606
13160TIP3    H160971   4.313   6.446  12.717 -0.3070  0.3873  1.1486
13160TIP3    H260972   4.451   6.509  12.717  0.8325 -2.0736  0.2732
13161TIP3   OH260973   0.529   4.296   0.242  0.4682 -0.3646 -0.3188
13161TIP3    H160974   0.533   4.220   0.183  0.0795  0.4728 -1.4345
13161TIP3    H260975   0.506   4.369   0.185  1.3651  0.6909  0.6608
13162TIP3   OH260976   3.438   2.742  12.240 -0.1707  0.1992 -0.9284
13162TIP3    H160977   3.424   2.689  12.161 -0.6810  1.5286 -1.7545
13162TIP3    H260978   3.351   2.777  12.260 -0.2598 -1.0209  0.8886
13163TIP3   OH260979   4.172   0.965  14.244  0.8648  0.0365  0.0954
13163TIP3    H160980   4.081   0.972  14.216  0.1703 -0.9923  1.9974
13163TIP3    H260981   4.212   0.907  14.180  0.3860  1.0989 -1.1864
13164TIP3   OH260982   0.365   1.115   2.524 -0.4449 -0.2743 -0.0486
13164TIP3    H160983   0.438   1.063   2.490 -0.0815  0.4135 -0.3321
13164TIP3    H260984   0.299   1.111   2.454 -1.2821 -2.1061  0.8132
13165TIP3   OH260985   5.599   6.405  12.077  0.2773  0.1476 -0.3447
13165TIP3    H160986   5.608   6.324  12.128 -0.4432 -0.1906 -0.7546
13165TIP3    H260987   5.554   6.465  12.135 -0.3857 -0.1808 -0.5198
13166TIP3   OH260988   0.686   5.354  12.582  0.1129 -0.9437  0.5219
13166TIP3    H160989   0.755   5.289  12.568  0.2243 -0.8278  0.5353
13166TIP3    H260990   0.648   5.330  12.667  1.5539  0.2855  1.5481
13167TIP3   OH260991   1.136   2.666  16.845 -0.1708 -0.5265  0.2625
13167TIP3    H160992   1.208   2.704  16.795  0.1247 -0.7450  0.5209
13167TIP3    H260993   1.062   2.724  16.828  0.4845  0.6631  1.3162
13168TIP3   OH260994   0.042   2.010  16.300 -0.0017 -0.4524 -0.0884
13168TIP3    H160995   0.127   2.051  16.285  0.4172 -0.8387  1.2007
13168TIP3    H260996   0.063   1.919  16.323 -0.8125 -0.7708 -0.5814
13169TIP3   OH260997   3.198   5.053  10.649 -0.4850  0.1350 -0.1023
13169TIP3    H160998   3.213   5.039  10.556 -0.7127 -1.9470  0.1479
13169TIP3    H260999   3.242   4.980  10.692  0.2731  1.4981  1.4870
13170TIP3   OH261000   2.114   1.338   1.377  0.0378  0.1755  0.2475
13170TIP3    H161001   2.100   1.365   1.468 -0.8113 -0.2209  0.2476
13170TIP3    H261002   2.071   1.252   1.372  1.5808 -0.5869 -0.0759
13171TIP3   OH261003   5.348   0.606   5.190 -0.2838 -0.2882  0.3282
13171TIP3    H161004   5.358   0.675   5.255 -1.2936  0.7247 -0.5721
13171TIP3    H261005   5.433   0.561   5.189  0.6489  1.4472  0.3456
13172TIP3   OH261006   6.146   5.545  12.652 -0.0180  0.1614  0.0189
13172TIP3    H161007   6.194   5.485  12.595 -0.5835  0.0596 -0.3570
13172TIP3    H261008   6.134   5.624  12.599 -2.1972 -0.6097 -0.7278
13173TIP3   OH261009   6.068   4.274  12.739 -0.2210  0.4846  0.4525
13173TIP3    H161010   5.995   4.322  12.777 -1.8897 -0.5762 -1.3163
13173TIP3    H261011   6.036   4.184  12.731  1.5541 -0.1531  0.3722
13174TIP3   OH261012   0.330   4.643  16.619  0.0593  0.4210  0.1313
13174TIP3    H161013   0.397   4.711  16.608 -1.1628  1.7281  0.5403
13174TIP3    H261014   0.282   4.671  16.697 -1.3319 -0.1691 -0.5120
13175TIP3   OH261015   1.581   5.023   2.123 -0.3230 -0.1087 -0.1728
13175TIP3    H161016   1.643   5.091   2.097 -1.1615  1.3153  1.4921
13175TIP3    H261017   1.592   4.954   2.057  2.2237  0.5919 -0.5422
13176TIP3   OH261018   3.206   5.055   4.143 -0.1158  0.1639  0.4222
13176TIP3    H161019   3.293   5.045   4.181  0.2313  1.6184  0.0009
13176TIP3    H261020   3.218   5.037   4.050 -0.2157  0.6905  0.3103
13177TIP3   OH261021   0.388   0.678   3.596  0.2029 -0.6947 -0.5470
13177TIP3    H161022   0.412   0.673   3.689  0.0556  2.1348 -0.3181
13177TIP3    H261023   0.332   0.601   3.583 -0.0672 -0.9574  1.7942
13178TIP3   OH261024   3.267   5.325  14.515 -0.3654 -0.6921 -0.6303
13178TIP3    H161025   3.314   5.241  14.511  0.2946 -0.3138 -0.9300
13178TIP3    H261026   3.276   5.361  14.427 -0.6026 -0.2776 -0.4842
13179TIP3   OH261027   3.510   1.045   4.797  0.0607 -0.6855  0.5726
13179TIP3    H161028   3.438   1.082   4.848  0.3776 -0.4516  0.8538
13179TIP3    H261029   3.512   0.953   4.823 -2.3842 -1.5624 -2.0249
13180TIP3   OH261030   3.314   2.518   2.474 -0.0595 -0.2024  0.4936
13180TIP3    H161031   3.251   2.580   2.437  1.0582  1.4038  1.1976
13180TIP3    H261032   3.391   2.571   2.495  1.0076 -1.8680  0.9567
13181TIP3   OH261033   1.153   3.975  15.111  0.6153  0.2394  0.1694
13181TIP3    H161034   1.150   4.051  15.053 -0.1854  1.0495  1.2611
13181TIP3    H261035   1.112   3.905  15.060 -1.0224  1.2078  0.1150
13182TIP3   OH261036   5.180   2.173  14.519  0.5308 -0.1069  0.3002
13182TIP3    H161037   5.137   2.229  14.455 -0.3256 -0.2920  0.7139
13182TIP3    H261038   5.111   2.118  14.554  1.2113 -0.8140  0.5442
13183TIP3   OH261039   2.294   1.702  11.178 -0.1095  0.5140 -0.3643
13183TIP3    H161040   2.284   1.647  11.100 -0.3332  0.8106 -0.5435
13183TIP3    H261041   2.373   1.753  11.162  1.0077 -0.9016  0.4951
13184TIP3   OH261042   0.359   0.482  12.706  0.2877 -0.3336  0.3049
13184TIP3    H161043   0.387   0.481  12.797  0.0335 -0.8499  0.3767
13184TIP3    H261044   0.426   0.433  12.659  0.2424 -0.3554  0.2630
13185TIP3   OH261045   4.893   6.317  13.347  0.3333  0.2503 -0.1952
13185TIP3    H161046   4.951   6.328  13.422  0.5099 -1.3523 -0.0725
13185TIP3    H261047   4.849   6.234  13.363 -0.4389  0.4279 -1.3318
13186TIP3   OH261048   3.190   0.071  14.099 -0.4998  0.5789  0.3808
13186TIP3    H161049   3.226   0.052  14.186 -1.0808 -0.4590  0.4086
13186TIP3    H261050   3.267   0.083  14.044 -0.1178  0.6115  0.9105
13187TIP3   OH261051   6.344   2.105  11.425  0.0855 -0.1829 -0.0161
13187TIP3    H161052   6.355   2.057  11.343 -1.6167  1.3352 -1.1596
13187TIP3    H261053   6.328   2.036  11.491  2.2495 -1.4565 -0.7694
13188TIP3   OH261054   0.643   4.044   0.872  0.0252  0.4706 -0.0151
13188TIP3    H161055   0.712   4.077   0.929 -0.0746 -1.3302  1.1969
13188TIP3    H261056   0.655   3.949   0.872 -2.4082  0.1316  0.1750
13189TIP3   OH261057   1.837   0.336  14.406 -0.0187  0.1260  0.1712
13189TIP3    H161058   1.775   0.394  14.448  0.3011  0.0941  0.6915
13189TIP3    H261059   1.787   0.258  14.384 -0.5487  0.7496 -0.9001
13190TIP3   OH261060   1.135   4.503  15.433 -0.2746 -0.3192 -0.1774
13190TIP3    H161061   1.169   4.421  15.396  0.6407  0.4100 -0.9783
13190TIP3    H261062   1.200   4.530  15.497  0.3169  0.7058 -1.1964
13191TIP3   OH261063   4.975   1.645  10.445  0.1870  0.3067 -0.0639
13191TIP3    H161064   4.968   1.583  10.517 -1.7712  0.3296 -0.2082
13191TIP3    H261065   5.061   1.685  10.456  0.9047 -1.4580  0.8097
13192TIP3   OH261066   1.168   4.893   5.238 -0.3702 -0.5622  0.3603
13192TIP3    H161067   1.173   4.938   5.154 -2.6247  0.3522  0.6729
13192TIP3    H261068   1.198   4.957   5.303  2.0306 -1.4972  0.1997
13193TIP3   OH261069   3.679   3.089  13.444 -0.2666  0.1244 -0.0593
13193TIP3    H161070   3.623   3.161  13.471  0.0216  0.3172  0.0225
13193TIP3    H261071   3.707   3.048  13.526  0.8718  0.9091 -0.0580
13194TIP3   OH261072   1.683   0.711  13.133  0.1143 -0.3026  0.1337
13194TIP3    H161073   1.718   0.627  13.164  1.8465  0.1111 -0.7028
13194TIP3    H261074   1.751   0.747  13.078 -1.7380  0.3964 -1.7580
13195TIP3   OH261075   6.176   1.921   5.955  0.2059 -0.0706  0.1683
13195TIP3    H161076   6.213   1.854   6.012  1.0582  0.1142 -0.1545
13195TIP3    H261077   6.165   1.997   6.011 -1.7493 -0.7766  0.7924
13196TIP3   OH261078   3.734   0.910   4.066  0.2012  0.0279 -0.4136
13196TIP3    H161079   3.784   0.864   4.134  0.2994  0.6989 -0.0233
13196TIP3    H261080   3.755   0.865   3.985  0.6174 -0.3546 -0.0923
13197TIP3   OH261081   1.656   1.409   2.600  0.0984  0.0649 -0.4344
13197TIP3    H161082   1.716   1.440   2.533  0.5451  0.0456 -0.0522
13197TIP3    H261083   1.657   1.313   2.590  2.3042 -0.1669  1.3453
13198TIP3   OH261084   1.572   0.923   1.971  0.7631  0.0171 -0.2498
13198TIP3    H161085   1.562   0.832   1.945  1.5532 -0.8955  2.4296
13198TIP3    H261086   1.660   0.948   1.940 -0.5238  0.8132 -3.4647
13199TIP3   OH261087   2.959   0.163  15.653 -0.5746  0.2291 -0.2940
13199TIP3    H161088   2.879   0.130  15.692 -0.1326  0.4597  0.8274
13199TIP3    H261089   2.971   0.250  15.692 -0.4621  0.7177 -1.4154
13200TIP3   OH261090   2.658   4.970  16.442  0.1602  0.3535 -0.2001
13200TIP3    H161091   2.685   4.911  16.512 -0.9636 -0.2875 -0.2985
13200TIP3    H261092   2.597   5.031  16.484  0.5486  0.8349 -0.3246
13201TIP3   OH261093   5.221   5.283  14.737 -0.0935 -0.1400  0.5126
13201TIP3    H161094   5.289   5.293  14.670 -1.8319  2.6283 -0.9239
13201TIP3    H261095   5.246   5.343  14.807 -1.0002  0.9059 -0.0301
13202TIP3   OH261096   2.640   0.929  15.359  0.7380 -0.2629  0.3854
13202TIP3    H161097   2.617   0.927  15.266  0.4274  2.1134  0.3787
13202TIP3    H261098   2.668   0.840  15.379 -1.3979 -1.3746 -1.4198
13203TIP3   OH261099   0.605   5.106   4.025  0.7101  0.1146 -0.8352
13203TIP3    H161100   0.687   5.060   4.045  0.2911 -0.1199  0.4199
13203TIP3    H261101   0.625   5.157   3.947  1.3510 -1.7449 -1.9163
13204TIP3   OH261102   2.102   6.608  17.183 -0.1850 -0.4075 -0.0910
13204TIP3    H161103   2.057   6.688  17.155 -0.3236 -0.5234 -0.1990
13204TIP3    H261104   2.032   6.547  17.203 -0.0922 -0.2887  0.6257
13205TIP3   OH261105   1.358   1.560  12.981 -0.3616  0.3161 -0.1073
13205TIP3    H161106   1.408   1.562  12.899 -1.1504 -0.6927 -0.6194
13205TIP3    H261107   1.317   1.646  12.986 -0.8485  0.1513 -1.1074
13206TIP3   OH261108   3.479   3.252   0.243 -0.1200 -0.4207 -0.1810
13206TIP3    H161109   3.424   3.325   0.217  1.2361  0.6410 -0.1423
13206TIP3    H261110   3.558   3.293   0.278  0.9568 -1.8974 -0.8130
13207TIP3   OH261111   4.912   0.987  15.661  0.1184  0.0905  0.0977
13207TIP3    H161112   4.998   0.966  15.624  0.0875 -1.9111  1.0882
13207TIP3    H261113   4.933   1.040  15.739  0.4353 -0.2069  0.2159
13208TIP3   OH261114   5.920   0.941   3.657  0.8491  0.3181  0.1049
13208TIP3    H161115   5.866   0.919   3.581  0.2691  0.0213  0.5957
13208TIP3    H261116   6.007   0.957   3.621 -0.0705  3.1661 -1.0013
13209TIP3   OH261117   6.745   2.537   2.181  0.0268  0.0508 -0.1706
13209TIP3    H161118   6.802   2.608   2.152  1.6722 -1.1272  0.1279
13209TIP3    H261119   6.772   2.519   2.271  0.1545 -1.4548 -0.4959
13210TIP3   OH261120   5.653   4.569   4.714  0.2758 -0.4312 -0.1689
13210TIP3    H161121   5.647   4.557   4.619 -1.6274 -0.6352 -0.0434
13210TIP3    H261122   5.724   4.511   4.741  1.3288  0.1984 -1.5656
13211TIP3   OH261123   5.023   0.049  14.541 -0.0654 -0.1283 -0.1902
13211TIP3    H161124   5.075   0.083  14.614  0.5140  0.6497 -0.9566
13211TIP3    H261125   5.077  -0.020  14.503 -0.0838 -0.0908 -0.2842
13212TIP3   OH261126   2.955   6.569  12.335 -0.5488  0.2166 -0.3365
13212TIP3    H161127   2.890   6.623  12.290  2.2614  3.8831 -0.2506
13212TIP3    H261128   2.923   6.563  12.425 -1.2663  1.1551 -0.5197
13213TIP3   OH261129   0.716   0.064  11.194  0.2146 -0.3704  0.1130
13213TIP3    H161130   0.712   0.109  11.279 -0.3389 -0.6520  0.2411
13213TIP3    H261131   0.765  -0.016  11.212  2.9993  1.1143 -0.5492
13214TIP3   OH261132   3.977   2.816  11.889 -0.0141  0.5768  0.0505
13214TIP3    H161133   3.956   2.909  11.879  1.6331  0.8423 -1.0691
13214TIP3    H261134   3.929   2.774  11.818 -0.0892  0.6706  0.0440
13215TIP3   OH261135   4.416   3.751  14.467 -0.4023  0.2729 -0.6110
13215TIP3    H161136   4.490   3.711  14.513 -1.8722  0.0215  1.6376
13215TIP3    H261137   4.343   3.691  14.482 -1.7857  2.0148 -0.1892
13216TIP3   OH261138   3.139   5.003   1.361 -0.1731  0.0158  0.7259
13216TIP3    H161139   3.201   4.979   1.292  0.5416  3.0896  0.2281
13216TIP3    H261140   3.132   5.099   1.355 -4.3788 -0.1696  1.2844
13217TIP3   OH261141   4.719   0.207   0.660 -0.1052  0.3950 -0.1014
13217TIP3    H161142   4.647   0.256   0.621  0.3678  1.0882 -0.1173
13217TIP3    H261143   4.677   0.140   0.714 -0.7535  1.1962  0.3929
13218TIP3   OH261144   0.195   1.447  16.230 -0.1063 -0.7717  0.0465
13218TIP3    H161145   0.151   1.378  16.279  0.5516  0.1559  1.9775
13218TIP3    H261146   0.288   1.424  16.235  0.0876  0.0759  0.4415
13219TIP3   OH261147   1.591   0.153   2.563  0.0664 -0.3181  0.1656
13219TIP3    H161148   1.640   0.181   2.485  0.1482  0.2368  0.4157
13219TIP3    H261149   1.552   0.070   2.537  1.7312 -1.1311  0.1987
13220TIP3   OH261150   0.726   5.834  17.224 -0.1786  0.3400 -0.1551
13220TIP3    H161151   0.750   5.907  17.282  0.4014 -0.8872  1.1553
13220TIP3    H261152   0.698   5.877  17.143  0.9094  1.9981  0.3230
13221TIP3   OH261153   2.525   1.342   2.025 -0.3680  0.2435 -0.8488
13221TIP3    H161154   2.615   1.316   2.045 -0.6388 -0.2610 -0.2628
13221TIP3    H261155   2.471   1.286   2.081 -1.0216  0.9984 -0.7208
13222TIP3   OH261156   0.380   0.359  14.463 -0.0445  0.3322 -0.1939
13222TIP3    H161157   0.434   0.280  14.472 -3.5569 -2.3484 -1.4739
13222TIP3    H261158   0.388   0.403  14.548  3.4985 -0.3060 -0.1167
13223TIP3   OH261159   4.882   6.479   6.367 -0.1939 -0.2697  0.8662
13223TIP3    H161160   4.824   6.437   6.430 -0.5583  0.1724  0.8272
13223TIP3    H261161   4.891   6.569   6.399 -0.1975 -0.1084  0.4155
13224TIP3   OH261162   1.116   6.290  12.509  0.3221 -0.1066 -0.1879
13224TIP3    H161163   1.071   6.289  12.594 -1.8518  1.7389 -1.2658
13224TIP3    H261164   1.057   6.241  12.451  0.2877  1.3117 -1.3573
13225TIP3   OH261165   3.652   3.446   3.875  0.1949 -0.2140 -0.5816
13225TIP3    H161166   3.590   3.373   3.871  1.0757 -0.9053 -3.4869
13225TIP3    H261167   3.719   3.419   3.938 -0.1593 -1.3903 -0.7069
13226TIP3   OH261168   2.452   6.375  13.054  0.5265  0.1695 -0.2927
13226TIP3    H161169   2.390   6.304  13.069  0.6182 -0.2252 -1.6951
13226TIP3    H261170   2.398   6.452  13.040  0.4336  0.4732  1.6051
13227TIP3   OH261171   2.253   3.484   0.557  0.0039  0.0279 -0.1446
13227TIP3    H161172   2.312   3.530   0.616 -1.7510  1.8777  0.2275
13227TIP3    H261173   2.251   3.538   0.478 -1.0705 -0.0765 -0.1957
13228TIP3   OH261174   6.739   3.681   4.444 -0.1662 -0.3390  0.1856
13228TIP3    H161175   6.808   3.636   4.494  0.5465 -1.4572 -1.7561
13228TIP3    H261176   6.686   3.724   4.511  1.6733 -0.5083  1.8145
13229TIP3   OH261177   1.967   2.534  15.419 -0.0421 -0.0778 -0.2086
13229TIP3    H161178   1.946   2.468  15.485 -1.5047  0.0401 -0.5534
13229TIP3    H261179   1.891   2.592  15.418  0.7265  0.9276 -0.7594
13230TIP3   OH261180   1.625   3.826  17.148 -0.5675 -0.0083 -0.4025
13230TIP3    H161181   1.621   3.738  17.109 -1.8983 -0.3533  0.4647
13230TIP3    H261182   1.549   3.872  17.112 -0.9141  0.1789  0.5599
13231TIP3   OH261183   6.578   0.349   5.219 -0.2541 -0.3262 -0.0319
13231TIP3    H161184   6.561   0.442   5.233  0.2911 -0.1356 -0.6461
13231TIP3    H261185   6.551   0.307   5.301 -0.5509  0.3608  0.2241
13232TIP3   OH261186   6.351   4.561  13.482 -0.7422 -0.5792  0.2874
13232TIP3    H161187   6.312   4.601  13.404 -0.7525 -0.6396  0.2615
13232TIP3    H261188   6.289   4.493  13.507 -0.7273 -0.5749  0.3344
13233TIP3   OH261189   1.164   2.082   1.303 -0.1147  0.1702 -0.1508
13233TIP3    H161190   1.211   2.145   1.248  2.3932 -0.7991  0.8133
13233TIP3    H261191   1.097   2.046   1.245 -1.0945  3.1216 -0.9451
13234TIP3   OH261192   2.195   0.082  16.680  0.0440 -0.2372  0.0088
13234TIP3    H161193   2.124   0.035  16.637  0.4233 -1.4567  0.6991
13234TIP3    H261194   2.264   0.087  16.614  0.1005 -0.8809  0.0209
13235TIP3   OH261195   3.931   1.100   5.324 -0.1899 -0.0204  0.1626
13235TIP3    H161196   3.879   1.096   5.404  1.9889 -0.3775  1.5880
13235TIP3    H261197   3.916   1.189   5.291  0.4107  0.8022  2.0220
13236TIP3   OH261198   4.024   3.656   5.287  0.2582 -1.1592  0.1737
13236TIP3    H161199   3.950   3.596   5.299 -0.3284 -0.6678 -0.8458
13236TIP3    H261200   4.088   3.630   5.353 -1.1008 -1.1721  1.5030
13237TIP3   OH261201   4.864   0.785  13.654 -0.2291  0.3181  0.3192
13237TIP3    H161202   4.770   0.771  13.642 -0.2152 -0.6637  1.3250
13237TIP3    H261203   4.872   0.813  13.745  0.9059 -3.9614  1.6193
13238TIP3   OH261204   1.733   0.985  11.751 -0.3851 -0.1028 -0.6153
13238TIP3    H161205   1.744   0.894  11.725  2.0673 -0.7931  2.4395
13238TIP3    H261206   1.807   1.031  11.710  0.5391 -0.2379  0.8549
13239TIP3   OH261207   5.961   2.308  14.471  0.0340  0.6744  0.0036
13239TIP3    H161208   5.962   2.349  14.384  1.4338  1.6993  0.4695
13239TIP3    H261209   5.993   2.377  14.529 -0.8232 -0.0348  1.3260
13240TIP3   OH261210   4.241   4.115  12.255 -0.3805  0.2060  0.5100
13240TIP3    H161211   4.330   4.150  12.262  0.0025 -0.8446  1.0266
13240TIP3    H261212   4.247   4.028  12.294 -1.7828  0.3738  1.1202
13241TIP3   OH261213   3.676   2.739  17.208  0.3252  0.2975 -0.2531
13241TIP3    H161214   3.747   2.748  17.272 -0.7712 -0.0346  1.0268
13241TIP3    H261215   3.668   2.645  17.196  0.3918  0.3549 -0.7257
13242TIP3   OH261216   4.653   3.400  11.141  0.0133  0.1232 -1.2036
13242TIP3    H161217   4.645   3.374  11.232  0.3277  0.2607 -1.1368
13242TIP3    H261218   4.706   3.331  11.100 -1.6059 -0.8614 -1.6808
13243TIP3   OH261219   2.029   5.252   4.896 -0.3064  0.4161 -0.1316
13243TIP3    H161220   2.105   5.308   4.882  0.1343 -0.6233 -2.0592
13243TIP3    H261221   2.066   5.167   4.919 -0.9575  0.5918  1.6849
13244TIP3   OH261222   6.203   2.460   0.630 -0.0294 -0.0467 -0.1600
13244TIP3    H161223   6.284   2.496   0.668 -1.5784  1.9960  1.3264
13244TIP3    H261224   6.226   2.441   0.539  2.2419  0.0757  0.3437
13245TIP3   OH261225   1.664   6.371  16.116 -0.1283 -0.2749  0.4558
13245TIP3    H161226   1.687   6.281  16.139  0.1140 -0.9518 -2.2478
13245TIP3    H261227   1.729   6.395  16.049 -0.3602  1.8166  0.9595
13246TIP3   OH261228   0.805   3.694  13.437  0.5545  0.3697 -0.7005
13246TIP3    H161229   0.890   3.651  13.428 -0.1090 -0.9638 -0.7264
13246TIP3    H261230   0.760   3.645  13.506 -0.8214  0.0126 -1.8123
13247TIP3   OH261231   1.436   5.077  12.399  0.6201 -0.7273  0.2188
13247TIP3    H161232   1.475   5.067  12.485 -1.3101 -1.2374  1.0569
13247TIP3    H261233   1.369   5.009  12.394 -1.1213  0.9924 -0.6202
13248TIP3   OH261234   5.769   3.129  15.861 -0.1238 -0.5732  0.1119
13248TIP3    H161235   5.733   3.058  15.914 -0.4214 -0.0387  0.6369
13248TIP3    H261236   5.748   3.209  15.910  1.8771 -0.2543  0.5063
13249TIP3   OH261237   5.791   6.295  10.532 -0.1421  0.0155 -0.1304
13249TIP3    H161238   5.773   6.224  10.593  1.0488 -0.5124 -0.3716
13249TIP3    H261239   5.801   6.252  10.447 -1.7777  0.7373 -0.7149
13250TIP3   OH261240   5.931   1.238   5.257  0.1609 -0.3377 -0.2987
13250TIP3    H161241   5.885   1.238   5.341 -0.8578  1.5392 -0.8112
13250TIP3    H261242   6.024   1.230   5.280  0.0791  2.4206  1.1868
13251TIP3   OH261243   1.961   0.900  12.109  0.1917  0.0598  0.1630
13251TIP3    H161244   1.962   0.806  12.089 -1.5823  0.0312  0.1888
13251TIP3    H261245   1.875   0.930  12.082  0.1880  1.3932  1.5754
13252TIP3   OH261246   4.309   3.267   1.826 -0.2170  0.0500  0.2010
13252TIP3    H161247   4.395   3.263   1.868 -0.4510  0.5043  0.7287
13252TIP3    H261248   4.255   3.317   1.887 -0.7280  0.1770 -0.3542
13253TIP3   OH261249   6.426   4.881   6.445  0.6916 -0.0792 -0.1802
13253TIP3    H161250   6.496   4.824   6.414  0.3047 -0.3327 -0.5751
13253TIP3    H261251   6.347   4.848   6.403  0.2086 -0.2650  0.8502
13254TIP3   OH261252   0.774   4.732   4.542 -0.5179  0.4794 -0.2438
13254TIP3    H161253   0.848   4.731   4.603 -0.0884 -0.1455 -0.7513
13254TIP3    H261254   0.737   4.819   4.549  2.5882  2.0954 -2.7229
13255TIP3   OH261255   4.965   5.479   1.049  0.1647  0.1160  1.0875
13255TIP3    H161256   4.970   5.419   0.974  0.5249  0.0161  1.1926
13255TIP3    H261257   4.871   5.498   1.058 -0.3403 -3.1403  3.2285
13256TIP3   OH261258   6.479   5.030   1.643  0.2655  0.0891 -0.3199
13256TIP3    H161259   6.558   4.976   1.639  0.0283 -0.4154  1.6115
13256TIP3    H261260   6.493   5.088   1.717 -1.2916 -0.1920  0.2181
13257TIP3   OH261261   0.640   4.635   1.006  0.4522  0.0716 -0.0999
13257TIP3    H161262   0.646   4.567   0.939  1.3887 -2.5961  2.5890
13257TIP3    H261263   0.688   4.709   0.969 -2.0144 -0.0059 -3.8181
13258TIP3   OH261264   3.346   1.936   5.590  0.5850 -0.6364 -0.0412
13258TIP3    H161265   3.269   1.980   5.628  0.5770 -0.2896 -0.4515
13258TIP3    H261266   3.315   1.848   5.570  0.5002 -0.7253  0.4688
13259TIP3   OH261267   5.956   0.627   2.794  0.3734  0.4178 -0.1910
13259TIP3    H161268   5.979   0.567   2.723 -0.0099  1.3722 -1.1284
13259TIP3    H261269   6.040   0.656   2.829  0.5868  1.1427 -1.2812
13260TIP3   OH261270   3.457   3.308   3.560  0.1783  0.8613 -0.2083
13260TIP3    H161271   3.525   3.343   3.503 -1.6878  1.8040 -1.9208
13260TIP3    H261272   3.418   3.235   3.511 -0.9113  1.1689  0.1705
13261TIP3   OH261273   2.589   5.337   4.001 -0.3033  0.2703  0.2083
13261TIP3    H161274   2.530   5.300   3.936  0.4716 -0.6667  0.0223
13261TIP3    H261275   2.649   5.392   3.952  0.2259 -0.3663  0.1429
13262TIP3   OH261276   5.132   2.506  11.476 -0.1117 -0.0503 -0.4878
13262TIP3    H161277   5.194   2.579  11.470 -0.8169  0.6064  0.1663
13262TIP3    H261278   5.178   2.433  11.434  1.5876  0.1138  1.0040
13263TIP3   OH261279   6.674   6.418  15.933  0.8779 -0.7831 -0.0403
13263TIP3    H161280   6.660   6.494  15.989  0.1100  0.1685 -1.5139
13263TIP3    H261281   6.769   6.414  15.921  0.9054  0.0161 -0.0811
13264TIP3   OH261282   3.377   6.817   3.189 -0.1601 -0.5243 -0.2531
13264TIP3    H161283   3.439   6.789   3.121  0.3033  1.1680 -0.5425
13264TIP3    H261284   3.431   6.860   3.255 -1.1238  1.7862 -0.9428
13265TIP3   OH261285   6.172   0.875   0.308 -0.0892  0.0005 -0.6639
13265TIP3    H161286   6.134   0.946   0.359  1.9578  1.9350 -1.7113
13265TIP3    H261287   6.104   0.851   0.246 -0.9050  0.8651 -0.1299
13266TIP3   OH261288   6.680   0.641  16.998 -0.3588  0.7274  0.5392
13266TIP3    H161289   6.629   0.692  16.935 -0.2824 -0.6950 -0.7037
13266TIP3    H261290   6.757   0.696  17.016  0.0891  0.7533 -1.3372
13267TIP3   OH261291   1.647   5.306  14.006  0.2917 -0.4718  0.4244
13267TIP3    H161292   1.596   5.302  13.925 -0.7297  1.6379  0.9155
13267TIP3    H261293   1.725   5.356  13.982  1.0928 -1.7823  0.2242
13268TIP3   OH261294   1.214   5.571  11.742  0.1331  0.2015 -0.2543
13268TIP3    H161295   1.310   5.569  11.739  0.1434 -0.9183  0.5317
13268TIP3    H261296   1.189   5.485  11.775 -0.9873  1.5793  2.7025
13269TIP3   OH261297   4.258   6.628   0.079 -0.0593  0.3863 -0.0444
13269TIP3    H161298   4.222   6.700   0.131 -0.9767  2.0619 -2.9027
13269TIP3    H261299   4.340   6.605   0.124 -0.1971  2.6247  1.4213
13270TIP3   OH261300   3.813   3.641   5.839 -0.0368 -0.0975 -0.0503
13270TIP3    H161301   3.736   3.698   5.835 -0.6871 -0.9711 -0.0525
13270TIP3    H261302   3.883   3.697   5.874 -0.6071  0.7634 -0.2768
13271TIP3   OH261303   4.758   4.204  11.774  0.0920  0.6747 -0.1372
13271TIP3    H161304   4.716   4.289  11.765  1.2596  1.5051  2.0426
13271TIP3    H261305   4.850   4.219  11.752  0.4221  0.1261  0.7987
13272TIP3   OH261306   2.532   2.832  16.074 -0.0025  0.1701  0.3733
13272TIP3    H161307   2.540   2.739  16.095 -0.4247  0.2389  0.8546
13272TIP3    H261308   2.438   2.850  16.078  0.1036  0.6956  0.6344
13273TIP3   OH261309   4.574   4.478   0.609  0.7766 -0.0542 -0.2131
13273TIP3    H161310   4.561   4.429   0.528 -0.4862  1.8498 -1.1738
13273TIP3    H261311   4.657   4.525   0.595  0.9133 -0.2660 -0.1194
13274TIP3   OH261312   0.680   4.915   0.138  0.6427  0.4521 -0.0527
13274TIP3    H161313   0.733   4.856   0.191  1.1538  0.1475 -0.9157
13274TIP3    H261314   0.678   4.996   0.189  0.6900 -0.0135  0.6952
13275TIP3   OH261315   2.797   2.677   1.003  0.1039  0.1304 -0.6155
13275TIP3    H161316   2.868   2.616   1.023  1.0858  1.2013 -0.8050
13275TIP3    H261317   2.840   2.754   0.967 -0.9777  1.6594  1.2508
13276TIP3   OH261318   3.922   0.686  11.265  0.2783  0.3008  0.1646
13276TIP3    H161319   3.935   0.653  11.354  0.0262  2.0245  0.8741
13276TIP3    H261320   4.007   0.723  11.240 -0.0345  1.0655  0.2298
13277TIP3   OH261321   1.854   2.238   3.332 -0.4544  0.0020 -0.3277
13277TIP3    H161322   1.874   2.324   3.366  1.3973 -0.2523 -0.7568
13277TIP3    H261323   1.771   2.214   3.375 -1.7364  2.5440 -1.2604
13278TIP3   OH261324   4.299   1.344  10.861  0.3078 -0.4188 -1.0643
13278TIP3    H161325   4.311   1.336  10.767 -0.0075 -1.8028 -0.9899
13278TIP3    H261326   4.205   1.344  10.874  0.3440  0.0430 -0.7644
13279TIP3   OH261327   2.568   2.868  13.350  0.3223  0.9439  0.2700
13279TIP3    H161328   2.607   2.956  13.348  0.0982  1.0578  0.9405
13279TIP3    H261329   2.519   2.865  13.431 -0.7477  0.6498 -0.3829
13280TIP3   OH261330   5.159   0.844  13.925 -0.2402 -0.2345  0.2369
13280TIP3    H161331   5.205   0.813  13.847 -0.5523  0.1800 -0.1115
13280TIP3    H261332   5.119   0.765  13.962  0.8837 -0.6253  0.6345
13281TIP3   OH261333   1.370   4.542  13.686 -0.6210 -0.2703 -0.2211
13281TIP3    H161334   1.429   4.467  13.674 -0.3485 -0.0189 -0.4645
13281TIP3    H261335   1.380   4.565  13.779  0.0194  0.0604 -0.3648
13282TIP3   OH261336   4.616   5.011  13.660 -0.1052 -0.3786 -0.5735
13282TIP3    H161337   4.540   4.999  13.717 -0.1975 -0.7405 -0.7706
13282TIP3    H261338   4.662   4.927  13.663 -0.3460 -0.5506 -1.3678
13283TIP3   OH261339   1.084   5.961   0.226  0.1866  0.3470  0.2571
13283TIP3    H161340   1.178   5.943   0.226  1.0213  4.1096 -1.0958
13283TIP3    H261341   1.046   5.893   0.171  2.5837  0.5657 -1.7436
13284TIP3   OH261342   1.468   3.213   4.796 -0.1575  0.0439 -0.5987
13284TIP3    H161343   1.396   3.226   4.857 -0.5632 -0.9985 -0.8575
13284TIP3    H261344   1.462   3.122   4.769  1.0877  0.0191 -0.8465
13285TIP3   OH261345   0.412   3.918  15.819  0.2004 -0.2572  0.2250
13285TIP3    H161346   0.415   3.982  15.747  1.0698 -1.8259 -1.1649
13285TIP3    H261347   0.489   3.938  15.872  0.3000  0.0544 -0.0318
13286TIP3   OH261348   6.002   1.561   4.476  0.0171  0.3199  0.4935
13286TIP3    H161349   5.934   1.551   4.543 -0.3968 -0.2669 -0.0123
13286TIP3    H261350   6.052   1.480   4.479 -0.4432 -0.0095 -0.3884
13287TIP3   OH261351   6.790   4.603  16.521 -0.5234 -0.6141  0.4563
13287TIP3    H161352   6.770   4.658  16.597 -3.4742 -0.9289 -0.0133
13287TIP3    H261353   6.720   4.623  16.458  0.1736 -2.5381 -0.9887
13288TIP3   OH261354   2.069   2.416   5.988  0.4045 -0.0116  0.1533
13288TIP3    H161355   2.108   2.435   6.074 -0.0301  0.9010  0.1552
13288TIP3    H261356   2.138   2.436   5.925  0.3529  0.4180  0.2289
13289TIP3   OH261357   1.824   0.128   3.638  0.2087  0.2332 -0.1667
13289TIP3    H161358   1.899   0.186   3.624 -0.8708  1.8144  0.4110
13289TIP3    H261359   1.807   0.090   3.551  2.1875 -0.8074 -0.1174
13290TIP3   OH261360   4.088   0.744  11.854  0.0063  0.1192 -0.2032
13290TIP3    H161361   4.173   0.699  11.852 -0.3282 -0.6308  1.6426
13290TIP3    H261362   4.028   0.679  11.889 -1.5020  0.4039 -2.2088
13291TIP3   OH261363   4.755   1.025   1.410  0.0432  0.0485 -0.3358
13291TIP3    H161364   4.700   0.948   1.399 -1.2916  1.1856 -1.7165
13291TIP3    H261365   4.714   1.093   1.356  1.3997  1.6262  0.5515
13292TIP3   OH261366   4.759   3.896   2.312  0.1514  0.4601 -0.3420
13292TIP3    H161367   4.818   3.855   2.248  0.4853  0.3689  0.0227
13292TIP3    H261368   4.814   3.960   2.358  0.1526 -0.1288  0.4881
13293TIP3   OH261369   4.958   1.925  14.958 -0.0843 -0.6323 -0.1751
13293TIP3    H161370   4.936   2.011  14.924  1.1674 -0.1933  0.1094
13293TIP3    H261371   4.874   1.882  14.970 -0.6932  0.3855 -0.7418
13294TIP3   OH261372   3.518   4.163  13.896 -0.1248  0.1464  0.0984
13294TIP3    H161373   3.480   4.211  13.822 -0.7293 -0.6767 -0.1278
13294TIP3    H261374   3.449   4.166  13.963 -0.7034 -1.5651 -0.4012
13295TIP3   OH261375   4.506   4.678  13.438 -0.8132 -0.1638 -0.6905
13295TIP3    H161376   4.550   4.664  13.522  0.4551 -0.1930 -1.3443
13295TIP3    H261377   4.413   4.671  13.458 -0.5120 -0.4359  0.6642
13296TIP3   OH261378   0.223   0.168  15.758 -0.0923 -0.3396 -0.6275
13296TIP3    H161379   0.143   0.216  15.779 -0.1794 -0.1565 -1.3660
13296TIP3    H261380   0.233   0.106  15.830  1.1049  2.1212  1.3854
13297TIP3   OH261381   6.480   5.460  11.627  0.0190  0.4021  0.2439
13297TIP3    H161382   6.536   5.474  11.704  0.5927  1.0908 -0.2888
13297TIP3    H261383   6.526   5.505  11.556 -1.1638  0.8635 -0.2310
13298TIP3   OH261384   2.341   2.924   3.365 -0.1895  0.2231  0.1747
13298TIP3    H161385   2.300   2.881   3.291 -1.3928 -0.2490  1.0870
13298TIP3    H261386   2.275   2.986   3.396  1.2181  2.1848 -0.6323
13299TIP3   OH261387   5.443   6.521   1.420 -0.3032  0.1204 -0.3728
13299TIP3    H161388   5.355   6.488   1.439 -0.0873  0.4198  1.1979
13299TIP3    H261389   5.450   6.518   1.325 -1.4056 -1.4880 -0.4192
13300TIP3   OH261390   0.153   5.469  13.601 -0.4960 -0.0921  0.1142
13300TIP3    H161391   0.074   5.521  13.619 -0.5408 -0.7298  1.7511
13300TIP3    H261392   0.203   5.472  13.682  1.3678  0.6135 -1.0350
13301TIP3   OH261393   0.124   4.943   0.526 -0.1055  0.8045  0.5148
13301TIP3    H161394   0.151   4.876   0.588  3.0365 -0.4691 -2.1091
13301TIP3    H261395   0.205   4.988   0.502 -1.8623  4.3064  0.7045
13302TIP3   OH261396   3.856   1.152   1.723  0.1954  0.2855 -0.7848
13302TIP3    H161397   3.941   1.179   1.688  1.0187 -1.5520 -0.2440
13302TIP3    H261398   3.860   1.056   1.726 -1.8631  0.1736 -0.6676
13303TIP3   OH261399   3.017   2.068   6.129  0.1130 -0.3122  0.7118
13303TIP3    H161400   2.967   2.004   6.180  0.1773 -0.9841 -0.0581
13303TIP3    H261401   2.952   2.104   6.068  0.1205  0.2284  1.0215
13304TIP3   OH261402   5.790   4.350  15.693  0.2343 -0.9866 -0.4873
13304TIP3    H161403   5.746   4.415  15.639  1.2410 -1.4039 -1.8358
13304TIP3    H261404   5.870   4.328  15.645  1.6438 -0.6687  1.6143
13305TIP3   OH261405   3.760   4.130   3.397  0.3163  0.0932  0.4343
13305TIP3    H161406   3.794   4.047   3.366  0.6112  0.5230 -0.4044
13305TIP3    H261407   3.720   4.110   3.482 -0.0702 -0.9906 -0.0005
13306TIP3   OH261408   5.661   4.108   0.566 -0.6796  0.0628  0.4327
13306TIP3    H161409   5.588   4.061   0.526 -0.4760  0.3518 -0.2906
13306TIP3    H261410   5.682   4.059   0.645  0.3408 -1.7805 -0.9380
13307TIP3   OH261411   0.508   3.184   3.975  0.0440 -0.2140 -0.3175
13307TIP3    H161412   0.492   3.090   3.980 -0.3187 -0.2803 -2.1759
13307TIP3    H261413   0.603   3.192   3.972  0.1145 -0.4289  1.2568
13308TIP3   OH261414   5.809   3.411   4.169  0.0372 -0.0139  0.3274
13308TIP3    H161415   5.903   3.410   4.151  0.1952 -2.3231  1.0986
13308TIP3    H261416   5.770   3.362   4.096 -0.8239  2.6453 -1.0685
13309TIP3   OH261417   0.437   0.088   5.458  0.3850 -0.5261  0.4126
13309TIP3    H161418   0.488   0.094   5.539  1.8071  0.2740 -0.5277
13309TIP3    H261419   0.432   0.178   5.425 -1.6118 -0.6076  0.4717
13310TIP3   OH261420   4.964   1.920  12.551  0.0385  0.0381 -0.2938
13310TIP3    H161421   4.924   1.839  12.583 -0.6215  0.1159 -0.9115
13310TIP3    H261422   4.926   1.988  12.606 -0.2713  0.0514 -0.5216
13311TIP3   OH261423   1.229   1.280  12.017 -0.1326 -0.2431  0.1447
13311TIP3    H161424   1.144   1.317  11.993 -0.6437 -0.1706  1.9514
13311TIP3    H261425   1.240   1.204  11.960 -1.2517 -0.0523 -0.3306
13312TIP3   OH261426   4.679   2.735   0.928  0.1175  0.2643  0.0790
13312TIP3    H161427   4.653   2.807   0.985  0.7694 -0.4598  1.3172
13312TIP3    H261428   4.747   2.689   0.977 -0.4884 -1.3496 -0.5653
13313TIP3   OH261429   5.237   2.158   1.476 -0.0312 -0.1267  0.1787
13313TIP3    H161430   5.215   2.142   1.385 -0.7613  0.7089  0.1978
13313TIP3    H261431   5.214   2.250   1.490  4.0154  1.0117  0.0336
13314TIP3   OH261432   1.004   0.045   0.054 -0.1721  0.4543 -0.1012
13314TIP3    H161433   0.963  -0.034   0.019 -3.0984  0.9419  2.0867
13314TIP3    H261434   1.033   0.021   0.142  2.4952  0.7389 -0.8411
13315TIP3   OH261435   4.297   1.571   4.345 -0.1068  0.1435 -0.3876
13315TIP3    H161436   4.338   1.654   4.321 -0.0780 -0.7947 -3.9412
13315TIP3    H261437   4.229   1.558   4.279 -0.7897 -2.1750  0.7002
13316TIP3   OH261438   6.078   1.668  11.926 -0.7220 -0.3798  0.1258
13316TIP3    H161439   6.155   1.614  11.944  0.4798  2.0205  2.4476
13316TIP3    H261440   6.010   1.634  11.984  0.0273  0.5115  1.5678
13317TIP3   OH261441   2.843   6.036   1.274 -0.0660  0.0776  0.9440
13317TIP3    H161442   2.801   6.020   1.189  1.2999  0.1772  0.2294
13317TIP3    H261443   2.799   5.978   1.335 -1.1017  0.0433  0.1642
13318TIP3   OH261444   1.584   5.290   4.679 -0.2066 -0.0864 -0.8303
13318TIP3    H161445   1.557   5.341   4.755  1.7620 -0.8117  0.3919
13318TIP3    H261446   1.611   5.205   4.715 -1.6725 -1.3544 -2.6179
13319TIP3   OH261447   4.477   2.831   2.567 -0.3175 -0.1605 -0.1436
13319TIP3    H161448   4.544   2.824   2.635  0.1583 -0.5388 -0.6475
13319TIP3    H261449   4.431   2.747   2.570  0.2907 -0.5329 -0.8859
13320TIP3   OH261450   1.851   6.771   1.558  0.0919 -0.5634  0.3710
13320TIP3    H161451   1.858   6.861   1.589  0.1945  0.3648 -2.2548
13320TIP3    H261452   1.931   6.756   1.507 -0.7724 -1.5099 -0.7468
13321TIP3   OH261453   6.668   4.259  12.140  0.2931  0.3239 -0.5865
13321TIP3    H161454   6.751   4.211  12.137  0.3605  0.3797  0.3664
13321TIP3    H261455   6.680   4.331  12.078  1.2075  0.7238  0.0407
13322TIP3   OH261456   3.794   0.545  17.001 -0.2719  0.1866 -0.4308
13322TIP3    H161457   3.844   0.573  16.925  1.2544  0.6702  0.7326
13322TIP3    H261458   3.793   0.621  17.059  1.0216 -1.0693  1.2659
13323TIP3   OH261459   3.018   6.066  12.418 -0.3908 -0.0935 -0.1717
13323TIP3    H161460   3.034   6.150  12.375 -1.5718 -0.2410 -0.9236
13323TIP3    H261461   3.092   6.011  12.389 -0.9062 -0.0401 -1.6559
13324TIP3   OH261462   6.542   3.045  11.335 -0.2250 -0.0476 -0.1801
13324TIP3    H161463   6.610   3.106  11.306  0.9000  0.0108  2.3793
13324TIP3    H261464   6.460   3.089  11.315  0.5597  2.3389  1.5535
13325TIP3   OH261465   2.254   4.569   2.245  0.1557 -0.1910  0.4224
13325TIP3    H161466   2.323   4.634   2.251  1.1118 -1.2708  1.3404
13325TIP3    H261467   2.207   4.575   2.328  1.6294 -2.1704  1.4349
13326TIP3   OH261468   5.975   6.696   2.778  0.0357  0.1251  0.1263
13326TIP3    H161469   5.957   6.759   2.848 -0.7000  1.0378 -0.8559
13326TIP3    H261470   6.062   6.719   2.747  0.0529  0.2137  0.2401
13327TIP3   OH261471   2.826   4.045   5.823 -0.0457 -0.0456  0.0417
13327TIP3    H161472   2.799   4.107   5.890 -2.0744 -0.2401 -0.5695
13327TIP3    H261473   2.817   4.093   5.740  1.5417 -0.1051 -0.1827
13328TIP3   OH261474   2.546   2.494   5.891 -0.2103 -0.0692  0.0763
13328TIP3    H161475   2.635   2.493   5.927 -0.0429 -2.9337 -0.2743
13328TIP3    H261476   2.499   2.558   5.945  0.9024 -1.8023  3.2147
13329TIP3   OH261477   6.742   0.093  11.445 -0.2918 -0.1729 -0.0553
13329TIP3    H161478   6.788   0.148  11.508 -0.7309 -0.4922  0.5482
13329TIP3    H261479   6.754   0.004  11.478 -1.5534 -0.2344  0.2514
13330TIP3   OH261480   0.011   3.042  14.570 -0.4488  0.5461  0.3755
13330TIP3    H161481  -0.031   2.961  14.540  0.7866  0.0213  0.0703
13330TIP3    H261482   0.059   3.016  14.648  2.1327  0.3866 -1.2153
13331TIP3   OH261483   4.697   5.034  11.615  0.0428 -0.5399  0.4549
13331TIP3    H161484   4.639   4.984  11.558 -1.1160  1.0101  0.2414
13331TIP3    H261485   4.767   5.064  11.557  0.1676 -1.0142  0.3584
13332TIP3   OH261486   2.805   1.887  15.123 -0.4546 -0.2259  0.1604
13332TIP3    H161487   2.873   1.824  15.146 -0.4197  0.1152  0.9995
13332TIP3    H261488   2.773   1.920  15.207 -2.6167 -1.4003 -0.1847
13333TIP3   OH261489   4.857   1.877   4.662  0.0445 -0.7905 -0.4305
13333TIP3    H161490   4.843   1.903   4.571  0.3842  0.7455 -0.0470
13333TIP3    H261491   4.950   1.852   4.665  0.6026  1.2282 -0.0282
13334TIP3   OH261492   3.889   4.625   0.032  0.1817 -0.2617 -0.2413
13334TIP3    H161493   3.901   4.535   0.002  2.0153 -0.2706  0.4406
13334TIP3    H261494   3.819   4.620   0.096  0.3408 -1.2331 -0.1350
13335TIP3   OH261495   2.762   0.709  11.303 -0.4959  0.6777 -0.3924
13335TIP3    H161496   2.671   0.704  11.274 -0.4283 -1.1930 -0.3436
13335TIP3    H261497   2.779   0.802  11.314 -2.4060  1.0403 -0.4291
13336TIP3   OH261498   0.261   3.716   5.102 -0.0448  0.1773  0.6503
13336TIP3    H161499   0.342   3.689   5.059 -0.8153 -2.1928  0.6527
13336TIP3    H261500   0.258   3.811   5.088  2.4668  0.2310  0.2377
13337TIP3   OH261501   6.241   6.013  17.016  0.0503 -0.1703 -0.3689
13337TIP3    H161502   6.216   6.099  16.983 -0.7818 -0.3268 -0.1609
13337TIP3    H261503   6.175   5.992  17.082  0.8461 -0.5139  0.3275
13338TIP3   OH261504   1.957   2.408  14.502 -0.2307  0.3383 -0.0186
13338TIP3    H161505   1.887   2.407  14.437 -1.5963  1.7562  1.3755
13338TIP3    H261506   2.001   2.492  14.488  0.2673  0.0857  0.0402
13339TIP3   OH261507   1.205   6.111  11.308  0.1080  0.0468 -0.1451
13339TIP3    H161508   1.284   6.059  11.319 -0.4023 -0.6830  0.1088
13339TIP3    H261509   1.180   6.136  11.398 -0.1260  0.0129 -0.2003
13340TIP3   OH261510   6.422   2.953   5.743  0.3132 -0.1094 -0.3060
13340TIP3    H161511   6.418   3.026   5.681  0.4132 -0.7608 -1.0871
13340TIP3    H261512   6.514   2.945   5.766  0.6441 -1.4775 -2.0268
13341TIP3   OH261513   5.856   6.430  11.183  0.3522  0.3415 -0.0405
13341TIP3    H161514   5.931   6.463  11.133 -1.4994  2.1889 -1.7186
13341TIP3    H261515   5.835   6.346  11.143  1.5435 -0.2081  0.4703
13342TIP3   OH261516   4.075   2.371   6.182 -0.1834  0.2972  0.2000
13342TIP3    H161517   4.042   2.285   6.209  0.7028 -1.7044 -4.5307
13342TIP3    H261518   4.169   2.357   6.171  0.2810  2.4530  1.2510
13343TIP3   OH261519   5.972   3.063   3.503  0.0861  0.0815 -0.0867
13343TIP3    H161520   6.007   3.120   3.435  0.2829  0.2171  0.1278
13343TIP3    H261521   6.028   2.985   3.499 -1.1617 -0.7643 -1.4365
13344TIP3   OH261522   2.025   2.325  12.722  0.0973 -0.0153 -0.1835
13344TIP3    H161523   1.995   2.352  12.809  1.3156  1.0066 -0.0679
13344TIP3    H261524   1.959   2.359  12.662 -0.9877 -1.1128  0.3623
13345TIP3   OH261525   3.780   0.314  16.815 -0.1401  0.5789  0.4089
13345TIP3    H161526   3.784   0.389  16.875  0.1427  1.8405 -1.1455
13345TIP3    H261527   3.849   0.331  16.751 -1.0874 -0.2441 -0.8491
13346TIP3   OH261528   3.099   1.670   3.494 -0.4189  0.1352 -0.0532
13346TIP3    H161529   3.051   1.752   3.490  0.3297  0.5529 -0.4876
13346TIP3    H261530   3.146   1.664   3.411 -0.3220 -0.6433  0.0455
13347TIP3   OH261531   0.123   5.187  12.760  0.4438  0.5683 -0.1645
13347TIP3    H161532   0.199   5.203  12.704  0.9050  0.2079  0.3593
13347TIP3    H261533   0.136   5.099  12.794 -0.0277  0.6432  0.2101
13348TIP3   OH261534   4.681   3.475   5.021 -0.2861 -0.1770  0.2603
13348TIP3    H161535   4.601   3.443   5.064  0.4106 -2.1630  0.1184
13348TIP3    H261536   4.707   3.551   5.074 -0.4275 -1.5172  2.3137
13349TIP3   OH261537   4.263   4.147  14.990  0.1222  0.2028  0.0194
13349TIP3    H161538   4.331   4.105  15.043  0.6834  1.2363  0.1220
13349TIP3    H261539   4.181   4.106  15.019  0.6095 -0.4740  0.4551
13350TIP3   OH261540   5.890   5.823   3.004  0.8740 -0.1336 -0.0203
13350TIP3    H161541   5.893   5.863   2.917 -0.1763  0.0331  0.0102
13350TIP3    H261542   5.905   5.896   3.064 -2.4681  0.5384  0.0991
13351TIP3   OH261543   1.779   3.276  15.537  0.0190  0.4326  0.1339
13351TIP3    H161544   1.844   3.301  15.603  0.4422  1.1246 -0.5442
13351TIP3    H261545   1.802   3.327  15.460 -0.5889 -0.2391 -0.4986
13352TIP3   OH261546   5.381   1.949   3.706 -0.0033  0.1995  0.1058
13352TIP3    H161547   5.390   1.884   3.636  0.9100  1.5587 -1.0607
13352TIP3    H261548   5.451   1.927   3.768  2.0356  1.6687 -1.6079
13353TIP3   OH261549   0.890   4.136  11.657  0.1094 -0.2355  0.3087
13353TIP3    H161550   0.945   4.063  11.630  0.0594 -0.1640  0.0074
13353TIP3    H261551   0.947   4.213  11.651 -0.5405  0.1069 -1.8251
13354TIP3   OH261552   4.497   4.797   5.436  0.1387 -0.2550  0.6502
13354TIP3    H161553   4.467   4.829   5.522  1.6589  1.3726  0.6177
13354TIP3    H261554   4.476   4.869   5.376  1.3335 -0.3626  0.1086
13355TIP3   OH261555   0.446   5.086   5.304  0.3106 -0.0873 -0.2539
13355TIP3    H161556   0.530   5.047   5.281 -0.3722 -0.4652 -2.1217
13355TIP3    H261557   0.430   5.056   5.394  2.2877  0.2280  0.2401
13356TIP3   OH261558   1.060   2.757  13.085  0.7351  0.4053  0.1881
13356TIP3    H161559   1.125   2.817  13.121  1.1084  1.1682 -1.6689
13356TIP3    H261560   0.987   2.813  13.058  0.8471 -0.0312 -1.0553
13357TIP3   OH261561   4.078   3.087  13.064 -0.1723  0.2687 -0.3764
13357TIP3    H161562   4.082   3.182  13.059 -2.8294  0.4875  0.4024
13357TIP3    H261563   4.020   3.061  12.992  0.1777 -0.7281 -0.3190
13358TIP3   OH261564   6.545   6.603   2.767 -0.1363 -0.2593  0.2584
13358TIP3    H161565   6.565   6.685   2.723  0.0513  0.1012  1.0104
13358TIP3    H261566   6.615   6.543   2.740  0.7880  0.3766  1.1903
13359TIP3   OH261567   3.828   4.579   6.237 -0.5976 -0.4161  0.1018
13359TIP3    H161568   3.791   4.659   6.201  1.9678  1.3606  1.2452
13359TIP3    H261569   3.918   4.577   6.204  0.0277 -1.6869  1.7756
13360TIP3   OH261570   0.756   2.941   2.730 -0.2466  0.4102 -0.2400
13360TIP3    H161571   0.743   3.011   2.667 -1.6349  0.7645  0.4389
13360TIP3    H261572   0.796   2.984   2.806  0.0277  0.2498 -0.2932
13361TIP3   OH261573   1.165   0.658  11.605  0.2561  0.3960 -0.3207
13361TIP3    H161574   1.162   0.588  11.669  0.2394  1.1442  0.5026
13361TIP3    H261575   1.095   0.637  11.543  0.9723 -0.9035 -0.7066
13362TIP3   OH261576   2.913   6.490   3.094  0.2099 -0.3079  0.2149
13362TIP3    H161577   2.860   6.502   3.173  0.0355 -1.8915  0.3629
13362TIP3    H261578   2.983   6.554   3.102 -0.3310  0.1780  1.1946
13363TIP3   OH261579   1.034   5.711  13.237 -0.6626  0.5152  0.5072
13363TIP3    H161580   0.999   5.766  13.167  1.4486  1.3909  0.1034
13363TIP3    H261581   0.967   5.644  13.250 -1.8093  1.2656 -1.2342
13364TIP3   OH261582   0.713   1.573   1.922  0.1052 -0.2812  0.1279
13364TIP3    H161583   0.632   1.603   1.965  0.6547  1.7294 -0.2006
13364TIP3    H261584   0.686   1.495   1.873 -1.1212 -1.0173  1.8911
13365TIP3   OH261585   5.864   6.784  12.560 -0.1301 -0.1145  0.0117
13365TIP3    H161586   5.828   6.762  12.474 -0.2136  0.4866 -0.1044
13365TIP3    H261587   5.947   6.828  12.541  0.0530 -0.3478  0.2519
13366TIP3   OH261588   5.083   3.557   3.349  0.1984 -0.0006 -0.4508
13366TIP3    H161589   5.033   3.484   3.384 -0.7259  0.1216 -1.4907
13366TIP3    H261590   5.017   3.620   3.321  0.9535  0.5929 -0.9089
13367TIP3   OH261591   6.627   3.293  11.191  0.4469  0.6241 -0.0980
13367TIP3    H161592   6.601   3.379  11.156  0.0891 -0.1112 -1.6612
13367TIP3    H261593   6.722   3.291  11.179  0.5107  0.9619  0.3188
13368TIP3   OH261594   0.883   6.141  10.541  0.1770  0.0522  0.3319
13368TIP3    H161595   0.913   6.058  10.505 -0.1798 -0.1700  0.5456
13368TIP3    H261596   0.962   6.183  10.574  0.5663  0.4393 -1.0783
13369TIP3   OH261597   6.787   0.368  16.998  0.4303 -0.1951  0.3595
13369TIP3    H161598   6.721   0.434  17.018  0.3852 -0.2066  0.2485
13369TIP3    H261599   6.867   0.401  17.039  0.1622 -0.5888  1.1985
13370TIP3   OH261600   5.385   0.007   0.009 -0.6786  0.4659  0.1727
13370TIP3    H161601   5.463   0.048   0.047 -0.6769  2.0722 -1.5069
13370TIP3    H261602   5.317   0.074   0.017 -1.4901 -0.3556  0.1997
13371TIP3   OH261603   0.768   0.245   5.812  0.2697 -0.0999  0.2313
13371TIP3    H161604   0.762   0.272   5.904 -1.5655  0.0741  0.0801
13371TIP3    H261605   0.850   0.197   5.806  1.3965  1.5877  1.5247
13372TIP3   OH261606   3.045   5.840   4.258 -0.3552  0.1452  0.0559
13372TIP3    H161607   3.136   5.819   4.235  0.4007  2.9780  0.2925
13372TIP3    H261608   3.049   5.867   4.349 -1.2044  1.5544 -0.3041
13373TIP3   OH261609   0.491   1.149   1.754 -0.1314  0.2221 -0.0630
13373TIP3    H161610   0.533   1.189   1.679 -0.7454  0.9077 -0.0420
13373TIP3    H261611   0.483   1.219   1.818  0.3614 -0.3473  0.6389
13374TIP3   OH261612   1.082   4.525   4.467 -0.6288 -0.1021 -0.3649
13374TIP3    H161613   1.013   4.497   4.407 -0.8933  0.9820 -0.5751
13374TIP3    H261614   1.138   4.582   4.415  0.8892 -1.5951 -0.4084
13375TIP3   OH261615   6.356   2.253   5.126  0.1412 -0.3761 -0.0779
13375TIP3    H161616   6.332   2.226   5.038 -0.3265 -2.0874  0.5352
13375TIP3    H261617   6.411   2.181   5.158 -0.3720 -0.1696  1.3002
13376TIP3   OH261618   5.442   2.710  14.671  0.2892 -0.2774 -0.2384
13376TIP3    H161619   5.403   2.625  14.651  2.6134 -1.2041 -0.9979
13376TIP3    H261620   5.535   2.691  14.687  0.2001  1.6441  3.0549
13377TIP3   OH261621   0.722   3.890   3.602 -0.1101 -0.0764  0.5357
13377TIP3    H161622   0.765   3.908   3.519 -0.0212  0.7733  0.7589
13377TIP3    H261623   0.781   3.831   3.648 -0.8448 -1.7227 -0.6013
13378TIP3   OH261624   0.422   2.910   3.671 -0.0858 -0.4642 -0.2411
13378TIP3    H161625   0.432   2.906   3.766  0.3025 -0.7545 -0.2899
13378TIP3    H261626   0.365   2.835   3.650  1.8248 -1.8973 -0.4807
13379TIP3   OH261627   2.072   0.469  11.520 -0.2053 -0.8414  0.1433
13379TIP3    H161628   2.018   0.436  11.447 -0.6225 -0.2154  0.1669
13379TIP3    H261629   2.158   0.484  11.481 -0.2927 -0.9878 -0.1063
13380TIP3   OH261630   3.745   1.533   3.101  0.2329 -0.0150  0.0026
13380TIP3    H161631   3.787   1.468   3.157  0.4080  0.6753  0.6811
13380TIP3    H261632   3.817   1.573   3.052  0.3914  1.1589  1.1564
13381TIP3   OH261633   3.988   1.854  14.970 -0.2950  0.0260  0.7499
13381TIP3    H161634   4.041   1.932  14.957 -0.0163 -0.2581  0.1498
13381TIP3    H261635   3.980   1.815  14.882 -2.2702  0.5631  0.6592
13382TIP3   OH261636   1.189   1.521   0.086 -0.0762 -0.3389 -0.2482
13382TIP3    H161637   1.259   1.556   0.142 -0.0622  0.4080 -0.7200
13382TIP3    H261638   1.227   1.444   0.045 -0.6457 -1.9274  2.0808
13383TIP3   OH261639   3.843   3.919   2.794 -0.4259  0.4841 -0.0285
13383TIP3    H161640   3.795   3.999   2.818  0.1289  0.6495  0.5192
13383TIP3    H261641   3.892   3.944   2.716 -2.5896 -0.1868 -1.6665
13384TIP3   OH261642   4.608   4.399  12.011 -0.0614 -0.4194 -0.1476
13384TIP3    H161643   4.552   4.441  11.946 -0.1250  1.2614  0.9643
13384TIP3    H261644   4.609   4.306  11.985  0.2495  0.2675 -2.7419
13385TIP3   OH261645   5.548   4.477   5.234  0.1832 -0.4897  0.0151
13385TIP3    H161646   5.622   4.451   5.179 -0.8372 -4.3625  0.3534
13385TIP3    H261647   5.559   4.427   5.315 -0.2548  2.5106  2.0150
13386TIP3   OH261648   2.212   2.719  15.945 -0.3452  0.5783  0.8292
13386TIP3    H161649   2.130   2.714  15.896  0.5131  0.4465 -0.6415
13386TIP3    H261650   2.238   2.811  15.941 -0.7585  0.7497  1.8842
13387TIP3   OH261651   2.342   0.344  11.306 -0.3618 -0.3018  0.1556
13387TIP3    H161652   2.344   0.339  11.210 -0.2725 -0.7382  0.1773
13387TIP3    H261653   2.288   0.269  11.332 -0.2922 -0.2508  0.4489
13388TIP3   OH261654   3.428   3.292   3.893  0.5925  0.2064  0.2185
13388TIP3    H161655   3.406   3.336   3.812 -0.1513  1.1314  0.9160
13388TIP3    H261656   3.346   3.250   3.920  0.5009  0.9775  1.1528
13389TIP3   OH261657   4.786   0.900   4.279  0.4842  0.4775 -0.4556
13389TIP3    H161658   4.818   0.988   4.297  1.1987  0.3762 -1.2023
13389TIP3    H261659   4.752   0.869   4.363  0.3123  1.4258 -0.1712
13390TIP3   OH261660   1.305   0.854   2.912 -0.5056  0.2809  0.1384
13390TIP3    H161661   1.302   0.813   2.998 -0.0522 -0.4492 -0.1990
13390TIP3    H261662   1.312   0.782   2.850  0.1729  0.8529 -0.4607
13391TIP3   OH261663   1.238   3.159  14.437 -0.7172 -0.1340  0.1703
13391TIP3    H161664   1.239   3.220  14.364 -0.4416  1.1591  1.2444
13391TIP3    H261665   1.236   3.072  14.395 -3.5461  0.5853 -1.3727
13392TIP3   OH261666   2.487   1.914  15.993  0.2172 -0.9380 -0.3574
13392TIP3    H161667   2.566   1.861  15.979  0.6378 -0.1753 -0.8811
13392TIP3    H261668   2.439   1.908  15.910  0.9252  0.5975 -0.8869
13393TIP3   OH261669   0.747   1.759   3.600  0.1856  0.0436  0.3454
13393TIP3    H161670   0.741   1.774   3.695 -0.8708 -0.6610  0.3929
13393TIP3    H261671   0.716   1.669   3.588  3.8811 -1.2495 -0.2394
13394TIP3   OH261672   1.194   0.824  11.872 -0.4999 -0.3390  0.1100
13394TIP3    H161673   1.165   0.802  11.784 -1.3776  0.4261  0.1972
13394TIP3    H261674   1.200   0.740  11.918 -2.4366 -0.5392  0.0377
13395TIP3   OH261675   1.151   2.214  11.464 -0.0195 -0.0711 -0.0481
13395TIP3    H161676   1.209   2.181  11.396 -0.7800 -0.2829 -0.6026
13395TIP3    H261677   1.207   2.269  11.519  0.5908  0.1418 -0.8737
13396TIP3   OH261678   4.048   2.909  12.295 -0.3809 -0.4452 -0.7763
13396TIP3    H161679   3.998   2.857  12.357  0.0677  2.7469  2.4408
13396TIP3    H261680   4.135   2.869  12.295 -0.2378 -0.1599  1.0883
13397TIP3   OH261681   3.117   3.537  13.818  0.4947 -0.1990  0.5349
13397TIP3    H161682   3.209   3.545  13.842  0.7551 -1.1719 -0.0990
13397TIP3    H261683   3.091   3.451  13.851  0.0108 -0.2227  0.1002
13398TIP3   OH261684   5.261   5.195   2.266 -0.4548  0.1237 -0.1335
13398TIP3    H161685   5.179   5.236   2.294 -0.6803 -1.0681  1.0011
13398TIP3    H261686   5.311   5.184   2.346  0.3184 -0.2510 -0.6593
13399TIP3   OH261687   0.508   2.432   4.947  0.4147 -0.4334  0.2901
13399TIP3    H161688   0.508   2.363   5.013  1.6049 -0.9840 -0.2521
13399TIP3    H261689   0.560   2.503   4.986  0.3262 -0.3832  0.3163
13400TIP3   OH261690   4.638   4.789  14.516  0.0209  0.0187  0.1066
13400TIP3    H161691   4.697   4.730  14.469  0.4638  0.3636  0.2213
13400TIP3    H261692   4.680   4.875  14.509 -1.8496  0.7845 -2.1563
13401TIP3   OH261693   3.312   6.800   1.603 -0.1887  0.1727 -0.3039
13401TIP3    H161694   3.235   6.777   1.551 -0.1062 -0.7352 -0.0341
13401TIP3    H261695   3.371   6.844   1.542 -0.7260  0.4520 -0.6192
13402TIP3   OH261696   5.191   3.678   5.568  0.0532 -0.2228 -0.5806
13402TIP3    H161697   5.205   3.658   5.661  3.1400 -1.8927 -1.3319
13402TIP3    H261698   5.102   3.647   5.551 -0.5804  0.1574  1.8239
13403TIP3   OH261699   5.850   2.578   2.704  0.3297 -0.1661  0.3202
13403TIP3    H161700   5.800   2.636   2.646  1.3338  0.7829  0.3811
13403TIP3    H261701   5.886   2.511   2.645 -0.5345 -0.5207  0.1936
13404TIP3   OH261702   6.167   4.457   2.134 -0.1056  0.4935  0.6397
13404TIP3    H161703   6.088   4.494   2.173 -1.7515 -1.1953 -0.9976
13404TIP3    H261704   6.137   4.417   2.052  2.2543 -1.1021  0.5075
13405TIP3   OH261705   3.208   1.501  10.518 -0.2501  0.1256 -0.7302
13405TIP3    H161706   3.218   1.418  10.564 -1.2762  1.3144  1.7098
13405TIP3    H261707   3.119   1.499  10.482 -0.0738 -0.0723 -1.1536
13406TIP3   OH261708   0.435   4.466  13.469 -0.6635 -0.0753  0.1703
13406TIP3    H161709   0.392   4.481  13.385  0.7253  1.1530 -0.3345
13406TIP3    H261710   0.376   4.405  13.515 -2.6570  1.1376 -0.6990
13407TIP3   OH261711   2.145   5.732   2.560 -0.4022 -0.1654  0.3205
13407TIP3    H161712   2.126   5.640   2.579  1.8281 -0.6309  0.4513
13407TIP3    H261713   2.153   5.773   2.646  1.3699 -0.4732  0.3235
13408TIP3   OH261714   2.060   1.288  14.187  0.2655 -0.2100  0.1398
13408TIP3    H161715   2.041   1.377  14.217 -1.1441 -0.1282 -0.9470
13408TIP3    H261716   1.998   1.233  14.234  0.8371 -0.5851  0.4715
13409TIP3   OH261717   6.187   0.817  15.426  0.4106  0.0475 -0.7287
13409TIP3    H161718   6.104   0.856  15.454  0.9184 -0.0303  0.9329
13409TIP3    H261719   6.184   0.822  15.330 -1.5134  0.0277 -0.7046
13410TIP3   OH261720   6.367   3.914  15.380  0.4239  0.1164  0.5965
13410TIP3    H161721   6.400   3.997  15.414 -1.8653  0.7054  1.4985
13410TIP3    H261722   6.283   3.936  15.340  1.6604 -1.0985 -2.8201
13411TIP3   OH261723   6.782   0.697   0.741 -0.6215 -0.2566  0.0832
13411TIP3    H161724   6.778   0.692   0.646 -2.5028  2.6680 -0.0383
13411TIP3    H261725   6.848   0.764   0.759 -1.8259  0.7854  0.7510
13412TIP3   OH261726   5.181   4.556   5.793  1.0569  0.8229 -0.2004
13412TIP3    H161727   5.218   4.591   5.712  1.0712 -0.2554 -0.6684
13412TIP3    H261728   5.163   4.633   5.847  0.1452  1.6151 -1.6178
13413TIP3   OH261729   6.345   4.476  14.946 -0.2958  0.3778  0.2092
13413TIP3    H161730   6.410   4.545  14.944  0.6266 -0.5049 -1.8239
13413TIP3    H261731   6.349   4.442  15.036 -0.1217  2.3176  0.9618
13414TIP3   OH261732   0.149   4.982  16.215 -0.0635 -0.0327  0.4751
13414TIP3    H161733   0.083   4.976  16.145 -2.7461  0.1296  2.9081
13414TIP3    H261734   0.113   4.931  16.287  1.6264  1.5433  2.5217
13415TIP3   OH261735   1.031   0.572   0.080  0.4188 -0.6110 -0.4077
13415TIP3    H161736   0.942   0.601   0.058  0.4319 -0.4214 -0.2177
13415TIP3    H261737   1.018   0.493   0.132  0.3494 -0.3707 -0.0605
13416TIP3   OH261738   5.987   0.408   4.203 -0.2843 -0.1395  0.2668
13416TIP3    H161739   5.923   0.477   4.219  0.2579  0.3787  0.1901
13416TIP3    H261740   5.959   0.336   4.260 -0.2306  0.5262  1.1473
13417TIP3   OH261741   0.182   2.342   2.213  0.7367  0.2026 -0.6931
13417TIP3    H161742   0.139   2.295   2.142 -0.2236 -2.5799  1.6244
13417TIP3    H261743   0.130   2.422   2.225  0.1451  0.0488 -2.2125
13418TIP3   OH261744   2.741   5.550  15.578 -0.1866  0.4934 -0.3101
13418TIP3    H161745   2.793   5.523  15.653  1.0031  1.9360 -0.6054
13418TIP3    H261746   2.779   5.504  15.504 -1.3529 -0.9206 -0.0396
13419TIP3   OH261747   3.558   6.233   2.189  0.0476  0.3659 -0.1119
13419TIP3    H161748   3.475   6.224   2.236  0.0028 -1.7000 -0.5419
13419TIP3    H261749   3.566   6.152   2.139  2.0268  0.8173 -0.5642
13420TIP3   OH261750   6.309   3.464  16.024 -0.4024  0.3438  0.0349
13420TIP3    H161751   6.261   3.513  15.956 -1.4127  1.1679  1.3097
13420TIP3    H261752   6.241   3.413  16.069  0.6320 -2.2447 -1.2412
13421TIP3   OH261753   4.656   0.131  13.954  0.2029 -0.8316 -0.1247
13421TIP3    H161754   4.700   0.138  13.869  1.0418 -0.8528  0.3058
13421TIP3    H261755   4.727   0.129  14.018 -0.4504  0.4117  0.6639
13422TIP3   OH261756   0.169   0.741   5.984 -0.1686  0.1739 -0.0161
13422TIP3    H161757   0.252   0.789   5.977  0.4104 -0.3453  2.8074
13422TIP3    H261758   0.157   0.702   5.898  3.4976 -1.2829  0.0679
13423TIP3   OH261759   2.042   4.614   6.001  0.5943 -0.0111 -0.2197
13423TIP3    H161760   1.988   4.582   6.072  0.4185 -0.3082 -0.4887
13423TIP3    H261761   2.028   4.709   6.001 -0.5582 -0.1742 -0.8150
13424TIP3   OH261762   6.582   4.374  16.896  0.1427  0.2228 -0.2872
13424TIP3    H161763   6.558   4.391  16.987 -0.6984 -0.0430 -0.4596
13424TIP3    H261764   6.667   4.418  16.886  1.3419 -1.6621  1.2518
13425TIP3   OH261765   3.701   3.884  12.825 -0.1071  0.7341  0.0124
13425TIP3    H161766   3.742   3.824  12.763 -0.3946  0.4350  0.1106
13425TIP3    H261767   3.721   3.848  12.911 -0.6558  0.5359  0.0589
13426TIP3   OH261768   4.361   0.686  15.006 -0.1548 -0.0929  0.1443
13426TIP3    H161769   4.390   0.766  14.961 -0.1091  0.6961  1.5665
13426TIP3    H261770   4.415   0.617  14.967  1.7764  0.9693  0.8278
13427TIP3   OH261771   5.168   2.978   2.425  0.4252 -0.2026 -0.1128
13427TIP3    H161772   5.208   3.058   2.391  0.8180 -0.7607 -0.9626
13427TIP3    H261773   5.143   2.928   2.348 -1.1926 -0.2329  0.4084
13428TIP3   OH261774   1.078   1.225  10.906 -0.6566 -0.1741  0.3861
13428TIP3    H161775   1.073   1.310  10.951 -0.7408  0.7853 -1.3638
13428TIP3    H261776   1.157   1.232  10.852 -0.8362 -1.0904  0.0027
13429TIP3   OH261777   5.568   1.918   4.330  0.2840 -0.0423  0.8433
13429TIP3    H161778   5.561   1.846   4.266 -0.1756  0.9128 -0.1958
13429TIP3    H261779   5.644   1.969   4.300 -0.0078  0.4804  0.9923
13430TIP3   OH261780   2.956   2.369   6.041 -0.1894  0.0279  0.2756
13430TIP3    H161781   2.989   2.318   6.115  1.6453 -1.1244 -1.2523
13430TIP3    H261782   2.905   2.306   5.990  3.2774 -0.7933 -2.3802
13431TIP3   OH261783   2.470   2.266  12.312  0.6425  0.5819  0.4249
13431TIP3    H161784   2.564   2.279  12.299  0.7458 -0.3029  0.2498
13431TIP3    H261785   2.461   2.172  12.328 -0.3346  0.4965 -0.5996
13432TIP3   OH261786   1.251   2.314  14.665  0.2543  0.2273 -0.1952
13432TIP3    H161787   1.262   2.238  14.723 -1.4548  0.3332  0.2948
13432TIP3    H261788   1.172   2.357  14.697  0.2645  1.2662 -1.5349
13433TIP3   OH261789   4.594   3.083   2.883 -0.1724  0.0959  0.7650
13433TIP3    H161790   4.589   2.998   2.839 -1.3815 -0.7859  2.5898
13433TIP3    H261791   4.540   3.140   2.829  0.7588 -0.2290 -0.5550
13434TIP3   OH261792   1.545   2.048   6.308  0.4152 -0.2300 -0.4753
13434TIP3    H161793   1.552   1.964   6.353 -2.4180  0.0705  0.6134
13434TIP3    H261794   1.471   2.037   6.248 -0.5885  1.7695  0.3565
13435TIP3   OH261795   6.685   0.500   5.635 -1.0218 -0.1847 -0.0528
13435TIP3    H161796   6.620   0.480   5.702 -2.0799 -0.8832 -1.2751
13435TIP3    H261797   6.740   0.422   5.629 -0.2150  0.3041  0.7895
13436TIP3   OH261798   3.749   5.297  13.808  0.2328 -0.4623 -0.2480
13436TIP3    H161799   3.674   5.286  13.865  0.0211  1.8503 -0.0365
13436TIP3    H261800   3.810   5.351  13.857  0.5505  0.5767 -1.7394
13437TIP3   OH261801   6.582   6.399   3.535  0.4794 -0.5212  0.4291
13437TIP3    H161802   6.657   6.348   3.505  1.2070  0.8580 -0.1626
13437TIP3    H261803   6.535   6.421   3.454  2.1677  2.7802  0.2659
13438TIP3   OH261804   6.024   1.965   2.111 -0.3353 -0.2594 -0.6708
13438TIP3    H161805   6.059   2.050   2.138  0.0001 -0.3964 -0.6636
13438TIP3    H261806   5.994   1.924   2.192 -0.2795 -0.2455 -0.6434
13439TIP3   OH261807   2.907   1.395  11.323 -0.2684 -0.1929  0.4506
13439TIP3    H161808   2.904   1.342  11.243  3.1845  2.3759 -1.4945
13439TIP3    H261809   2.855   1.473  11.302  1.9016  1.1889  0.1401
13440TIP3   OH261810   2.355   6.016   1.382 -0.3473  0.1898 -0.0292
13440TIP3    H161811   2.311   6.057   1.307  0.6158 -0.2119 -0.8166
13440TIP3    H261812   2.349   5.922   1.366 -0.5116  0.0868  0.6129
13441TIP3   OH261813   3.206   4.319  13.918  0.0444 -0.0222  0.1146
13441TIP3    H161814   3.116   4.313  13.886  0.8445  0.8686 -2.3756
13441TIP3    H261815   3.224   4.232  13.955 -0.7718 -1.2429 -2.2696
13442TIP3   OH261816   4.641   5.794   4.342 -0.5007  0.0181  0.3471
13442TIP3    H161817   4.731   5.810   4.371 -0.7691  0.9712  0.6737
13442TIP3    H261818   4.644   5.709   4.299  0.8786  0.7046 -0.9640
13443TIP3   OH261819   3.626   6.084  13.122 -0.4007  0.4630  0.2830
13443TIP3    H161820   3.634   5.989  13.113 -0.7102  0.2105  2.4382
13443TIP3    H261821   3.707   6.111  13.165 -0.1993  1.2219 -0.5590
13444TIP3   OH261822   0.805   1.530   4.643 -0.7151  0.1223  0.3650
13444TIP3    H161823   0.742   1.588   4.685 -0.7062  1.0997 -0.9420
13444TIP3    H261824   0.852   1.488   4.715  0.2227  2.7636  1.3193
13445TIP3   OH261825   6.354   5.473   2.779  0.0556 -0.5056 -0.0064
13445TIP3    H161826   6.281   5.443   2.833 -0.5602  0.6730 -0.1610
13445TIP3    H261827   6.355   5.568   2.791  0.4743 -0.3264 -1.3590
13446TIP3   OH261828   5.647   2.714   0.362 -0.6817  0.0463 -0.2216
13446TIP3    H161829   5.557   2.739   0.343 -0.3589 -0.1155 -2.0410
13446TIP3    H261830   5.640   2.648   0.431 -2.0241 -0.6617 -1.0136
13447TIP3   OH261831   0.147   0.755   3.277  0.4082  0.5905 -0.0675
13447TIP3    H161832   0.193   0.800   3.206 -2.8462  1.9722 -1.3861
13447TIP3    H261833   0.168   0.663   3.264  2.3093  1.1236 -0.9735
13448TIP3   OH261834   3.848   3.366   4.042 -0.4170 -0.5975  0.4401
13448TIP3    H161835   3.913   3.431   4.014 -1.2084 -0.2452 -0.6117
13448TIP3    H261836   3.833   3.385   4.134 -2.2986  2.1816 -0.3723
13449TIP3   OH261837   4.531   0.403   5.226 -0.2122 -0.4511  0.6247
13449TIP3    H161838   4.513   0.462   5.153  0.2546 -0.6015  0.3820
13449TIP3    H261839   4.627   0.398   5.229 -0.2189 -0.0402  1.5721
13450TIP3   OH261840   3.778   3.828  14.403 -0.0307 -0.2966  0.0438
13450TIP3    H161841   3.853   3.830  14.344 -0.2246  0.0717 -0.1917
13450TIP3    H261842   3.811   3.867  14.485  0.1987 -0.6810  0.1316
13451TIP3   OH261843   3.365   0.351   0.690  0.2246 -0.0040  0.0245
13451TIP3    H161844   3.434   0.369   0.754  0.9664  1.3519 -1.1333
13451TIP3    H261845   3.286   0.340   0.743  0.8799  0.8261  1.1975
13452TIP3   OH261846   2.906   4.670  13.700 -0.3212 -0.0704 -0.5092
13452TIP3    H161847   2.859   4.632  13.774  0.8409  0.2758  0.4126
13452TIP3    H261848   2.977   4.720  13.739  0.6835 -0.3968 -1.8765
13453TIP3   OH261849   0.960   2.526  12.782 -0.0575  0.3506  0.4073
13453TIP3    H161850   1.006   2.453  12.824 -1.6848 -1.6829 -1.2117
13453TIP3    H261851   0.869   2.514  12.808 -0.0525  3.0930  1.8468
13454TIP3   OH261852   3.233   0.517  16.419 -0.0698 -0.0080 -0.5276
13454TIP3    H161853   3.302   0.464  16.381  0.2654 -0.9157  1.2761
13454TIP3    H261854   3.279   0.588  16.464 -0.5072  1.7763 -2.8108
13455TIP3   OH261855   6.625   5.102   0.330 -0.4034  0.0146  0.0438
13455TIP3    H161856   6.674   5.145   0.399 -2.3758  1.7435  0.4183
13455TIP3    H261857   6.622   5.010   0.356 -0.7744  0.5709  2.0869
13456TIP3   OH261858   2.115   6.073  11.259 -0.3070  0.1670 -0.9482
13456TIP3    H161859   2.134   6.166  11.277 -0.9871 -0.1091  1.3217
13456TIP3    H261860   2.037   6.075  11.204  0.2524  0.9517 -1.7411
13457TIP3   OH261861   1.959   2.657   5.539  0.5949  0.3827  0.4147
13457TIP3    H161862   1.968   2.746   5.572  1.3596  0.3864  0.2021
13457TIP3    H261863   1.912   2.667   5.456 -0.9305  0.4126  1.2653
13458TIP3   OH261864   1.468   2.133  16.338  0.2168 -0.4536  0.0525
13458TIP3    H161865   1.523   2.055  16.346  1.1858  0.1228 -0.8113
13458TIP3    H261866   1.518   2.191  16.280 -0.8482  0.4898  0.0698
13459TIP3   OH261867   0.443   0.531   5.865  0.0344  0.1302  0.7326
13459TIP3    H161868   0.495   0.496   5.793 -0.8729 -3.1630  1.5910
13459TIP3    H261869   0.434   0.624   5.845  3.3911  0.1265 -1.1537
13460TIP3   OH261870   3.003   0.548  17.165  0.1738 -0.2084  0.3875
13460TIP3    H161871   3.061   0.474  17.182  1.4244  0.8652  0.8541
13460TIP3    H261872   3.040   0.620  17.217 -1.0227  0.7498 -0.0602
13461TIP3   OH261873   5.033   6.309   2.725 -0.0228  0.0700 -0.4142
13461TIP3    H161874   4.989   6.244   2.780 -1.3004  0.1291 -1.3438
13461TIP3    H261875   5.102   6.260   2.681  1.5334  0.1866  1.8201
13462TIP3   OH261876   5.820   1.784   2.679  0.3728  0.0348 -0.4683
13462TIP3    H161877   5.831   1.792   2.774 -1.3066  1.4103 -0.3624
13462TIP3    H261878   5.730   1.812   2.663 -0.2656 -2.8028 -2.1719
13463TIP3   OH261879   0.984   5.233   1.832 -0.1295 -0.4298  0.4931
13463TIP3    H161880   0.943   5.153   1.798 -0.2569  0.3653 -1.2876
13463TIP3    H261881   0.913   5.280   1.874 -0.2617 -0.7843  0.6704
13464TIP3   OH261882   3.141   4.888   5.766  0.7283 -0.3662 -0.3808
13464TIP3    H161883   3.191   4.810   5.741  0.8620 -0.4541  0.1452
13464TIP3    H261884   3.111   4.925   5.683  1.4671 -0.4492 -0.6891
13465TIP3   OH261885   6.080   1.360  17.130 -0.2842  0.0628  0.4313
13465TIP3    H161886   6.039   1.432  17.178  1.8121  1.7911 -0.2893
13465TIP3    H261887   6.049   1.370  17.040 -0.4331 -0.2782  0.4451
13466TIP3   OH261888   2.467   4.083   1.668  0.6990  0.5594  0.4378
13466TIP3    H161889   2.503   4.002   1.630  2.2400  2.0009 -1.2804
13466TIP3    H261890   2.372   4.074   1.658  0.9806  0.1028 -2.2281
13467TIP3   OH261891   3.277   3.359   1.387 -0.0368  0.2004 -0.8621
13467TIP3    H161892   3.242   3.281   1.429 -0.4291  0.6407 -0.3630
13467TIP3    H261893   3.325   3.326   1.311 -1.5186 -0.4139 -1.5374
13468TIP3   OH261894   1.803   0.618  13.831  0.2124 -0.0020  0.0358
13468TIP3    H161895   1.729   0.582  13.782  0.1256 -0.2674  0.3584
13468TIP3    H261896   1.871   0.551  13.825  0.3837  0.1896 -0.1587
13469TIP3   OH261897   5.377   3.363  11.708  0.7084 -0.5653  0.0742
13469TIP3    H161898   5.304   3.363  11.770  0.8841  1.6690  0.3332
13469TIP3    H261899   5.337   3.356  11.622  0.2272 -0.0261  0.2541
13470TIP3   OH261900   0.394   1.047   3.251  0.0802 -0.0561  0.2895
13470TIP3    H161901   0.466   1.063   3.189  0.4187  0.9673  0.9317
13470TIP3    H261902   0.338   1.125   3.242  0.1162  0.0821  1.2464
13471TIP3   OH261903   0.119   5.190  15.560 -0.1653  0.0522  0.4518
13471TIP3    H161904   0.183   5.209  15.628 -1.2302  1.4738  1.1032
13471TIP3    H261905   0.053   5.136  15.604 -0.3075  0.0826  0.2780
13472TIP3   OH261906   1.443   4.389  17.241  0.9049  0.0886  0.0562
13472TIP3    H161907   1.371   4.445  17.272  1.0016 -0.6422  1.6577
13472TIP3    H261908   1.405   4.340  17.168 -0.4581 -0.8240  1.3516
13473TIP3   OH261909   0.893   6.230  15.581  0.5631  0.1461 -0.2671
13473TIP3    H161910   0.910   6.311  15.531  1.7984  0.7059  1.0251
13473TIP3    H261911   0.903   6.256  15.673  0.3525 -1.3362  0.1884
13474TIP3   OH261912   0.180   0.526  14.353 -0.0710  0.1499 -0.5651
13474TIP3    H161913   0.086   0.544  14.345  0.0311  1.5226  1.0868
13474TIP3    H261914   0.185   0.438  14.390 -0.6718 -0.4319 -1.8212
13475TIP3   OH261915   2.955   0.614   2.153  0.2644  0.2721 -0.0823
13475TIP3    H161916   3.043   0.650   2.145  0.7192 -0.8854 -0.4450
13475TIP3    H261917   2.969   0.524   2.184 -0.8605  0.5829  1.4018
13476TIP3   OH261918   2.502   1.506  12.779  0.0454 -0.7476 -0.1578
13476TIP3    H161919   2.444   1.557  12.723  0.1329  0.1216  0.5488
13476TIP3    H261920   2.443   1.455  12.835 -0.0459  0.3199  0.7297
13477TIP3   OH261921   2.653   0.818  13.420 -0.1874  0.3153 -1.1614
13477TIP3    H161922   2.613   0.739  13.384 -0.3470 -0.6335  1.0550
13477TIP3    H261923   2.745   0.813  13.391  0.1087 -1.3372  0.0209
13478TIP3   OH261924   1.710   0.973   3.938 -0.2343  0.5375  0.1497
13478TIP3    H161925   1.652   1.048   3.932  0.7029  1.3379  0.8673
13478TIP3    H261926   1.797   1.011   3.947  0.2250 -0.6283  0.7410
13479TIP3   OH261927   5.586   4.272  12.956  0.4386 -0.3351 -0.2808
13479TIP3    H161928   5.496   4.280  12.925  0.9039 -1.1430 -1.9159
13479TIP3    H261929   5.601   4.177  12.960  1.2814 -0.1987 -0.2147
13480TIP3   OH261930   0.761   0.965  14.385  0.9180 -0.0203 -0.2596
13480TIP3    H161931   0.818   0.920  14.447  1.3290  0.0236 -0.6024
13480TIP3    H261932   0.769   0.915  14.304 -0.1843 -0.5035 -0.0757
13481TIP3   OH261933   5.136   4.777   5.936 -0.2649 -0.0459 -0.1887
13481TIP3    H161934   5.119   4.871   5.937  2.4807  0.5198  1.7762
13481TIP3    H261935   5.097   4.745   6.017 -0.2524 -0.3840 -0.3161
13482TIP3   OH261936   6.443   1.523   4.868  0.0501 -0.8416 -0.4251
13482TIP3    H161937   6.364   1.471   4.886  1.0196 -2.0601  0.5044
13482TIP3    H261938   6.425   1.608   4.907 -1.1734 -0.7981 -1.0585
13483TIP3   OH261939   3.171   5.397   4.199 -0.4147 -0.5997 -0.5784
13483TIP3    H161940   3.124   5.474   4.165 -1.8731 -0.4969  1.5086
13483TIP3    H261941   3.103   5.346   4.243  1.1434 -1.3116  1.0720
13484TIP3   OH261942   4.895   5.551  13.305  0.3970 -0.1342 -0.2295
13484TIP3    H161943   4.917   5.465  13.270  0.1501  0.3529 -1.6101
13484TIP3    H261944   4.830   5.534  13.374 -0.5811 -0.9572 -1.3451
13485TIP3   OH261945   4.809   1.204  14.327  0.4272  0.3160 -0.1951
13485TIP3    H161946   4.867   1.258  14.380 -0.5230  0.0245  1.1636
13485TIP3    H261947   4.823   1.235  14.237 -1.2084  3.9062  0.6976
13486TIP3   OH261948   4.631   0.402  17.116 -0.3281  0.4395 -0.6905
13486TIP3    H161949   4.605   0.313  17.139 -0.7793  1.2880  2.3244
13486TIP3    H261950   4.548   0.450  17.110  0.0477  1.3751  1.1021
13487TIP3   OH261951   0.839   0.343   1.580  0.0159 -0.2681  0.2357
13487TIP3    H161952   0.873   0.431   1.600  2.1895 -1.2248  0.8842
13487TIP3    H261953   0.834   0.299   1.664 -0.8121 -0.8778 -0.1259
13488TIP3   OH261954   1.839   1.073   1.281 -0.1298 -0.0812 -0.3374
13488TIP3    H161955   1.744   1.078   1.271 -0.5596 -2.6833  1.9006
13488TIP3    H261956   1.869   1.027   1.203 -0.8250 -0.2645 -0.5048
13489TIP3   OH261957   4.673   2.899  15.996 -0.0177 -0.6123 -0.1441
13489TIP3    H161958   4.661   2.993  15.982  3.0781  0.1344  1.6534
13489TIP3    H261959   4.768   2.889  16.008 -0.2645 -4.0226 -0.6426
13490TIP3   OH261960   1.144   4.157  14.516  0.3021  0.3059 -0.3760
13490TIP3    H161961   1.131   4.068  14.548 -1.2384  0.2551 -1.0588
13490TIP3    H261962   1.182   4.205  14.590  0.2034 -0.6785  0.3137
13491TIP3   OH261963   0.192   2.376  15.828  0.5857 -0.1855 -0.4018
13491TIP3    H161964   0.099   2.353  15.825  0.4818  0.1980 -0.0685
13491TIP3    H261965   0.198   2.444  15.895  1.0225  0.1861 -0.8162
13492TIP3   OH261966   3.868   3.368   3.094 -0.2125  0.4638  0.3363
13492TIP3    H161967   3.870   3.345   3.187 -1.9717 -0.0353  0.2677
13492TIP3    H261968   3.894   3.288   3.049 -0.5200  0.3558  0.3502
13493TIP3   OH261969   6.602   0.494   0.385 -0.2460  0.4644  0.7397
13493TIP3    H161970   6.523   0.524   0.430 -1.8015 -1.9859 -0.2532
13493TIP3    H261971   6.600   0.399   0.394  1.8142  0.2622 -0.5882
13494TIP3   OH261972   6.701   2.890   2.231 -0.6792 -0.6269 -0.1424
13494TIP3    H161973   6.780   2.836   2.236 -0.8718 -0.7034  2.2965
13494TIP3    H261974   6.655   2.857   2.154  0.9826 -1.4828 -0.8021
13495TIP3   OH261975   4.947   0.250  13.011 -0.0010  0.2714 -0.3288
13495TIP3    H161976   4.876   0.298  12.968  0.9310  0.3371 -1.8155
13495TIP3    H261977   4.926   0.158  12.996 -1.1495  0.2026  1.4986
13496TIP3   OH261978   2.097   0.028   1.445  0.4659  0.0602  0.4409
13496TIP3    H161979   2.185   0.014   1.412  1.3767 -0.3661  2.9776
13496TIP3    H261980   2.098   0.116   1.481 -0.9244  1.0531 -1.8369
13497TIP3   OH261981   6.597   3.827  12.503  0.6651 -0.3466 -0.2346
13497TIP3    H161982   6.650   3.765  12.453  0.5515  0.0733 -0.8700
13497TIP3    H261983   6.544   3.771  12.560  0.0645 -0.8630 -1.2889
13498TIP3   OH261984   0.259   2.302   4.584  0.3275  0.2183  0.0367
13498TIP3    H161985   0.239   2.209   4.590  0.9447  0.1599  1.2967
13498TIP3    H261986   0.348   2.310   4.619 -0.4221  1.5305  1.6739
13499TIP3   OH261987   1.168   3.978  15.881 -0.5200  0.6180  0.1632
13499TIP3    H161988   1.130   4.046  15.936 -0.9196 -0.1756  0.8745
13499TIP3    H261989   1.103   3.907  15.882 -0.6611  0.6846 -1.5321
13500TIP3   OH261990   4.141   2.289  14.427 -0.1604  0.4888  0.6402
13500TIP3    H161991   4.173   2.283  14.337 -3.1042 -0.4809 -0.4129
13500TIP3    H261992   4.046   2.297  14.418 -0.5133  0.3778  3.6809
13501TIP3   OH261993   2.028   2.687   6.883 -0.1167 -0.8118  0.3219
13501TIP3    H161994   1.965   2.755   6.858 -0.1782 -1.6750 -2.0064
13501TIP3    H261995   2.110   2.713   6.842  0.5272 -0.7891  1.6058
13502TIP3   OH261996   4.854   1.844   1.380  0.1340 -0.6682 -0.1261
13502TIP3    H161997   4.920   1.813   1.318  2.4074 -0.3238  2.0444
13502TIP3    H261998   4.806   1.912   1.332  1.4459 -0.8155 -1.6934
13503TIP3   OH261999   6.319   0.527  11.491  0.4383  0.3077 -0.1192
13503TIP3    H162000   6.394   0.582  11.466  1.2446 -0.7173  0.0312
13503TIP3    H262001   6.315   0.535  11.586 -0.1700  1.0243 -0.1962
13504TIP3   OH262002   0.685   3.325  14.661  0.2263 -0.5912  0.7365
13504TIP3    H162003   0.679   3.419  14.649  0.9023 -0.2104  3.2184
13504TIP3    H262004   0.771   3.302  14.626  1.4159  0.2342  2.9993
13505TIP3   OH262005   0.684   2.654  13.489  0.1800 -0.0376 -0.1302
13505TIP3    H162006   0.634   2.726  13.528 -1.1047 -0.7923 -0.3517
13505TIP3    H262007   0.732   2.694  13.417 -1.5840  0.3554 -1.1106
13506TIP3   OH262008   0.486   3.966  14.051  0.4262 -0.4130 -0.5130
13506TIP3    H162009   0.549   3.899  14.025  0.5486 -0.6956  0.5070
13506TIP3    H262010   0.538   4.032  14.096 -0.0745 -0.8867  0.7785
13507TIP3   OH262011   5.458   4.722  14.757  0.1501  0.4326  0.2036
13507TIP3    H162012   5.447   4.817  14.761 -0.0550  0.4605 -0.9595
13507TIP3    H262013   5.435   4.692  14.845 -0.8549  1.3588  0.2677
13508TIP3   OH262014   1.800   3.105   2.445  0.0913  0.0986  0.1594
13508TIP3    H162015   1.787   3.055   2.525  0.9878  0.7279  0.7164
13508TIP3    H262016   1.756   3.055   2.377 -0.4019 -0.6048  0.9914
13509TIP3   OH262017   0.217   4.294  11.161 -0.5446 -0.2441 -0.0234
13509TIP3    H162018   0.232   4.318  11.252  0.8675 -0.2532 -0.2435
13509TIP3    H262019   0.129   4.326  11.142 -0.8320 -0.2120  1.3292
13510TIP3   OH262020   6.782   4.811  15.352 -0.4503  1.1464 -0.5449
13510TIP3    H162021   6.836   4.860  15.290  2.0464 -0.3212  0.3815
13510TIP3    H262022   6.807   4.845  15.437 -1.5371  0.9550 -0.1481
13511TIP3   OH262023   5.322   0.915   1.523  0.0377 -0.1503 -0.3063
13511TIP3    H162024   5.337   1.000   1.564  2.9492  0.3798 -2.3111
13511TIP3    H262025   5.372   0.853   1.576  0.2366 -0.1502 -0.4916
13512TIP3   OH262026   0.890   1.487   6.814  0.4622  0.0143 -0.3288
13512TIP3    H162027   0.975   1.469   6.773  0.6125  0.1677 -0.0824
13512TIP3    H262028   0.828   1.487   6.741  0.9923  2.1271 -0.8233
13513TIP3   OH262029   0.725   4.414   4.957 -0.1473  0.2117 -0.1820
13513TIP3    H162030   0.797   4.477   4.950 -1.8828  2.8909  4.2902
13513TIP3    H262031   0.756   4.348   5.019  0.0027 -1.0191 -1.5286
13514TIP3   OH262032   1.785   3.728   5.395  0.6778  0.0632  0.0843
13514TIP3    H162033   1.859   3.716   5.454  1.4078  0.0300 -0.8318
13514TIP3    H262034   1.819   3.705   5.308 -0.3738  0.1385 -0.3569
13515TIP3   OH262035   0.937   5.955   1.351  0.2191  0.4364 -0.6000
13515TIP3    H162036   0.938   6.032   1.295 -0.2130  0.7506 -0.1797
13515TIP3    H262037   0.873   5.897   1.311  1.9110 -0.5275 -1.9971
13516TIP3   OH262038   2.400   6.016   2.405  0.0514 -0.0595 -0.1945
13516TIP3    H162039   2.385   6.103   2.366 -3.3143  0.0534  1.1876
13516TIP3    H262040   2.356   5.956   2.345 -0.8869 -0.3955  0.8226
13517TIP3   OH262041   1.323   3.712  14.868 -0.2027  0.2635 -0.1927
13517TIP3    H162042   1.328   3.719  14.963 -1.1591  1.8029 -0.2418
13517TIP3    H262043   1.254   3.648  14.852  1.7026 -1.9552  0.1478
13518TIP3   OH262044   1.929   4.087  15.586 -0.3157 -0.6466  0.5175
13518TIP3    H162045   1.885   4.040  15.514 -1.0923  0.4346  0.2680
13518TIP3    H262046   2.012   4.042  15.597 -0.7005 -1.5674 -0.2702
13519TIP3   OH262047   0.906   4.848   3.472  0.7009 -0.3296  0.1052
13519TIP3    H162048   0.942   4.889   3.550 -0.0758 -1.0214  0.8221
13519TIP3    H262049   0.967   4.873   3.402  1.0742  0.7639  0.8138
13520TIP3   OH262050   1.874   6.607   0.301 -0.4073  0.3090  0.5286
13520TIP3    H162051   1.917   6.527   0.332  1.9666  1.4246  0.2271
13520TIP3    H262052   1.813   6.630   0.370 -0.0821 -0.9805  1.2619
13521TIP3   OH262053   4.520   5.349  14.594  0.3485 -0.5210  0.1211
13521TIP3    H162054   4.529   5.343  14.689 -0.9220  0.5461  0.3357
13521TIP3    H262055   4.481   5.265  14.568  2.2298 -1.4757  0.3110
13522TIP3   OH262056   5.099   2.943  14.352  0.3419  0.1665  0.0830
13522TIP3    H162057   5.106   2.858  14.309 -2.1604 -1.0289  1.9272
13522TIP3    H262058   5.186   2.982  14.342  0.9455 -1.7161 -2.5603
13523TIP3   OH262059   2.041   0.901   2.430  0.0955 -0.4336 -0.0526
13523TIP3    H162060   2.055   0.993   2.408  0.5345 -0.6590 -0.7201
13523TIP3    H262061   2.075   0.892   2.519  1.4327 -0.2825 -0.5370
13524TIP3   OH262062   5.923   3.979   5.540  0.1648  0.0262  0.3585
13524TIP3    H162063   5.845   4.031   5.522  0.5776  1.1345  1.7129
13524TIP3    H262064   5.957   3.956   5.453 -1.4729 -0.2023 -0.2414
13525TIP3   OH262065   0.399   2.393   1.309 -0.2001 -0.1745  0.1698
13525TIP3    H162066   0.368   2.377   1.398  1.0260 -0.5798  0.5356
13525TIP3    H262067   0.321   2.387   1.255 -0.7551 -1.2185  1.0697
13526TIP3   OH262068   6.533   0.293   4.378 -0.4149 -0.0385 -0.4449
13526TIP3    H162069   6.441   0.310   4.357 -0.5862  0.2046  0.4646
13526TIP3    H262070   6.581   0.368   4.343 -0.5943 -0.0468 -0.7045
13527TIP3   OH262071   3.798   1.624   0.093 -0.2113 -0.1778 -0.1797
13527TIP3    H162072   3.861   1.588   0.031  0.5561 -1.6446  1.4087
13527TIP3    H262073   3.722   1.566   0.087 -0.4690  0.1796 -0.3676
13528TIP3   OH262074   0.445   3.456  12.870  0.1024  0.4595 -0.7155
13528TIP3    H162075   0.370   3.396  12.864  0.2008  0.0797  1.4778
13528TIP3    H262076   0.411   3.540  12.838 -1.0330  0.0778 -0.5326
13529TIP3   OH262077   0.915   1.352   3.615 -0.7323  0.4628 -0.2572
13529TIP3    H162078   0.938   1.405   3.691  1.5790 -0.6976 -0.1059
13529TIP3    H262079   0.890   1.267   3.651  0.7384 -0.2122 -0.7862
13530TIP3   OH262080   1.758   0.307  16.104 -0.3832 -0.3376  0.1693
13530TIP3    H162081   1.669   0.296  16.138 -1.4005  3.9129 -0.8554
13530TIP3    H262082   1.811   0.325  16.181 -0.7170 -1.1839  0.6030
13531TIP3   OH262083   0.582   1.270  14.168  0.2343  0.2485  0.2071
13531TIP3    H162084   0.597   1.350  14.116 -0.4849  0.9218  1.0063
13531TIP3    H262085   0.541   1.302  14.248  0.6764 -0.8598  0.8807
13532TIP3   OH262086   3.477   3.645   2.626  0.1928  0.5884  0.3870
13532TIP3    H162087   3.571   3.633   2.610  0.0303  1.0267 -1.0083
13532TIP3    H262088   3.461   3.600   2.708  1.2241 -1.3309 -0.4183
13533TIP3   OH262089   0.343   1.270   2.193 -0.1403 -0.4284 -0.2721
13533TIP3    H162090   0.291   1.203   2.236 -2.0623  0.9259 -0.4631
13533TIP3    H262091   0.394   1.310   2.263 -1.3471  0.0401  0.3468
13534TIP3   OH262092   4.425   0.300   4.771 -0.2453  0.1337 -0.2479
13534TIP3    H162093   4.426   0.272   4.679  1.5764  0.1517 -0.2493
13534TIP3    H262094   4.517   0.311   4.794 -0.7075  0.6769  1.4282
13535TIP3   OH262095   2.452   1.389   3.518 -0.0941 -0.4544 -0.0192
13535TIP3    H162096   2.396   1.396   3.596  1.4610  0.1372  1.0762
13535TIP3    H262097   2.540   1.408   3.550  0.7370 -1.2608 -1.7333
13536TIP3   OH262098   5.427   6.708  14.548 -0.5002  0.1300  0.5258
13536TIP3    H162099   5.408   6.797  14.519 -3.2095  0.0810  2.0300
13536TIP3    H262100   5.401   6.706  14.640  1.2041 -1.7386  1.0178
13537TIP3   OH262101   1.772   2.393  14.292 -0.0695 -0.2743 -0.2913
13537TIP3    H162102   1.698   2.441  14.329  0.2113 -0.6059  0.7079
13537TIP3    H262103   1.785   2.432  14.206 -0.6788  0.5504 -0.0114
13538TIP3   OH262104   4.035   1.555   5.814 -0.0941  0.3537  0.2628
13538TIP3    H162105   4.060   1.537   5.905  2.3929 -2.1251 -0.8211
13538TIP3    H262106   3.970   1.489   5.794  1.6079 -1.0731 -0.6561
13539TIP3   OH262107   1.208   1.468  15.861  0.1029 -0.3660  0.3730
13539TIP3    H162108   1.217   1.372  15.864  0.4964 -0.3203  0.9116
13539TIP3    H262109   1.129   1.486  15.911 -1.5753 -0.5926 -2.1281
13540TIP3   OH262110   2.575   4.805   1.149 -0.1015  1.2852 -0.5019
13540TIP3    H162111   2.562   4.875   1.212 -2.5155  0.7028 -0.3294
13540TIP3    H262112   2.548   4.842   1.065 -3.3950 -0.0201 -0.0906
13541TIP3   OH262113   0.991   5.871  16.688  0.4210 -0.0408 -0.6982
13541TIP3    H162114   1.057   5.926  16.730  0.7961 -0.7802 -0.2987
13541TIP3    H262115   1.009   5.783  16.721  0.0368 -0.4590 -1.5794
13542TIP3   OH262116   3.780   0.002   2.585 -0.3945 -0.0510  0.3885
13542TIP3    H162117   3.743   0.057   2.516  2.0536  0.4883 -0.5594
13542TIP3    H262118   3.843   0.059   2.630 -0.2093 -1.1125  1.5046
13543TIP3   OH262119   1.161   4.353  13.472 -0.3900 -0.0451 -0.5904
13543TIP3    H162120   1.074   4.320  13.497 -0.0422 -1.2062 -0.8957
13543TIP3    H262121   1.146   4.398  13.389 -0.5753 -0.8574 -1.0004
13544TIP3   OH262122   1.610   1.247  11.937 -0.0404  0.2955  0.7917
13544TIP3    H162123   1.643   1.164  11.972  0.5915  0.7597  1.3005
13544TIP3    H262124   1.581   1.225  11.848 -1.0665 -0.7498  1.3650
13545TIP3   OH262125   4.398   3.291  12.739  0.1413 -0.1221  0.3485
13545TIP3    H162126   4.423   3.308  12.830 -2.7576 -2.3962  1.6202
13545TIP3    H262127   4.303   3.295  12.739  0.0314 -1.8669 -2.2509
13546TIP3   OH262128   1.119   3.101  17.122  0.0731 -0.0418  0.2452
13546TIP3    H162129   1.162   3.026  17.164 -0.7815 -1.9644 -2.2346
13546TIP3    H262130   1.093   3.157  17.196  0.3981 -2.3443  2.1918
13547TIP3   OH262131   6.077   3.843   4.433 -0.0675  0.2511  0.8743
13547TIP3    H162132   6.009   3.825   4.498  1.1260 -1.2185  1.7262
13547TIP3    H262133   6.159   3.817   4.475  0.5924 -2.0057 -1.6923
13548TIP3   OH262134   3.253   6.653   4.321 -0.1683 -0.5900  0.1318
13548TIP3    H162135   3.192   6.666   4.248  0.2544  2.5246  0.2780
13548TIP3    H262136   3.254   6.737   4.367  2.0942 -1.4726  1.7910
13549TIP3   OH262137   4.040   4.327   3.204  0.1332  0.5295 -0.1535
13549TIP3    H162138   3.950   4.335   3.171  0.3494  0.4274 -0.7682
13549TIP3    H262139   4.065   4.416   3.227  0.3550  0.7587 -1.2506
13550TIP3   OH262140   5.727   6.727  16.936 -0.4061  0.4572 -0.0691
13550TIP3    H162141   5.766   6.814  16.948 -1.8476  1.0330  0.5808
13550TIP3    H262142   5.658   6.723  17.002 -1.1323 -0.7227 -0.8816
13551TIP3   OH262143   1.809   3.576  12.409 -0.3811  0.6773 -0.4682
13551TIP3    H162144   1.839   3.548  12.495  0.8990 -0.4601 -1.2640
13551TIP3    H262145   1.743   3.512  12.384 -0.3952  0.7166 -0.5321
13552TIP3   OH262146   4.915   6.704  11.482 -0.5593  0.1132  0.5351
13552TIP3    H162147   4.871   6.773  11.432  0.3073 -0.2658 -0.7772
13552TIP3    H262148   5.006   6.706  11.451 -0.6430 -1.9380  0.0913
13553TIP3   OH262149   5.571   5.635  13.500  0.4942  0.4708  0.0522
13553TIP3    H162150   5.616   5.576  13.440 -1.3176  0.4625 -1.3405
13553TIP3    H262151   5.596   5.605  13.587  1.6115 -0.7353 -0.6692
13554TIP3   OH262152   3.215   4.028  11.403 -0.2368  0.5959 -0.0555
13554TIP3    H162153   3.232   4.054  11.494 -2.2331  1.5426  0.0671
13554TIP3    H262154   3.207   3.932  11.407 -2.3453  0.8029  1.1189
13555TIP3   OH262155   2.009   2.242   0.427  0.2052  0.2598 -0.2351
13555TIP3    H162156   2.072   2.177   0.457  0.2085  0.2892 -0.1779
13555TIP3    H262157   2.018   2.242   0.331  0.7869  0.7625 -0.1843
13556TIP3   OH262158   6.699   5.400  14.087  0.4158  0.0748  0.3733
13556TIP3    H162159   6.767   5.456  14.126 -0.6810  0.8000  1.3087
13556TIP3    H262160   6.617   5.441  14.114 -0.3888 -0.4134 -1.3038
13557TIP3   OH262161   4.518   6.499   1.926  0.3340  0.5535  0.6622
13557TIP3    H162162   4.448   6.434   1.915  0.4589  0.5722 -0.3152
13557TIP3    H262163   4.472   6.577   1.958 -0.1769  0.7056 -0.4070
13558TIP3   OH262164   5.536   0.969  10.385 -0.0358 -0.2881 -0.0583
13558TIP3    H162165   5.445   0.957  10.359 -0.3697 -1.8653  1.7467
13558TIP3    H262166   5.534   0.971  10.481  1.7056  0.7118 -0.0092
13559TIP3   OH262167   1.585   5.380  13.718 -0.0940  0.7848 -0.0710
13559TIP3    H162168   1.673   5.390  13.683  0.1670  1.0609  0.6439
13559TIP3    H262169   1.528   5.422  13.653  0.2659  0.3338 -0.6822
13560TIP3   OH262170   2.185   5.820   2.285  0.7616  0.3656 -0.4473
13560TIP3    H162171   2.191   5.807   2.380 -0.6977  1.5102 -0.1719
13560TIP3    H262172   2.106   5.771   2.259  1.3703 -0.2598 -1.1374
13561TIP3   OH262173   5.175   5.663   2.455 -0.2306 -0.4934 -0.2783
13561TIP3    H162174   5.134   5.679   2.370  0.3037  1.5205 -0.1730
13561TIP3    H262175   5.268   5.657   2.435 -0.3596 -3.0637 -0.2377
13562TIP3   OH262176   2.949   4.317  16.754 -0.1505 -0.2308  0.1881
13562TIP3    H162177   2.877   4.375  16.779 -0.9804 -0.6719 -1.0901
13562TIP3    H262178   2.918   4.275  16.674  1.8382  0.1106 -0.7887
13563TIP3   OH262179   1.047   1.792  14.295  0.0929  0.5320 -0.4229
13563TIP3    H162180   0.981   1.859  14.307 -1.0036 -0.5372 -0.3639
13563TIP3    H262181   1.101   1.796  14.374 -0.0755  1.2190 -0.3477
13564TIP3   OH262182   6.221   5.948  16.325  0.4331 -0.0169  0.0441
13564TIP3    H162183   6.177   5.923  16.407 -0.7340  0.2679 -0.4866
13564TIP3    H262184   6.305   5.903  16.329 -1.1531 -3.1586 -0.3905
13565TIP3   OH262185   2.873   1.246  11.087  1.1197 -0.2939 -0.1769
13565TIP3    H162186   2.801   1.298  11.050  1.7836  0.9653  0.2586
13565TIP3    H262187   2.846   1.155  11.076 -1.7527  0.1693  2.3007
13566TIP3   OH262188   2.458   5.959  12.735  0.1193 -0.3012  0.0955
13566TIP3    H162189   2.421   5.990  12.652  0.8294 -0.2512 -0.2082
13566TIP3    H262190   2.392   5.983  12.801 -0.2805 -0.0079 -0.4041
13567TIP3   OH262191   5.658   5.859   4.223  0.9063  0.3733  0.2086
13567TIP3    H162192   5.615   5.778   4.248 -0.8139  1.1220 -0.1975
13567TIP3    H262193   5.651   5.915   4.300  1.3831  0.4046  0.2293
13568TIP3   OH262194   6.631   2.220  14.926  0.4523  0.1932 -0.2798
13568TIP3    H162195   6.704   2.169  14.890  1.0620  0.1989  0.9030
13568TIP3    H262196   6.578   2.155  14.973  0.5398  0.4414  0.1641
13569TIP3   OH262197   6.113   1.010  11.914  0.1570 -0.2189 -0.7183
13569TIP3    H162198   6.032   0.991  11.866 -0.5075  1.0739 -0.1583
13569TIP3    H262199   6.121   0.940  11.978  0.5463 -1.4400 -2.0736
13570TIP3   OH262200   1.587   4.145  17.187 -0.7449  0.7734 -0.3041
13570TIP3    H162201   1.595   4.240  17.200 -1.1610  0.8972 -0.9189
13570TIP3    H262202   1.496   4.133  17.158 -0.7579  0.1633  0.0000
13571TIP3   OH262203   4.057   3.064   0.341 -0.2408 -0.0267 -0.3188
13571TIP3    H162204   4.011   3.001   0.396 -0.7898  0.3407 -0.3538
13571TIP3    H262205   4.133   3.091   0.392 -0.3893 -0.1887 -0.0139
13572TIP3   OH262206   2.600   3.617  12.934  0.5096 -0.0526  0.3081
13572TIP3    H162207   2.628   3.611  12.842  0.5694  1.0496  0.2516
13572TIP3    H262208   2.557   3.702  12.940  2.9013  1.0710  1.9536
13573TIP3   OH262209   4.947   1.619   0.379  0.3202 -0.2964 -0.2137
13573TIP3    H162210   4.930   1.699   0.429 -0.1677 -0.3888 -0.2287
13573TIP3    H262211   5.032   1.633   0.339  0.5005 -0.0246  0.2625
13574TIP3   OH262212   3.235   0.313   2.679  0.2891 -0.7157  0.4512
13574TIP3    H162213   3.244   0.221   2.657  2.5411  0.5111 -4.3439
13574TIP3    H262214   3.154   0.340   2.637  0.2310 -0.2488  0.8597
13575TIP3   OH262215   1.921   1.564   0.513 -0.2044  0.6961  0.4554
13575TIP3    H162216   1.939   1.657   0.529 -1.5667  0.9543  0.6131
13575TIP3    H262217   1.828   1.554   0.535 -0.1216 -0.6610  0.2306
13576TIP3   OH262218   5.962   3.345  10.786  0.0144 -0.2229 -0.7913
13576TIP3    H162219   6.012   3.277  10.740 -0.2157 -0.2462 -1.0114
13576TIP3    H262220   5.883   3.300  10.816  1.1802 -0.7695  1.6000
13577TIP3   OH262221   3.568   1.621  16.683  0.3676  0.2132 -0.0818
13577TIP3    H162222   3.564   1.716  16.685  0.1305  0.2131 -0.4890
13577TIP3    H262223   3.503   1.592  16.747 -0.3930  0.3130 -0.7950
13578TIP3   OH262224   2.245   1.654  16.844  0.2879 -0.4677  1.1295
13578TIP3    H162225   2.172   1.715  16.855  1.4840  1.4183 -0.9315
13578TIP3    H262226   2.321   1.702  16.876  1.3330 -0.6171 -1.0584
13579TIP3   OH262227   3.244   5.522  15.766  0.2963  0.3624 -0.3838
13579TIP3    H162228   3.247   5.461  15.840  1.3261  0.4357 -0.3720
13579TIP3    H262229   3.304   5.485  15.702  0.5748  1.1295 -0.5650
13580TIP3   OH262230   1.050   3.432   2.226 -0.4173 -0.5009 -0.2305
13580TIP3    H162231   1.040   3.343   2.194  0.2298 -1.1538  1.3662
13580TIP3    H262232   0.961   3.467   2.230 -0.6408 -0.9453 -1.1630
13581TIP3   OH262233   5.089   6.475  16.500 -0.4184  0.2235 -0.5236
13581TIP3    H162234   5.077   6.428  16.583  0.0776  1.0335  0.0204
13581TIP3    H262235   5.048   6.561  16.515  1.3742  1.0921 -0.4200
13582TIP3   OH262236   5.684   6.429   0.765  0.0818 -0.4387 -0.2287
13582TIP3    H162237   5.769   6.443   0.722 -0.0774 -0.5178 -0.5680
13582TIP3    H262238   5.690   6.341   0.802  0.0008 -0.6048 -0.6027
13583TIP3   OH262239   5.035   6.554   2.312  0.2758  0.1866 -0.2338
13583TIP3    H162240   4.984   6.569   2.232 -1.3334  1.9257  1.0808
13583TIP3    H262241   4.985   6.490   2.362  1.3643 -1.0251 -0.6575
13584TIP3   OH262242   1.001   0.545  12.237  0.1275 -0.1653 -0.2246
13584TIP3    H162243   0.971   0.633  12.259  1.3469  0.0326  0.6833
13584TIP3    H262244   1.096   0.550  12.241  0.2567 -1.1354 -1.7356
13585TIP3   OH262245   4.024   0.404   4.912  0.6424 -0.3081  0.5866
13585TIP3    H162246   3.961   0.448   4.854 -0.1840 -0.6083  1.2401
13585TIP3    H262247   4.099   0.384   4.856  0.0664 -0.1286 -0.2567
13586TIP3   OH262248   0.185   2.554   3.336  0.1662 -0.2354 -0.1563
13586TIP3    H162249   0.128   2.630   3.349 -0.0826 -0.2698 -1.0217
13586TIP3    H262250   0.232   2.545   3.419  0.1234  0.8037 -0.0122
13587TIP3   OH262251   1.314   6.212  14.587 -0.2863 -0.4467  0.0898
13587TIP3    H162252   1.276   6.176  14.667 -2.7303  0.8992 -0.4218
13587TIP3    H262253   1.328   6.304  14.606 -1.9086  0.1254 -1.3723
13588TIP3   OH262254   4.658   5.976   5.087 -0.0498  0.4459  0.3563
13588TIP3    H162255   4.636   6.011   5.173  0.3521  1.2347  0.1403
13588TIP3    H262256   4.738   5.925   5.102 -1.0222 -1.0018  0.8058
13589TIP3   OH262257   6.160   4.380  13.475 -0.2800 -0.5997 -0.0433
13589TIP3    H162258   6.066   4.402  13.478 -0.1213  0.2282 -0.7656
13589TIP3    H262259   6.184   4.391  13.383  0.2403 -2.0952 -0.0979
13590TIP3   OH262260   4.593   4.034   5.159  0.0814  0.4413 -0.1150
13590TIP3    H162261   4.618   4.053   5.250 -0.7161 -2.2717  0.7010
13590TIP3    H262262   4.501   4.062   5.154 -0.4560 -1.1938  0.4787
13591TIP3   OH262263   6.814   0.553   4.384 -0.6819  0.2467  0.1352
13591TIP3    H162264   6.769   0.495   4.322 -2.2363  0.5530  0.9626
13591TIP3    H262265   6.745   0.608   4.420  0.4618  1.1631  0.9666
13592TIP3   OH262266   4.089   6.501   3.495 -0.3762 -0.1041 -0.6452
13592TIP3    H162267   4.120   6.428   3.442 -1.3008 -0.0796 -1.2329
13592TIP3    H262268   4.158   6.567   3.488  0.3479 -0.8214 -0.3143
13593TIP3   OH262269   5.385   4.821   5.423 -0.2706  1.2968 -0.4551
13593TIP3    H162270   5.473   4.791   5.402 -0.8727 -0.7633 -0.1359
13593TIP3    H262271   5.345   4.839   5.338 -0.2911  0.0008 -0.7358
13594TIP3   OH262272   6.194   3.307  16.443 -0.0061 -0.0981 -0.5185
13594TIP3    H162273   6.287   3.296  16.464  0.1520  2.1185  0.0943
13594TIP3    H262274   6.152   3.229  16.478  1.3953 -0.3116  0.7220
13595TIP3   OH262275   6.482   2.073   0.467 -0.0124  0.3354 -0.1089
13595TIP3    H162276   6.548   2.103   0.404 -0.0966 -0.2830 -0.5011
13595TIP3    H262277   6.408   2.131   0.454  0.6725  1.4152  0.7492
13596TIP3   OH262278   6.123   6.291   2.385  0.0657  0.1320  0.3356
13596TIP3    H162279   6.031   6.300   2.360 -0.5115 -0.1030  2.2706
13596TIP3    H262280   6.124   6.309   2.479  1.7024 -1.6286  0.6896
13597TIP3   OH262281   4.498   5.890  14.247 -0.2881  0.0768 -0.2191
13597TIP3    H162282   4.524   5.960  14.307 -2.1179  0.2487  0.3806
13597TIP3    H262283   4.484   5.814  14.304 -2.8158  0.4545 -0.3111
13598TIP3   OH262284   5.492   4.723  15.574 -0.2975 -0.6099 -0.3452
13598TIP3    H162285   5.398   4.741  15.576 -0.4082 -1.2697  0.4039
13598TIP3    H262286   5.499   4.634  15.541 -0.0292 -1.3064  1.5948
13599TIP3   OH262287   2.774   2.549  11.665  0.3919  0.0877 -0.0848
13599TIP3    H162288   2.715   2.590  11.728  0.3345  2.3592 -1.5445
13599TIP3    H262289   2.853   2.530  11.714 -0.7343 -0.9315  1.3631
13600TIP3   OH262290   4.834   4.856   2.237  0.2554 -0.0205 -0.2300
13600TIP3    H162291   4.897   4.784   2.246 -2.5776 -2.8081 -1.5029
13600TIP3    H262292   4.816   4.884   2.327  0.0510 -2.2068  0.4480
13601TIP3   OH262293   2.295   4.984  11.301  0.1117 -0.1374 -0.1228
13601TIP3    H162294   2.264   4.925  11.232 -1.9192  1.0194 -0.2412
13601TIP3    H262295   2.342   4.927  11.362 -0.4232 -1.6128 -1.0712
13602TIP3   OH262296   3.564   5.915   4.505  0.0669  0.3618 -0.2885
13602TIP3    H162297   3.617   5.857   4.449  0.1503  0.2905 -0.1354
13602TIP3    H262298   3.624   5.985   4.531  0.7523 -0.9309  1.7686
13603TIP3   OH262299   4.136   1.981  14.526 -0.0525  0.6937  0.0111
13603TIP3    H162300   4.070   2.041  14.560  1.1728  1.9295  0.2450
13603TIP3    H262301   4.133   1.994  14.431 -0.1450  0.7434  0.0196
13604TIP3   OH262302   4.136   2.944  12.643 -0.1111  0.2457 -0.0753
13604TIP3    H162303   4.101   2.902  12.564  1.1538 -0.9680 -0.0119
13604TIP3    H262304   4.094   3.030  12.646  0.2034  0.5004 -2.3437
13605TIP3   OH262305   5.172   1.176   2.343  0.8834  0.2836  0.8298
13605TIP3    H162306   5.251   1.155   2.293  0.1287  1.5355 -0.9437
13605TIP3    H262307   5.167   1.108   2.410  1.3855 -2.0373 -1.4110
13606TIP3   OH262308   2.662   3.349  13.021  0.1073 -0.7497 -0.6718
13606TIP3    H162309   2.749   3.370  13.056 -1.9917  3.0239  2.6535
13606TIP3    H262310   2.636   3.426  12.971 -1.7624 -1.4067 -0.7465
13607TIP3   OH262311   2.865   5.749  14.241 -0.0414 -0.3800  0.5889
13607TIP3    H162312   2.953   5.774  14.213  0.0468  0.2888  1.4455
13607TIP3    H262313   2.816   5.832  14.246 -0.7888 -0.7702 -0.1171
13608TIP3   OH262314   2.143   3.596  12.434 -0.3018  0.5876 -0.0138
13608TIP3    H162315   2.118   3.648  12.510  1.9517  2.3101 -0.3890
13608TIP3    H262316   2.226   3.555  12.459 -0.3419 -0.0704 -0.9505
13609TIP3   OH262317   5.190   5.826  12.515 -0.6477  0.0866  0.0684
13609TIP3    H162318   5.202   5.735  12.543  0.7769  0.2302 -0.0230
13609TIP3    H262319   5.144   5.820  12.431 -1.5835 -0.4975  0.6180
13610TIP3   OH262320   0.364   1.904  16.397 -0.0793  0.4640  0.1472
13610TIP3    H162321   0.294   1.839  16.388  1.0713 -0.4406 -2.8629
13610TIP3    H262322   0.342   1.972  16.333  1.2406  0.7122 -0.0518
13611TIP3   OH262323   3.802   6.166   5.365  0.5677 -0.6764 -0.0124
13611TIP3    H162324   3.884   6.122   5.339  0.3200 -1.7312  0.9633
13611TIP3    H262325   3.796   6.152   5.459 -1.0709 -1.1618 -0.1790
13612TIP3   OH262326   4.765   3.636   4.451  0.3326  0.0636  0.0492
13612TIP3    H162327   4.756   3.550   4.493  0.8328 -0.1416 -0.2548
13612TIP3    H262328   4.832   3.623   4.384  0.3699  0.6815 -0.0372
13613TIP3   OH262329   2.906   1.598   3.857  0.2023  0.3965 -0.1304
13613TIP3    H162330   2.909   1.659   3.931 -2.0386  0.5835 -0.1811
13613TIP3    H262331   2.894   1.653   3.780 -0.0762  0.0104 -0.3634
13614TIP3   OH262332   5.700   5.932   5.469  0.0530  0.1317 -0.5348
13614TIP3    H162333   5.757   5.865   5.508 -1.8220 -1.5788 -0.6666
13614TIP3    H262334   5.722   6.012   5.516  5.0505  0.3610 -2.8998
13615TIP3   OH262335   5.460   5.317  14.944  0.2479 -0.1285  0.2998
13615TIP3    H162336   5.515   5.250  14.904  1.2459  0.7404  0.1734
13615TIP3    H262337   5.511   5.349  15.019 -0.7043 -0.2975  1.0306
13616TIP3   OH262338   3.774   6.145   3.156 -0.2991 -0.6887 -0.4948
13616TIP3    H162339   3.782   6.237   3.180  0.1725 -1.0877  0.9508
13616TIP3    H262340   3.754   6.146   3.062 -0.1889  0.8717 -0.5164
13617TIP3   OH262341   1.519   3.251  14.438 -0.4357  0.5058  0.0350
13617TIP3    H162342   1.477   3.256  14.524  0.5895  0.1487  0.5672
13617TIP3    H262343   1.493   3.166  14.404 -1.5308  0.9977 -0.3787
13618TIP3   OH262344   0.690   2.239  16.254  0.7654  0.4610  0.0895
13618TIP3    H162345   0.687   2.147  16.226  0.2035  0.7752 -0.9114
13618TIP3    H262346   0.618   2.281  16.207 -0.3041  0.9916  2.1422
13619TIP3   OH262347   3.904   1.577  13.647  0.0570  0.3946  0.6818
13619TIP3    H162348   3.893   1.669  13.669 -0.0398  0.2362  1.3058
13619TIP3    H262349   3.933   1.536  13.729  0.0332 -0.1395  0.4255
13620TIP3   OH262350   0.617   4.132  14.664 -0.6038  0.2743 -0.0358
13620TIP3    H162351   0.564   4.098  14.736 -0.1100  0.8712  0.6180
13620TIP3    H262352   0.576   4.215  14.640 -0.1665  0.5796  0.2550
13621TIP3   OH262353   3.856   6.308   2.602 -0.1413 -0.5118  0.2536
13621TIP3    H162354   3.876   6.401   2.613  1.3886 -0.8505  0.4721
13621TIP3    H262355   3.771   6.307   2.557  0.0952  0.9800 -0.2646
13622TIP3   OH262356   0.189   5.906   6.129  0.4280 -0.0294 -0.7402
13622TIP3    H162357   0.155   5.990   6.096 -2.1064 -0.6250  0.2145
13622TIP3    H262358   0.152   5.899   6.217  2.0307 -1.3700 -0.1576
13623TIP3   OH262359   5.821   4.258   5.504 -0.2558  0.1310 -0.1822
13623TIP3    H162360   5.792   4.223   5.588 -2.5177  4.1770  0.8904
13623TIP3    H262361   5.896   4.313   5.526 -0.0039  0.1083 -0.9852
13624TIP3   OH262362   3.166   4.755  11.578  0.4518 -0.3973  0.3574
13624TIP3    H162363   3.124   4.675  11.545  1.4239 -1.2004  1.0659
13624TIP3    H262364   3.183   4.806  11.499 -0.0298 -0.9506 -0.1177
13625TIP3   OH262365   2.958   1.894   3.455  0.8659  0.4092  0.2392
13625TIP3    H162366   2.904   1.903   3.376  0.6223 -1.2156  0.2010
13625TIP3    H262367   2.981   1.984   3.478  0.2362  0.9655 -1.1949
13626TIP3   OH262368   5.090   4.494  12.814  0.6526  0.7637 -0.0963
13626TIP3    H162369   5.152   4.555  12.773  2.8847 -2.3120 -1.5102
13626TIP3    H262370   5.128   4.474  12.900  0.9950 -0.1448 -0.4483
13627TIP3   OH262371   2.883   1.930  13.652 -0.5548 -0.7745 -0.0794
13627TIP3    H162372   2.965   1.979  13.656 -1.5664  0.9350 -0.1072
13627TIP3    H262373   2.857   1.920  13.744 -1.8594  1.3526 -0.1806
13628TIP3   OH262374   2.550   3.159  15.931 -0.6442 -0.9326 -0.2137
13628TIP3    H162375   2.595   3.110  15.999  0.6707 -1.1045 -1.2040
13628TIP3    H262376   2.521   3.240  15.975 -0.4822 -1.3768  0.7257
13629TIP3   OH262377   0.928   1.452  13.728 -0.2846 -0.0216 -0.0404
13629TIP3    H162378   0.946   1.488  13.814 -3.2321  0.8991  0.2425
13629TIP3    H262379   0.849   1.498  13.698  0.0567 -1.0886 -2.7620
13630TIP3   OH262380   0.295   2.072   5.353 -0.3158  0.6471 -0.0188
13630TIP3    H162381   0.283   2.061   5.448  1.7717 -0.1660  0.1781
13630TIP3    H262382   0.324   2.162   5.342 -0.8080  0.8208  0.0747
13631TIP3   OH262383   5.013   0.663   4.801 -0.3133 -0.5105 -0.2304
13631TIP3    H162384   5.089   0.645   4.857 -0.4682  0.7825  0.4074
13631TIP3    H262385   4.938   0.629   4.849 -0.3587 -0.0656  0.0171
13632TIP3   OH262386   5.379   2.174   2.362 -0.5873 -0.5862 -0.4456
13632TIP3    H162387   5.286   2.155   2.348 -0.0883 -1.5867 -2.5431
13632TIP3    H262388   5.423   2.139   2.285  1.6446 -0.8335  0.8941
13633TIP3   OH262389   2.550   1.361   5.575  0.1649  0.0886 -0.1723
13633TIP3    H162390   2.620   1.355   5.640 -0.4396 -0.1038  0.4799
13633TIP3    H262391   2.537   1.455   5.562  0.2501  0.1283  0.0294
13634TIP3   OH262392   2.756   4.192   6.041  0.0756  0.3066 -0.1102
13634TIP3    H162393   2.665   4.213   6.060 -0.5619 -1.5293 -1.0327
13634TIP3    H262394   2.792   4.160   6.124 -0.4928 -0.2362 -0.0731
13635TIP3   OH262395   3.418   0.544  15.492 -0.4793  0.1297 -0.1025
13635TIP3    H162396   3.474   0.606  15.538  1.0756 -1.3970  0.1149
13635TIP3    H262397   3.464   0.527  15.409  0.0762 -2.0867  0.6131
13636TIP3   OH262398   1.000   5.096   4.377 -0.3595  0.0423 -0.4692
13636TIP3    H162399   1.045   5.038   4.317  0.6548  0.2549  0.0736
13636TIP3    H262400   0.907   5.074   4.368  0.0254 -1.8178 -0.0908
13637TIP3   OH262401   5.336   0.075   4.436  0.0954 -0.5286  0.0899
13637TIP3    H162402   5.415   0.022   4.429  0.1114 -0.2261 -2.2722
13637TIP3    H262403   5.361   0.161   4.402  0.0818  1.1144  3.8813
13638TIP3   OH262404   3.499   4.409  14.779 -0.7892  0.0222  0.1455
13638TIP3    H162405   3.411   4.388  14.810 -0.3356 -2.7199 -0.2862
13638TIP3    H262406   3.558   4.363  14.838  0.4698  2.9316  1.2632
13639TIP3   OH262407   3.886   2.137   2.897 -0.4104  0.4572 -0.3881
13639TIP3    H162408   3.873   2.181   2.813  1.4021 -0.0318 -0.9514
13639TIP3    H262409   3.958   2.076   2.881 -1.3784 -1.0808  0.9978
13640TIP3   OH262410   3.370   4.622  14.662  0.1339 -0.2485  0.4508
13640TIP3    H162411   3.423   4.550  14.696  0.7897 -0.1341 -0.3231
13640TIP3    H262412   3.339   4.591  14.577  2.2179  1.2177 -0.8713
13641TIP3   OH262413   4.179   0.901   5.470  0.1525 -0.4739 -0.0182
13641TIP3    H162414   4.225   0.953   5.536 -0.3020  1.3754 -1.1259
13641TIP3    H262415   4.088   0.901   5.500 -0.1387  0.7709 -0.8825
13642TIP3   OH262416   5.605   2.867   1.491 -0.1405  0.0937 -0.3622
13642TIP3    H162417   5.585   2.893   1.580  2.5848 -0.4505  0.4665
13642TIP3    H262418   5.700   2.878   1.484  0.0467 -2.4116 -2.3360
13643TIP3   OH262419   0.230   4.764   1.197  0.1388  0.3118 -0.0448
13643TIP3    H162420   0.314   4.736   1.233  0.1485  2.2022  1.4979
13643TIP3    H262421   0.251   4.797   1.110  0.7973 -0.4135 -0.1667
13644TIP3   OH262422   4.168   0.147   4.307 -1.3255 -0.1712  0.1344
13644TIP3    H162423   4.109   0.073   4.292 -1.5193 -0.3944  1.9219
13644TIP3    H262424   4.170   0.158   4.402  0.3856  0.7616  0.0143
13645TIP3   OH262425   5.428   1.832   0.218 -0.3267  0.0021 -0.5005
13645TIP3    H162426   5.414   1.895   0.148 -0.6298  0.1461 -0.3098
13645TIP3    H262427   5.519   1.845   0.245 -0.4669  0.5342 -0.2840
13646TIP3   OH262428   6.398   2.393   2.368  0.1783  0.4104  0.6334
13646TIP3    H162429   6.307   2.416   2.347 -0.2387 -1.8928 -0.3163
13646TIP3    H262430   6.424   2.334   2.297  2.2613  0.6701  1.1588
13647TIP3   OH262431   3.192   1.785  15.964  0.0350 -0.0685  0.2627
13647TIP3    H162432   3.175   1.809  16.055 -0.7727  1.3262 -0.2364
13647TIP3    H262433   3.287   1.785  15.955  0.1960 -2.1482  1.5903
13648TIP3   OH262434   4.927   4.592   2.182  0.2476 -0.0023 -0.4790
13648TIP3    H162435   4.988   4.625   2.117 -1.4299  2.3818 -0.8793
13648TIP3    H262436   4.962   4.506   2.206  2.4543  0.3275 -2.3888
13649TIP3   OH262437   0.686   2.897  15.461 -0.0957  0.1162  0.2031
13649TIP3    H162438   0.719   2.883  15.372 -0.3963  0.6345  0.0046
13649TIP3    H262439   0.591   2.884  15.454  0.0863 -1.5916  0.8174
13650TIP3   OH262440   4.139   2.665   2.264 -0.7087  0.0394 -0.0792
13650TIP3    H162441   4.176   2.732   2.322 -0.3634 -0.5290  0.3708
13650TIP3    H262442   4.099   2.714   2.192  0.7603  0.6825 -0.4704
13651TIP3   OH262443   5.804   2.630  13.816 -0.3504 -0.1660  0.1986
13651TIP3    H162444   5.756   2.575  13.754 -2.7151  1.2114  0.7466
13651TIP3    H262445   5.821   2.711  13.767 -1.1930  0.4719  0.9449
13652TIP3   OH262446   1.436   5.503  13.542  0.0122 -0.5851  0.1779
13652TIP3    H162447   1.374   5.465  13.604 -1.2850 -2.6983 -2.2962
13652TIP3    H262448   1.402   5.590  13.524 -2.5404 -1.8149 -1.3642
13653TIP3   OH262449   0.644   4.416  15.696 -0.1602 -0.0883  0.6299
13653TIP3    H162450   0.713   4.380  15.640  0.4559  3.1979 -0.8073
13653TIP3    H262451   0.572   4.353  15.690  0.7837 -0.9512 -2.0102
13654TIP3   OH262452   5.032   4.179  14.095  0.1409  0.3714  0.7234
13654TIP3    H162453   5.098   4.183  14.026  0.2807 -0.8219  0.7792
13654TIP3    H262454   5.082   4.181  14.177  0.0902 -0.0471  0.7682
13655TIP3   OH262455   4.455   5.856   4.931 -0.1416 -0.2715  0.2896
13655TIP3    H162456   4.424   5.842   5.020 -1.2027  0.5688  0.0588
13655TIP3    H262457   4.534   5.909   4.941  0.5131 -1.3235  0.7986
13656TIP3   OH262458   3.642   1.168  16.273  0.1319 -0.8479  0.2676
13656TIP3    H162459   3.628   1.139  16.183 -0.6958 -1.9562  0.7325
13656TIP3    H262460   3.555   1.193  16.304  0.6952  1.2760  0.1841
13657TIP3   OH262461   1.958   5.687   2.263 -0.5081 -0.0814  0.1365
13657TIP3    H162462   1.975   5.608   2.314  1.1291  0.7043  0.8612
13657TIP3    H262463   1.868   5.677   2.233 -1.2302 -1.0000  2.4459
13658TIP3   OH262464   1.420   3.318  13.562 -0.2008 -0.2331  0.3380
13658TIP3    H162465   1.376   3.285  13.640 -2.2207  0.3375 -0.4939
13658TIP3    H262466   1.403   3.413  13.564 -0.3485 -0.2213 -0.7977
13659TIP3   OH262467   5.000   6.187  15.162  0.4309 -0.6197 -0.2607
13659TIP3    H162468   5.056   6.245  15.214  1.0012 -0.3624 -1.1500
13659TIP3    H262469   4.962   6.127  15.226  0.4032  0.2771  0.5787
13660TIP3   OH262470   4.495   0.647   0.697  0.2587  0.1965 -0.3794
13660TIP3    H162471   4.456   0.561   0.687 -0.8572  0.6326  0.1624
13660TIP3    H262472   4.561   0.652   0.628  0.3937 -1.1212 -0.3526
13661TIP3   OH262473   5.916   3.604   3.902 -0.4072 -0.5595 -0.1227
13661TIP3    H162474   5.984   3.594   3.835  0.7512  3.2447  0.3430
13661TIP3    H262475   5.964   3.603   3.985 -1.6252 -3.3710  0.6088
13662TIP3   OH262476   5.240   6.435   0.677  0.4633  0.7211 -0.0226
13662TIP3    H162477   5.178   6.489   0.628 -0.6288 -2.1494 -1.9756
13662TIP3    H262478   5.188   6.359   0.706  2.0406  0.4238  2.1955
13663TIP3   OH262479   6.088   3.605   0.120  0.4842  0.6536  0.3205
13663TIP3    H162480   6.021   3.541   0.094  0.9824 -0.4070  1.5947
13663TIP3    H262481   6.090   3.668   0.047 -0.3685 -0.4859 -0.7202
13664TIP3   OH262482   0.204   2.019   4.536 -0.3820 -1.0923 -0.2865
13664TIP3    H162483   0.224   1.950   4.598  2.1676  0.4826  0.7376
13664TIP3    H262484   0.282   2.024   4.480  0.8542  2.9639  1.6122
13665TIP3   OH262485   4.734   0.808   3.037  1.1594 -0.0491  0.0587
13665TIP3    H162486   4.713   0.820   3.129 -0.7487 -1.4851 -0.1521
13665TIP3    H262487   4.824   0.775   3.037  1.0624 -0.3508  1.4388
13666TIP3   OH262488   6.707   2.473  12.289 -0.0331 -0.1503  0.1728
13666TIP3    H162489   6.618   2.445  12.309 -0.7850  0.1699 -2.5368
13666TIP3    H262490   6.756   2.391  12.280  0.4054 -0.2982  3.4366
13667TIP3   OH262491   3.673   4.677   4.307 -0.1526 -0.2880  0.1543
13667TIP3    H162492   3.714   4.618   4.370  0.4928  0.8363  0.8047
13667TIP3    H262493   3.589   4.700   4.348 -1.2254 -2.1378 -0.9159
13668TIP3   OH262494   2.806   2.645   3.722  0.3266 -0.2570  0.7346
13668TIP3    H162495   2.823   2.560   3.681 -0.0498  0.2657 -0.4924
13668TIP3    H262496   2.847   2.637   3.809  0.3858 -1.6506  0.5904
13669TIP3   OH262497   5.006   2.390  14.853  0.5144 -0.6847 -0.0024
13669TIP3    H162498   5.016   2.443  14.774 -0.1670  1.6041  1.4037
13669TIP3    H262499   5.096   2.363  14.875  1.5392  3.7261  1.7771
13670TIP3   OH262500   5.738   5.524   2.411  0.7719 -0.1898  0.1114
13670TIP3    H162501   5.741   5.555   2.501  2.9435 -0.5374  0.1807
13670TIP3    H262502   5.721   5.603   2.359 -0.0500  0.0786  0.7833
13671TIP3   OH262503   3.664   1.960   5.083 -0.3590  0.1373  0.4153
13671TIP3    H162504   3.755   1.977   5.057 -0.9408  1.4811 -0.8150
13671TIP3    H262505   3.631   2.046   5.109 -1.5819 -0.1720 -0.1142
13672TIP3   OH262506   2.528   1.328   0.617  0.0219  0.0988  0.8921
13672TIP3    H162507   2.458   1.269   0.590 -1.5541  2.5107 -0.5019
13672TIP3    H262508   2.487   1.387   0.681  0.3129  2.4077 -0.9555
13673TIP3   OH262509   2.563   4.599  12.331  0.2472  0.4112  0.1352
13673TIP3    H162510   2.614   4.668  12.375  0.6293  0.3834 -0.2697
13673TIP3    H262511   2.615   4.520  12.343  1.7203  0.9018 -2.7544
13674TIP3   OH262512   4.756   3.204  13.995 -0.1268  0.0999  0.3842
13674TIP3    H162513   4.849   3.221  14.008 -0.2283  1.1391 -0.2312
13674TIP3    H262514   4.715   3.228  14.078 -0.0738  1.4016  0.0416
13675TIP3   OH262515   6.192   1.761  14.081 -0.3385 -0.7918  0.1944
13675TIP3    H162516   6.206   1.666  14.076  1.3969 -0.8117  3.6683
13675TIP3    H262517   6.278   1.799  14.067 -0.9672  0.2908 -0.8418
13676TIP3   OH262518   4.853   6.769   0.956  0.1022 -0.0813 -0.3377
13676TIP3    H162519   4.842   6.743   1.047 -2.3674 -2.1037 -1.1801
13676TIP3    H262520   4.776   6.823   0.937  1.2399  1.3901 -0.8949
13677TIP3   OH262521   6.259   1.050   4.080 -0.2919 -0.1994  0.0729
13677TIP3    H162522   6.215   1.076   3.999  1.2612 -0.1070 -0.7412
13677TIP3    H262523   6.292   1.132   4.117  1.4100 -0.5737 -0.6137
13678TIP3   OH262524   3.223   3.218  13.601 -0.2473 -0.3568  0.0830
13678TIP3    H162525   3.225   3.215  13.505 -0.3247  0.5724  0.0473
13678TIP3    H262526   3.129   3.215  13.623 -0.3724  1.9977  0.0186
13679TIP3   OH262527   1.280   6.112   2.652 -0.2512 -0.3608 -0.1369
13679TIP3    H162528   1.333   6.067   2.717  1.3212  1.5598 -0.0216
13679TIP3    H262529   1.304   6.072   2.569  1.3069  0.3542 -0.0633
13680TIP3   OH262530   4.679   2.718  16.268  0.0077 -0.3854  0.3358
13680TIP3    H162531   4.599   2.675  16.299  1.1644 -1.4108  2.0020
13680TIP3    H262532   4.660   2.744  16.178 -2.1932 -0.6217  0.7203
13681TIP3   OH262533   2.088   3.840  12.693 -0.0551  0.4039 -0.3208
13681TIP3    H162534   2.009   3.893  12.686 -1.2895 -1.3359  0.0389
13681TIP3    H262535   2.071   3.782  12.768  2.0870  0.8736  0.5467
13682TIP3   OH262536   4.263   1.746  15.049  0.0735  0.5291 -0.0341
13682TIP3    H162537   4.241   1.671  14.993 -0.3557  1.3133 -0.9422
13682TIP3    H262538   4.182   1.767  15.095  0.1726  0.4856  0.1606
13683TIP3   OH262539   5.956   6.805  15.905 -0.7422 -0.5423  0.5319
13683TIP3    H162540   5.996   6.721  15.884  0.8063  0.3165 -0.0612
13683TIP3    H262541   5.869   6.783  15.938 -1.4317 -2.2221 -2.2300
13684TIP3   OH262542   3.769   5.498   2.490 -0.2106  0.0731  0.4330
13684TIP3    H162543   3.806   5.565   2.547 -0.3230  1.4588 -1.0858
13684TIP3    H262544   3.706   5.545   2.435  0.1495 -1.1363 -1.0599
13685TIP3   OH262545   2.731   2.954   2.381  0.0977 -0.0699  0.0648
13685TIP3    H162546   2.801   2.926   2.322  0.7286  0.8536  0.3650
13685TIP3    H262547   2.692   2.873   2.413  0.7911 -0.5846 -0.3891
13686TIP3   OH262548   6.196   3.840   5.898 -0.3941 -0.3139  0.5387
13686TIP3    H162549   6.130   3.773   5.879 -1.9949  1.0876  1.0889
13686TIP3    H262550   6.266   3.822   5.835 -1.4448 -1.6070 -0.3016
13687TIP3   OH262551   5.096   3.563  16.870  0.2477 -0.4747 -0.3734
13687TIP3    H162552   5.042   3.488  16.846 -2.2341  0.8866  0.7816
13687TIP3    H262553   5.131   3.541  16.956  0.6571 -0.8898 -0.6454
13688TIP3   OH262554   4.399   1.288  15.453 -0.0196 -0.1715 -0.0084
13688TIP3    H162555   4.405   1.270  15.547  1.1086  0.4582  0.0465
13688TIP3    H262556   4.486   1.267  15.419 -0.1304  0.5640 -0.7447
13689TIP3   OH262557   1.772   3.223   2.752 -0.5101  0.4284 -0.3297
13689TIP3    H162558   1.821   3.145   2.728  0.0310  0.7994 -0.4252
13689TIP3    H262559   1.686   3.211   2.710 -1.2371 -1.1844  1.5276
13690TIP3   OH262560   4.868   6.500  11.641  0.0450  0.1837 -0.9778
13690TIP3    H162561   4.779   6.521  11.667  0.4855  0.0382  0.6630
13690TIP3    H262562   4.893   6.572  11.582 -0.4594  1.2631  0.1074
13691TIP3   OH262563   6.436   5.817  13.011 -0.0191 -0.0306  0.1440
13691TIP3    H162564   6.516   5.824  12.959 -0.8141 -0.2665 -1.1471
13691TIP3    H262565   6.385   5.894  12.985 -0.5654 -0.3309  0.3180
13692TIP3   OH262566   4.957   2.254   5.556  0.1895  0.0228  0.1332
13692TIP3    H162567   4.989   2.224   5.471 -0.3101 -2.2848  0.7249
13692TIP3    H262568   4.864   2.231   5.557  0.8495 -2.8671  2.4812
13693TIP3   OH262569   5.731   4.253   4.222 -0.0583  0.3300  0.2945
13693TIP3    H162570   5.801   4.232   4.283 -0.4814 -1.9558  0.0488
13693TIP3    H262571   5.680   4.172   4.216 -1.9463  1.5480 -0.5385
13694TIP3   OH262572   1.459   0.759  12.339 -0.6886  0.6364  0.0286
13694TIP3    H162573   1.543   0.757  12.385  0.0071 -0.7516 -1.2685
13694TIP3    H262574   1.393   0.756  12.408  0.3336  1.0756  1.0261
13695TIP3   OH262575   3.457   5.684  14.985  0.6609 -0.3623 -0.2961
13695TIP3    H162576   3.527   5.648  14.931 -2.6528 -3.2893 -2.8888
13695TIP3    H262577   3.467   5.642  15.070  1.1337 -1.9297 -1.1193
13696TIP3   OH262578   2.223   1.498  11.570 -0.3616 -0.7427 -0.3461
13696TIP3    H162579   2.176   1.564  11.520  1.1139 -0.8739 -1.9689
13696TIP3    H262580   2.160   1.468  11.635 -2.5444 -0.9778 -2.4838
13697TIP3   OH262581   1.369   5.493  10.799  0.0841  0.4543 -0.0083
13697TIP3    H162582   1.338   5.557  10.736  1.8971  1.1041 -0.2572
13697TIP3    H262583   1.289   5.456  10.838 -1.0504  0.0692 -2.6394
13698TIP3   OH262584   2.617   2.357  15.254 -0.3273 -0.0841  0.3370
13698TIP3    H162585   2.699   2.307  15.261  0.2900  0.9841  0.8399
13698TIP3    H262586   2.609   2.401  15.338 -1.3615 -0.0727  0.2342
13699TIP3   OH262587   4.337   0.524  13.960  0.0629  0.4781 -0.0421
13699TIP3    H162588   4.332   0.461  14.031 -0.0928 -0.2654 -0.7103
13699TIP3    H262589   4.373   0.603  14.000 -0.0644  0.0750  0.8661
13700TIP3   OH262590   2.253   1.918   4.608 -0.2489  0.4215  0.5498
13700TIP3    H162591   2.248   1.994   4.551  0.5782 -0.8347 -1.2612
13700TIP3    H262592   2.169   1.916   4.654 -1.0823  1.2580 -0.9143
13701TIP3   OH262593   2.051   3.020  15.802 -0.2864 -0.0946 -0.7898
13701TIP3    H162594   2.034   3.114  15.815 -0.4297 -0.1037 -0.9155
13701TIP3    H262595   2.130   3.003  15.853 -0.0975  0.1569 -1.0010
13702TIP3   OH262596   3.863   4.254  17.003 -0.0898 -0.4793  0.1977
13702TIP3    H162597   3.776   4.221  17.024 -0.0489  0.4467  1.8798
13702TIP3    H262598   3.849   4.316  16.932 -0.9081  0.2051  0.9432
13703TIP3   OH262599   0.569   0.621  12.221  0.0534  0.3285 -0.3517
13703TIP3    H162600   0.628   0.561  12.174  0.0569 -0.0540  0.1460
13703TIP3    H262601   0.628   0.682  12.265  0.1196 -0.8355  1.1988
13704TIP3   OH262602   2.993   1.192  12.960  0.1750 -0.2428 -0.9094
13704TIP3    H162603   3.023   1.281  12.939 -0.5107 -0.2196 -1.8125
13704TIP3    H262604   2.922   1.206  13.023  0.8100 -0.2132 -0.1874
13705TIP3   OH262605   0.867   0.974   3.425  0.3460  0.0423  0.5968
13705TIP3    H162606   0.871   1.066   3.399  0.5001 -0.1119  0.0822
13705TIP3    H262607   0.781   0.965   3.465 -0.5103 -0.0921 -1.2484
13706TIP3   OH262608   1.097   1.311   3.158  0.0884  0.1536 -0.3302
13706TIP3    H162609   1.003   1.329   3.162  0.2107  1.0865 -1.3758
13706TIP3    H262610   1.125   1.307   3.250 -0.5512  2.1871 -0.0203
13707TIP3   OH262611   5.823   3.514   2.418  0.0790  0.5237 -0.1630
13707TIP3    H162612   5.750   3.482   2.365 -0.9532 -0.4279  1.7797
13707TIP3    H262613   5.867   3.435   2.449  0.0380  1.0259  1.2270
13708TIP3   OH262614   2.893   5.239  10.527  0.3664  0.2695  0.3722
13708TIP3    H162615   2.943   5.238  10.446 -1.1014  0.3137 -0.5645
13708TIP3    H262616   2.897   5.149  10.560  0.6207  0.1544  0.0255
13709TIP3   OH262617   3.222   5.847  13.339  0.3475  0.5935  0.0569
13709TIP3    H162618   3.139   5.873  13.301  0.2942 -1.5961 -1.3522
13709TIP3    H262619   3.200   5.783  13.407  0.9520 -1.1816 -1.3777
13710TIP3   OH262620   2.025   5.797  11.711 -0.1549  0.2756  0.3303
13710TIP3    H162621   2.094   5.731  11.720 -0.1386  0.2979  0.3627
13710TIP3    H262622   2.043   5.839  11.627  0.0332  0.4710  0.4712
13711TIP3   OH262623   2.448   6.286  14.793 -0.1491 -0.1997  0.4976
13711TIP3    H162624   2.515   6.340  14.752  0.6810 -1.8784 -0.4376
13711TIP3    H262625   2.486   6.259  14.876 -0.0253 -0.4176  0.3710
13712TIP3   OH262626   5.698   5.055  16.120 -0.0221 -0.5644 -0.6140
13712TIP3    H162627   5.606   5.032  16.136 -1.0253  2.9857 -0.7383
13712TIP3    H262628   5.704   5.063  16.025  0.2121 -0.0546 -0.5543
13713TIP3   OH262629   0.947   2.727   1.385  0.2623 -0.7041  0.3350
13713TIP3    H162630   0.852   2.737   1.381  0.3415  0.3235  0.8710
13713TIP3    H262631   0.962   2.670   1.460 -0.0220 -2.3787 -0.8519
13714TIP3   OH262632   4.737   3.711   3.465  0.0845  0.4555  0.2202
13714TIP3    H162633   4.768   3.712   3.374  0.4796  0.6754  0.3542
13714TIP3    H262634   4.707   3.800   3.481  0.7770  0.6295  0.5614
13715TIP3   OH262635   2.376   1.882   1.374 -0.1877  0.0929 -0.0990
13715TIP3    H162636   2.359   1.936   1.452  0.5246 -0.4380  0.4219
13715TIP3    H262637   2.322   1.922   1.306 -0.2478  1.0140  0.4782
13716TIP3   OH262638   3.119   4.193  10.886  0.0291 -0.3476 -0.0185
13716TIP3    H162639   3.100   4.120  10.945  2.4893 -0.8336  0.2020
13716TIP3    H262640   3.169   4.154  10.815  2.0136  1.2344  0.4695
13717TIP3   OH262641   2.443   0.779   4.834  0.3921  0.7293 -0.2316
13717TIP3    H162642   2.507   0.848   4.849  0.7164  0.3003  0.4049
13717TIP3    H262643   2.457   0.752   4.743 -0.5488  2.3088 -0.8621
13718TIP3   OH262644   5.391   6.116   3.404  0.1121 -0.3648 -0.6531
13718TIP3    H162645   5.427   6.153   3.323  0.8907  0.0942 -0.1033
13718TIP3    H262646   5.381   6.191   3.462 -1.2200 -0.5806 -0.6065
13719TIP3   OH262647   5.298   5.805   2.646  0.4313 -0.6076  0.1191
13719TIP3    H162648   5.260   5.766   2.567 -0.1039  0.7329 -0.3041
13719TIP3    H262649   5.223   5.823   2.702  1.0447 -4.9491  2.5950
13720TIP3   OH262650   6.788   1.377  13.577  0.3946 -0.6500 -0.2933
13720TIP3    H162651   6.783   1.338  13.665 -1.1555 -1.7867 -0.8683
13720TIP3    H262652   6.697   1.379  13.547  0.3962  3.6158 -0.2338
13721TIP3   OH262653   5.611   1.828   0.943 -0.0787  0.5788 -0.9548
13721TIP3    H162654   5.519   1.856   0.949 -0.2819  0.0119 -1.3308
13721TIP3    H262655   5.659   1.909   0.925 -0.6442  0.7295 -1.8777
13722TIP3   OH262656   4.576   0.314  10.990 -0.1379 -0.2922 -0.5131
13722TIP3    H162657   4.660   0.278  10.963 -0.1742  0.1551 -1.2613
13722TIP3    H262658   4.551   0.372  10.918 -1.4477 -1.0198 -0.6670
13723TIP3   OH262659   1.659   1.521   3.079 -0.9451 -0.3904 -0.0627
13723TIP3    H162660   1.679   1.461   3.007 -1.5879 -0.0709 -0.5139
13723TIP3    H262661   1.727   1.588   3.074 -0.4869 -0.8380  0.1638
13724TIP3   OH262662   5.172   5.905  13.501 -0.0787 -0.1048  0.5887
13724TIP3    H162663   5.140   5.827  13.454  0.0966  0.4904 -0.5381
13724TIP3    H262664   5.267   5.899  13.493 -0.1361  1.6303 -1.8483
13725TIP3   OH262665   5.254   5.014  10.358 -0.6758  0.0147  0.0644
13725TIP3    H162666   5.240   5.095  10.308  1.0476 -1.1729 -2.4360
13725TIP3    H262667   5.335   5.029  10.405  1.2442 -1.2719 -2.6942
13726TIP3   OH262668   1.649   3.129   3.444  0.4633  0.0448  0.0497
13726TIP3    H162669   1.697   3.096   3.520 -0.7024 -1.9170 -0.0113
13726TIP3    H262670   1.589   3.195   3.479  0.3907 -0.3906  0.7532
13727TIP3   OH262671   1.341   0.989  13.561 -0.2389 -0.4221  0.2193
13727TIP3    H162672   1.284   1.033  13.499 -0.4419 -0.8387  0.1051
13727TIP3    H262673   1.388   1.059  13.606 -0.4175 -0.1047 -0.0936
13728TIP3   OH262674   4.241   3.151   2.654 -0.7512  0.2701  0.1001
13728TIP3    H162675   4.217   3.242   2.669 -0.5290  0.3698 -0.1341
13728TIP3    H262676   4.287   3.153   2.570 -1.5192 -0.1871 -0.3360
13729TIP3   OH262677   5.234   4.291   0.977  0.2459 -0.5982  0.7421
13729TIP3    H162678   5.254   4.312   1.068 -0.5638  0.2528  0.7352
13729TIP3    H262679   5.139   4.275   0.976  0.6000 -2.8882  0.4691
13730TIP3   OH262680   2.268   3.039  17.014  0.0794 -0.1996  0.4314
13730TIP3    H162681   2.322   2.985  17.071  0.8475 -0.2625 -0.3583
13730TIP3    H262682   2.264   2.992  16.931  0.7111  0.9074 -0.2465
13731TIP3   OH262683   4.622   6.777  10.932 -0.1317  0.7101 -0.0739
13731TIP3    H162684   4.566   6.796  11.007  1.9491 -0.6168  1.8658
13731TIP3    H262685   4.588   6.833  10.862 -2.8901  1.0432  1.4828
13732TIP3   OH262686   0.647   3.598  12.645 -0.8368  0.2844  0.4218
13732TIP3    H162687   0.714   3.549  12.597 -1.7698  0.6422 -1.2819
13732TIP3    H262688   0.572   3.538  12.650 -0.8828  0.3911  1.1015
13733TIP3   OH262689   2.436   0.883  14.229 -0.3433  0.1985  0.1831
13733TIP3    H162690   2.437   0.860  14.136  2.8729 -0.7527  0.3829
13733TIP3    H262691   2.357   0.841  14.264 -1.1793 -0.0504 -1.9586
13734TIP3   OH262692   3.263   4.201  14.579 -0.4415 -0.0515 -0.7609
13734TIP3    H162693   3.311   4.219  14.498 -1.3162  1.3486 -0.9826
13734TIP3    H262694   3.187   4.150  14.551 -0.0812 -0.6493 -0.6546
13735TIP3   OH262695   1.771   6.544  14.407  0.3117 -0.2025  0.4401
13735TIP3    H162696   1.759   6.570  14.499  1.2678 -1.4214  0.9233
13735TIP3    H262697   1.684   6.553  14.368 -0.5998 -1.7685  2.0258
13736TIP3   OH262698   0.038   2.284  13.407 -0.0187 -0.2105  0.5158
13736TIP3    H162699  -0.015   2.337  13.466 -0.4802  0.0817 -0.1626
13736TIP3    H262700   0.009   2.308  13.320  0.5288 -0.7861  0.1687
13737TIP3   OH262701   1.460   1.024  15.922 -0.2724  0.2292 -0.1572
13737TIP3    H162702   1.539   1.038  15.870  1.1830  0.5050  2.0179
13737TIP3    H262703   1.490   0.970  15.995 -2.1917  0.0156  0.4898
13738TIP3   OH262704   4.983   2.344  11.621  0.5634 -0.4341  0.3526
13738TIP3    H162705   5.038   2.401  11.568  2.1277 -1.9163  0.3384
13738TIP3    H262706   4.911   2.400  11.650  0.2980  0.6844 -2.3565
13739TIP3   OH262707   3.859   3.655  14.907  0.6192 -0.1510 -0.0523
13739TIP3    H162708   3.845   3.658  15.002  0.3929 -0.3744 -0.0774
13739TIP3    H262709   3.920   3.726  14.889  2.0752 -1.2348  0.5148
13740TIP3   OH262710   4.072   3.366   1.962 -0.1059 -0.1931  0.3834
13740TIP3    H162711   3.980   3.373   1.937 -0.3710 -0.5109  1.2342
13740TIP3    H262712   4.083   3.431   2.031  0.3335 -0.0739  0.2007
13741TIP3   OH262713   6.090   4.179   5.306  0.1081 -0.0974 -0.2050
13741TIP3    H162714   6.064   4.093   5.272 -1.6637  0.8521 -1.3604
13741TIP3    H262715   6.013   4.234   5.292  0.6751  1.3065  1.9265
13742TIP3   OH262716   3.170   0.828  13.524  0.4463 -0.0735 -0.1678
13742TIP3    H162717   3.245   0.770  13.515  0.4358 -0.1145  0.0160
13742TIP3    H262718   3.135   0.836  13.435  0.0251 -0.9146 -0.0812
13743TIP3   OH262719   5.130   0.111  14.781 -0.5745  0.5240  0.1851
13743TIP3    H162720   5.097   0.062  14.856 -2.6762  1.5988 -0.0145
13743TIP3    H262721   5.196   0.170  14.818 -0.3671 -0.1725  0.9208
13744TIP3   OH262722   1.630   3.467  14.869  0.5056 -0.1040  0.5536
13744TIP3    H162723   1.582   3.455  14.787  0.7314  0.4821  0.3370
13744TIP3    H262724   1.577   3.421  14.934 -0.0285  0.0066  0.2011
13745TIP3   OH262725   5.852   1.970  16.400 -0.0699  0.2297  0.2856
13745TIP3    H162726   5.831   1.881  16.371  0.4117 -0.0375  0.7540
13745TIP3    H262727   5.807   2.027  16.337  3.0595 -0.3039 -2.5669
13746TIP3   OH262728   5.874   4.000   0.745  0.3565  0.7505  0.8600
13746TIP3    H162729   5.869   3.949   0.664 -2.1063  2.1393  0.0834
13746TIP3    H262730   5.810   3.958   0.803 -0.3860  1.8505  0.8461
13747TIP3   OH262731   5.852   3.601  16.676  0.0246 -0.2709 -0.0422
13747TIP3    H162732   5.808   3.675  16.635 -2.3968 -0.3136  2.2794
13747TIP3    H262733   5.870   3.540  16.604  1.6022  2.3206 -1.8876
13748TIP3   OH262734   3.636   4.775   0.978 -0.0509 -0.6688 -0.3410
13748TIP3    H162735   3.668   4.690   0.946 -1.2917 -1.5330  0.6400
13748TIP3    H262736   3.628   4.829   0.899  0.5413 -1.5440 -1.0071
13749TIP3   OH262737   3.409   4.630  13.351  0.2494  0.0723  0.3883
13749TIP3    H162738   3.410   4.561  13.417 -0.5939  0.4927  0.8521
13749TIP3    H262739   3.399   4.584  13.268 -0.4040 -0.3661  0.7051
13750TIP3   OH262740   2.613   3.131  12.856 -0.1849 -0.2774 -0.0427
13750TIP3    H162741   2.592   3.169  12.771 -0.2647 -0.6068 -0.1733
13750TIP3    H262742   2.649   3.203  12.907 -1.5041  0.2678  0.1370
13751TIP3   OH262743   2.954   3.222  13.683 -0.3700 -0.0833 -0.1684
13751TIP3    H162744   2.916   3.141  13.648  1.9034 -0.3108 -2.2176
13751TIP3    H262745   2.915   3.292  13.630  0.1149 -0.1030 -0.5507
13752TIP3   OH262746   3.879   2.424   2.743 -0.0472  0.0596  0.0047
13752TIP3    H162747   3.880   2.454   2.652 -0.2374 -0.4973 -0.1856
13752TIP3    H262748   3.787   2.428   2.769  0.1160  1.0527  0.4600
13753TIP3   OH262749   5.585   5.845  14.235  0.0075 -0.0911 -0.5184
13753TIP3    H162750   5.536   5.794  14.171 -1.0719  0.5228 -0.1890
13753TIP3    H262751   5.637   5.906  14.182 -0.4514  0.0297 -0.8326
13754TIP3   OH262752   0.416   6.662   1.851 -0.0833  0.1830  0.3165
13754TIP3    H162753   0.405   6.573   1.818  0.3879  0.2576 -0.0546
13754TIP3    H262754   0.454   6.650   1.937  0.5643  0.0386  0.0143
13755TIP3   OH262755   5.294   4.593   0.985  0.0137  0.1522  0.7117
13755TIP3    H162756   5.304   4.629   0.897 -0.3582  0.5800  0.8381
13755TIP3    H262757   5.303   4.498   0.974 -0.7760  0.1454  0.0949
13756TIP3   OH262758   5.505   4.368  14.052 -0.3968  0.9868 -0.2329
13756TIP3    H162759   5.439   4.402  13.992  0.1517  2.3815 -0.0577
13756TIP3    H262760   5.565   4.319  13.996  0.8724  3.4184 -1.0572
13757TIP3   OH262761   6.150   3.709  15.504  0.6938  0.2079 -0.0222
13757TIP3    H162762   6.106   3.745  15.427  0.2177 -0.3564 -0.0150
13757TIP3    H262763   6.178   3.786  15.554 -0.5428  0.5725  0.1205
13758TIP3   OH262764   2.311   3.840   1.347 -0.2540  0.1709 -0.3631
13758TIP3    H162765   2.248   3.910   1.335 -0.5194  0.2514  1.3053
13758TIP3    H262766   2.301   3.814   1.439  0.9750 -0.9393 -0.5177
13759TIP3   OH262767   2.473   6.316  11.671  0.5440 -0.5213 -1.0077
13759TIP3    H162768   2.474   6.367  11.590 -0.3119  0.8706 -0.1454
13759TIP3    H262769   2.533   6.362  11.730 -1.2506  0.2855  0.2326
13760TIP3   OH262770   0.516   3.481  11.505  0.3243 -0.0712  0.4707
13760TIP3    H162771   0.462   3.405  11.480  2.3575 -0.9108 -1.4467
13760TIP3    H262772   0.527   3.531  11.424 -0.0664  1.7156  1.4959
13761TIP3   OH262773   3.424   0.167   2.140  0.2681 -0.2731 -0.1166
13761TIP3    H162774   3.484   0.202   2.074  0.5914 -0.2208  0.2047
13761TIP3    H262775   3.422   0.235   2.208 -1.7443  0.6835 -1.0694
13762TIP3   OH262776   3.515   2.859   0.316 -0.1650  0.7420  0.0281
13762TIP3    H162777   3.547   2.882   0.229  0.7301  0.7299  0.3445
13762TIP3    H262778   3.576   2.792   0.346 -1.3516 -0.3444  0.0620
13763TIP3   OH262779   0.478   0.848  16.028  0.4574  0.0373  0.1587
13763TIP3    H162780   0.510   0.904  16.099  1.6967  0.2998 -0.5811
13763TIP3    H262781   0.491   0.900  15.949  0.6016 -0.8691 -0.4249
13764TIP3   OH262782   5.288   5.441  13.010 -0.4315  0.4032 -0.3804
13764TIP3    H162783   5.355   5.489  12.962  0.0032  0.8119  0.6275
13764TIP3    H262784   5.327   5.355  13.025 -0.0805  0.6767  0.3010
13765TIP3   OH262785   0.111   3.691  14.582  0.3119  0.0013 -0.2889
13765TIP3    H162786   0.043   3.753  14.606 -0.4197  0.0052 -2.2752
13765TIP3    H262787   0.193   3.738  14.599 -0.2198  1.1483 -0.8656
13766TIP3   OH262788   3.904   5.293   4.473  0.2189 -0.6339  0.1591
13766TIP3    H162789   3.926   5.340   4.554  0.9906  0.3016 -0.5893
13766TIP3    H262790   3.817   5.256   4.490  0.9583 -1.6252  1.9412
13767TIP3   OH262791   5.965   4.926  17.161  0.0312  0.0769 -0.2928
13767TIP3    H162792   5.991   4.932  17.253 -0.7087 -1.5866  0.0419
13767TIP3    H262793   5.894   4.989  17.151  1.4892  1.7554 -0.2400
13768TIP3   OH262794   3.688   1.750  11.096 -0.1450 -1.0913 -0.4843
13768TIP3    H162795   3.750   1.720  11.031  1.2018  1.8236 -0.6287
13768TIP3    H262796   3.728   1.726  11.180  1.8437  1.7398 -0.5268
13769TIP3   OH262797   3.845   2.717  15.833  0.2454 -0.2302  0.0231
13769TIP3    H162798   3.856   2.640  15.889 -1.4964  0.2308  1.0168
13769TIP3    H262799   3.860   2.791  15.890 -2.1045  0.2578  0.0168
13770TIP3   OH262800   2.948   4.259   3.988 -0.2584 -0.2418  0.1451
13770TIP3    H162801   3.037   4.231   4.009 -0.6100 -0.2025  1.7631
13770TIP3    H262802   2.953   4.355   3.988 -0.5044 -0.2283  1.1599
13771TIP3   OH262803   0.720   5.006   0.577  0.1692  0.1935 -0.6851
13771TIP3    H162804   0.660   5.071   0.610  0.5786  0.0000  0.4576
13771TIP3    H262805   0.758   4.966   0.655 -0.5673 -1.8692 -1.3494
13772TIP3   OH262806   4.316   0.463   0.224 -0.7055 -0.5968 -0.4533
13772TIP3    H162807   4.379   0.502   0.162 -0.2595 -1.8926 -0.8278
13772TIP3    H262808   4.359   0.384   0.256 -1.2358 -0.3182  0.9895
13773TIP3   OH262809   0.696   1.156   0.916 -0.1141  0.6486 -0.1910
13773TIP3    H162810   0.777   1.121   0.879  0.5188  0.8363  1.0085
13773TIP3    H262811   0.627   1.126   0.856  0.8071  0.2617 -1.0604
13774TIP3   OH262812   4.173   4.664   2.990 -0.1360  0.3406 -0.3619
13774TIP3    H162813   4.250   4.640   2.938  0.3568  1.4258 -0.1560
13774TIP3    H262814   4.149   4.751   2.957 -0.2833  0.7016  0.7019
13775TIP3   OH262815   2.684   0.977  14.187  0.3941  0.2964  0.3302
13775TIP3    H162816   2.594   0.957  14.215  0.9668 -0.0278  1.9714
13775TIP3    H262817   2.697   0.924  14.108 -0.1379 -1.2617  1.2736
13776TIP3   OH262818   0.120   5.995   3.035 -0.5206 -0.6400  0.0313
13776TIP3    H162819   0.167   5.925   3.080  1.1594 -0.1923 -0.9791
13776TIP3    H262820   0.039   6.005   3.085  0.5223 -1.3200  1.9458
13777TIP3   OH262821   5.829   3.895   5.055 -0.4463 -0.7959 -0.1021
13777TIP3    H162822   5.775   3.973   5.041 -2.9957 -2.5575 -0.5630
13777TIP3    H262823   5.843   3.860   4.967  0.3315 -1.0934  0.1362
13778TIP3   OH262824   5.630   4.930   2.596  0.2276 -0.3428  0.2392
13778TIP3    H162825   5.563   4.957   2.659 -0.7538 -0.3220 -0.7908
13778TIP3    H262826   5.635   4.835   2.605 -1.5526 -0.5952 -1.2363
13779TIP3   OH262827   0.300   2.915   0.368  0.4101  0.3416  0.2102
13779TIP3    H162828   0.392   2.936   0.351  0.3994 -0.8766 -1.4112
13779TIP3    H262829   0.255   2.999   0.362  1.1486  0.6692 -0.9193
13780TIP3   OH262830   3.744   5.989   0.463  0.0508  0.4160  0.9409
13780TIP3    H162831   3.805   5.926   0.500 -0.2627  0.5584  1.7109
13780TIP3    H262832   3.798   6.066   0.443  0.0580  0.7115  2.0379
13781TIP3   OH262833   3.010   5.743   1.572  0.2336  0.1277  0.1904
13781TIP3    H162834   3.085   5.688   1.594 -0.9796 -0.7859  2.1820
13781TIP3    H262835   2.939   5.681   1.553 -0.6614  0.9670  0.7023
13782TIP3   OH262836   0.889   0.147  12.337 -0.7300  0.3065  0.5032
13782TIP3    H162837   0.957   0.108  12.392 -0.6440  1.0532  0.9241
13782TIP3    H262838   0.879   0.236  12.370 -2.6130 -0.1091  1.0903
13783TIP3   OH262839   5.959   0.986  15.524 -0.3145  0.2595  0.1050
13783TIP3    H162840   5.973   0.993  15.619  0.5090 -0.1413  0.0145
13783TIP3    H262841   5.864   0.982  15.515 -0.4166  0.6943  0.8871
13784TIP3   OH262842   1.841   4.387   5.387 -0.0153  0.2957 -0.3263
13784TIP3    H162843   1.898   4.411   5.461  0.0051 -2.1402  0.4956
13784TIP3    H262844   1.752   4.398   5.420 -0.0065  0.9118 -0.5134
13785TIP3   OH262845   5.741   6.707  12.337 -0.6159 -0.5806  0.3022
13785TIP3    H162846   5.765   6.654  12.261 -0.5765  0.0098 -0.0970
13785TIP3    H262847   5.712   6.791  12.301 -2.4538 -0.9611  0.8294
13786TIP3   OH262848   3.775   2.129   4.778 -0.5227 -0.3551  0.3967
13786TIP3    H162849   3.809   2.213   4.749 -0.6760  0.9843  3.7614
13786TIP3    H262850   3.827   2.108   4.856 -2.2622 -2.0274  1.1549
13787TIP3   OH262851   3.255   1.596  12.881  0.1031 -0.2989 -0.2954
13787TIP3    H162852   3.237   1.622  12.791 -0.3502 -1.6122 -0.5863
13787TIP3    H262853   3.349   1.580  12.883  0.1995  0.2319 -0.3977
13788TIP3   OH262854   3.861   2.371  13.475  0.2905  0.3328  0.1210
13788TIP3    H162855   3.872   2.341  13.384 -0.7733 -1.1555  0.4711
13788TIP3    H262856   3.768   2.359  13.493  0.2005  2.1336  0.9047
13789TIP3   OH262857   6.249   4.585  11.955 -0.4406 -0.2562  0.0123
13789TIP3    H162858   6.276   4.629  11.874 -1.9504 -1.3412 -1.1070
13789TIP3    H262859   6.329   4.544  11.987  0.1031 -0.1475 -1.1604
13790TIP3   OH262860   0.898   6.063   5.690  0.7709 -0.0092  0.1971
13790TIP3    H162861   0.877   5.988   5.745 -0.1151  0.1316  0.0685
13790TIP3    H262862   0.885   6.032   5.600  3.5869 -0.6515 -0.0130
13791TIP3   OH262863   0.358   5.239  11.968  0.6189 -0.6326 -0.1117
13791TIP3    H162864   0.373   5.169  12.032 -0.2135 -0.3346  0.4216
13791TIP3    H262865   0.410   5.214  11.892  1.1014 -1.3277  0.4453
13792TIP3   OH262866   4.097   1.795  13.882 -0.0856  0.3546  0.7380
13792TIP3    H162867   4.174   1.844  13.851 -1.0689  0.3737 -1.7704
13792TIP3    H262868   4.105   1.797  13.977  1.9427  2.1067  0.5826
13793TIP3   OH262869   0.876   5.052   3.858 -0.1215 -0.2911 -0.1572
13793TIP3    H162870   0.874   5.145   3.833 -0.4976  0.0185  1.0159
13793TIP3    H262871   0.789   5.020   3.836 -0.0369 -0.3408 -0.4295
13794TIP3   OH262872   6.733   1.306   0.542  0.1035 -0.1493  0.7651
13794TIP3    H162873   6.815   1.310   0.494 -0.9731  2.5181 -1.0035
13794TIP3    H262874   6.750   1.353   0.624  0.7582 -0.8865  1.0454
13795TIP3   OH262875   1.488   0.103  12.271 -0.1919  0.0063  0.4572
13795TIP3    H162876   1.439   0.069  12.196 -0.5725 -0.2598  0.8208
13795TIP3    H262877   1.441   0.182  12.296  1.3222  1.4328 -1.0634
13796TIP3   OH262878   4.507   4.119   1.653 -0.1056  0.1835  0.1685
13796TIP3    H162879   4.414   4.136   1.647 -0.1397 -0.4459 -1.3705
13796TIP3    H262880   4.536   4.168   1.730 -2.2857 -2.1875  2.6087
13797TIP3   OH262881   2.294   2.220  15.467 -0.0899  0.0802 -0.0520
13797TIP3    H162882   2.346   2.149  15.430  1.7739  0.8606  1.0219
13797TIP3    H262883   2.238   2.249  15.395  2.2080  0.3685 -1.7755
13798TIP3   OH262884   2.631   1.554   2.726 -0.0520 -0.1089 -0.2888
13798TIP3    H162885   2.616   1.646   2.748  1.4705 -0.3532  1.9641
13798TIP3    H262886   2.724   1.549   2.705 -0.4403 -0.8765 -1.9288
13799TIP3   OH262887   2.755   1.197   2.103  0.1571 -0.2485  0.0196
13799TIP3    H162888   2.796   1.198   2.016 -1.0860 -0.8004 -0.5713
13799TIP3    H262889   2.743   1.104   2.123  1.2098 -0.1575  1.1656
13800TIP3   OH262890   5.747   3.835  13.595  0.2914 -0.6082 -0.2560
13800TIP3    H162891   5.765   3.925  13.566  0.6119 -1.0837 -1.5959
13800TIP3    H262892   5.831   3.803  13.628  1.2504 -1.7812 -3.6256
13801TIP3   OH262893   4.973   5.977   4.355 -0.0639  0.4158 -0.4363
13801TIP3    H162894   4.940   5.932   4.277 -2.1544  1.3633 -0.1313
13801TIP3    H262895   5.048   6.028   4.323 -0.5483  0.3423 -1.7085
13802TIP3   OH262896   5.000   3.652  16.641  0.2976 -0.0763 -0.6726
13802TIP3    H162897   5.026   3.631  16.731  1.2405  0.0809 -0.8955
13802TIP3    H262898   5.076   3.699  16.605 -0.0787 -0.1355 -1.5418
13803TIP3   OH262899   0.751   4.065   2.561 -0.2092  0.8908  0.3465
13803TIP3    H162900   0.731   4.043   2.470  0.7780  1.4618 -0.0204
13803TIP3    H262901   0.696   4.006   2.613  0.4747 -0.6078 -0.6054
13804TIP3   OH262902   4.397   4.075   4.164  0.2893  0.2731 -0.6518
13804TIP3    H162903   4.317   4.129   4.161  0.3076  0.6118  2.6111
13804TIP3    H262904   4.368   3.992   4.201  1.3728  0.3356  0.3743
13805TIP3   OH262905   4.122   1.363   1.887 -0.3271  0.4754  0.6224
13805TIP3    H162906   4.144   1.369   1.980  0.7039  2.5112  0.2907
13805TIP3    H262907   4.200   1.328   1.846 -0.7739 -0.3990  0.5099
13806TIP3   OH262908   4.432   4.817   1.736  0.1594  0.2991  0.1121
13806TIP3    H162909   4.358   4.779   1.784 -0.3055  0.4472 -0.4846
13806TIP3    H262910   4.406   4.814   1.644 -0.6620  3.6498  0.1611
13807TIP3   OH262911   6.247   5.054  11.083 -0.1338  0.0738 -0.3259
13807TIP3    H162912   6.254   4.958  11.077 -1.4983  0.0654 -2.0540
13807TIP3    H262913   6.169   5.068  11.137 -2.2528  0.1798 -3.3097
13808TIP3   OH262914   6.280   2.040  16.703  0.5972  0.1903 -0.0656
13808TIP3    H162915   6.340   2.051  16.777  2.1856 -0.3257 -1.2463
13808TIP3    H262916   6.260   2.129  16.675  3.3125  0.3774 -1.5988
13809TIP3   OH262917   1.077   4.181  15.735  0.5722  0.0281  0.2648
13809TIP3    H162918   1.111   4.093  15.756  0.7878  0.1679  0.5022
13809TIP3    H262919   1.144   4.219  15.678  1.2187  0.6276  1.4238
13810TIP3   OH262920   1.950   5.011   2.833  0.0401 -0.3239 -0.2252
13810TIP3    H162921   1.964   4.963   2.915 -1.5028 -1.2483 -0.4737
13810TIP3    H262922   2.036   5.045   2.809  0.7343 -1.1172  1.1167
13811TIP3   OH262923   0.532   0.106   3.353  0.0052  0.0155  0.0582
13811TIP3    H162924   0.614   0.122   3.307 -1.2121  0.8323 -1.8784
13811TIP3    H262925   0.497   0.027   3.314  0.2339 -0.7941  1.4457
13812TIP3   OH262926   0.069   0.365  16.676 -0.0089 -0.6497 -0.5387
13812TIP3    H162927   0.151   0.407  16.705 -0.1980 -1.1129  0.7028
13812TIP3    H262928   0.090   0.272  16.672 -0.8578 -0.9231  1.1480
13813TIP3   OH262929   0.223   0.493   4.674  0.0182  0.1459  0.2571
13813TIP3    H162930   0.299   0.472   4.620 -0.3200  0.9306 -0.5449
13813TIP3    H262931   0.229   0.587   4.688 -0.8962  0.2448  0.0366
13814TIP3   OH262932   4.865   3.272  12.569 -0.3391 -0.6718  0.2408
13814TIP3    H162933   4.959   3.275  12.591 -0.0413  1.2549 -1.1407
13814TIP3    H262934   4.844   3.179  12.566  1.6671 -1.1436  0.0223
13815TIP3   OH262935   3.275   0.140  17.216 -0.1088 -0.5724  0.1292
13815TIP3    H162936   3.311   0.148  17.128  0.6398  0.7454  0.5416
13815TIP3    H262937   3.196   0.087  17.204 -0.7797  0.7418 -1.5522
13816TIP3   OH262938   2.436   4.428  13.392  0.0328  0.5346  0.4433
13816TIP3    H162939   2.520   4.423  13.346 -0.5445 -0.4970 -0.5094
13816TIP3    H262940   2.406   4.518  13.377  0.3664  0.5285 -0.2970
13817TIP3   OH262941   0.277   5.821   3.549 -0.0487  0.2749  0.0729
13817TIP3    H162942   0.359   5.817   3.500  0.2143  1.9523  0.3755
13817TIP3    H262943   0.214   5.776   3.492  0.2127  2.3504 -1.9499
13818TIP3   OH262944   2.372   2.467  15.729 -0.0560 -0.5203  0.5095
13818TIP3    H162945   2.358   2.484  15.636  0.3684 -1.0251  0.3519
13818TIP3    H262946   2.416   2.546  15.761 -0.0766 -0.4041  0.2539
13819TIP3   OH262947   3.649   4.223  13.140 -1.0595  0.4031  0.2249
13819TIP3    H162948   3.651   4.305  13.189 -0.8208  0.7335 -0.3314
13819TIP3    H262949   3.567   4.182  13.166 -1.5186  1.1505 -0.0272
13820TIP3   OH262950   4.384   6.073   0.529 -0.1887 -0.7732 -0.0662
13820TIP3    H162951   4.355   6.068   0.438 -0.3185  1.0319 -0.1379
13820TIP3    H262952   4.453   6.138   0.529 -0.4406 -0.4945  1.1899
13821TIP3   OH262953   1.554   2.993  14.325  0.8985 -0.3456  0.1377
13821TIP3    H162954   1.579   3.004  14.417  1.0487  2.3302 -0.1622
13821TIP3    H262955   1.581   2.904  14.302  0.9603 -0.9904  2.6437
13822TIP3   OH262956   5.553   3.696  16.281  0.0568  0.4369 -0.4669
13822TIP3    H162957   5.513   3.647  16.353  1.8171 -0.8562 -0.3423
13822TIP3    H262958   5.514   3.783  16.287 -2.9317 -0.8445 -0.5378
13823TIP3   OH262959   2.318   3.139  10.805  0.1042 -0.3715  0.1641
13823TIP3    H162960   2.286   3.229  10.807  2.0260  0.2887  1.7181
13823TIP3    H262961   2.351   3.128  10.716  0.4702  0.6700  0.1641
13824TIP3   OH262962   0.156   1.997   0.966  0.1606  0.0943  0.0757
13824TIP3    H162963   0.130   1.926   0.907 -2.2102  1.9345 -1.2007
13824TIP3    H262964   0.080   2.055   0.969  0.9584  1.0872  3.4329
13825TIP3   OH262965   6.259   1.449  13.689  0.3614 -0.1726  0.4639
13825TIP3    H162966   6.192   1.384  13.667  0.2569 -0.1276  0.6496
13825TIP3    H262967   6.286   1.426  13.778  0.3316  0.0330  0.5267
13826TIP3   OH262968   1.995   3.893   0.674  0.6116 -0.2085  0.2278
13826TIP3    H162969   1.914   3.854   0.642  1.6846 -1.8601 -0.5550
13826TIP3    H262970   1.991   3.882   0.769  0.0272 -0.5125  0.1668
13827TIP3   OH262971   1.417   0.774  16.488  0.1065  0.9909  0.2562
13827TIP3    H162972   1.446   0.837  16.423 -1.2164  1.1278 -0.2171
13827TIP3    H262973   1.322   0.768  16.476  0.3410 -2.1365 -0.7000
13828TIP3   OH262974   3.904   6.590   5.270 -0.1609 -0.0558 -0.3287
13828TIP3    H162975   3.953   6.640   5.336  0.2198 -0.6439 -0.1638
13828TIP3    H262976   3.867   6.657   5.212 -1.0088  0.4950  0.8351
13829TIP3   OH262977   2.822   3.273  12.109 -0.0706  0.0897  0.3427
13829TIP3    H162978   2.743   3.280  12.055  1.0740  1.7138 -1.1544
13829TIP3    H262979   2.895   3.276  12.047  1.1837 -2.0884  1.6413
13830TIP3   OH262980   0.158   1.069   4.734  0.0396 -0.0864  0.0744
13830TIP3    H162981   0.143   1.163   4.745 -0.9439 -0.2631  0.3813
13830TIP3    H262982   0.213   1.061   4.657  0.6417  0.7824  0.4195
13831TIP3   OH262983   5.339   0.303  14.665  0.1001 -0.5443  0.3517
13831TIP3    H162984   5.377   0.249  14.735 -2.0470 -0.4008  1.6668
13831TIP3    H262985   5.305   0.240  14.602 -1.4589 -0.7656  1.3741
13832TIP3   OH262986   5.823   5.426   3.610 -0.0780  0.2554  0.1345
13832TIP3    H162987   5.909   5.432   3.569  0.5371 -0.5268  1.3018
13832TIP3    H262988   5.768   5.485   3.558  1.0567  0.4573 -0.8592
13833TIP3   OH262989   4.480   4.350   0.891 -0.1524  0.4560 -0.1228
13833TIP3    H162990   4.547   4.398   0.842  0.6332 -0.0487  0.4278
13833TIP3    H262991   4.418   4.320   0.824  0.0920  1.0513 -0.6250
13834TIP3   OH262992   2.100   5.980  10.284  0.5992  0.1337 -0.0898
13834TIP3    H162993   2.101   5.987  10.189 -2.6559  0.8525 -0.1221
13834TIP3    H262994   2.062   5.894  10.302  1.8161 -0.2831  0.5931
13835TIP3   OH262995   4.403   6.175   3.404 -0.8757  0.0747  0.4732
13835TIP3    H162996   4.420   6.184   3.498 -0.4420 -0.0140  0.4017
13835TIP3    H262997   4.463   6.236   3.362 -2.4964  1.6246  0.3597
13836TIP3   OH262998   6.721   1.695   5.086  0.3367  0.4638  0.1498
13836TIP3    H162999   6.728   1.619   5.028  2.3757  0.0268  0.9200
13836TIP3    H263000   6.811   1.729   5.090 -0.5957  3.0965 -0.4316
13837TIP3   OH263001   2.824   6.316   1.767  0.2192 -0.0871  0.0919
13837TIP3    H163002   2.896   6.341   1.709 -1.0978  4.6956  0.3156
13837TIP3    H263003   2.756   6.285   1.707  1.1682 -1.2438 -0.4050
13838TIP3   OH263004   2.086   4.804   2.998 -0.7672  0.1429  0.3373
13838TIP3    H163005   2.125   4.819   3.084  1.1603  1.2129 -0.6803
13838TIP3    H263006   2.143   4.738   2.957 -1.9715 -0.7515  0.0762
13839TIP3   OH263007   3.328   4.225   3.220  0.2961 -0.2890  0.0661
13839TIP3    H163008   3.340   4.135   3.189 -2.4343 -0.2503 -1.2546
13839TIP3    H263009   3.305   4.215   3.312  0.0013 -0.9741 -0.0714
13840TIP3   OH263010   4.310   1.073  15.001  0.7469  0.2266 -0.0776
13840TIP3    H163011   4.323   1.104  14.911  0.9262 -1.8655 -0.8018
13840TIP3    H263012   4.284   1.151  15.050  0.5089  1.3675 -1.9712
13841TIP3   OH263013   3.294   3.664  11.294  0.3004  0.2525 -0.0252
13841TIP3    H163014   3.223   3.728  11.296  1.0842  1.2387 -2.0441
13841TIP3    H263015   3.265   3.597  11.232  1.9916  1.7826 -2.5636
13842TIP3   OH263016   3.217   1.029  13.677  0.8381  0.1247 -0.2111
13842TIP3    H163017   3.159   1.011  13.751 -0.5238  2.1275 -0.7495
13842TIP3    H263018   3.194   0.963  13.612  0.4749 -0.2525  0.2958
13843TIP3   OH263019   5.493   1.910  13.484 -0.2151 -0.0453 -0.2366
13843TIP3    H163020   5.524   1.945  13.401 -0.7729 -0.8810 -0.7958
13843TIP3    H263021   5.438   1.980  13.520 -0.3511  0.1288 -0.7838
13844TIP3   OH263022   0.480   0.918   3.492 -0.1722  0.0854  0.2085
13844TIP3    H163023   0.421   0.856   3.534 -0.8279 -0.8647 -2.0392
13844TIP3    H263024   0.449   0.923   3.402  1.2960  1.9423 -0.2193
13845TIP3   OH263025   4.447   4.506  15.369 -0.6805 -0.3132 -0.2496
13845TIP3    H163026   4.359   4.476  15.347 -0.4709 -2.7596  2.0790
13845TIP3    H263027   4.499   4.486  15.291 -1.6657 -1.1373 -0.6942
13846TIP3   OH263028   2.696   4.144  14.311 -0.2105  0.0400 -0.0570
13846TIP3    H163029   2.682   4.050  14.318 -0.2153 -0.1336 -2.0940
13846TIP3    H263030   2.612   4.179  14.280 -0.3276  0.7797  1.0455
13847TIP3   OH263031   2.616   3.756  15.016 -0.4181  0.3446 -0.7656
13847TIP3    H163032   2.636   3.663  15.007  0.7659  0.6524 -1.5580
13847TIP3    H263033   2.556   3.775  14.944 -1.0243  0.0899 -0.3217
13848TIP3   OH263034   5.315   0.124   2.036  0.3068 -0.1360  0.3698
13848TIP3    H163035   5.271   0.039   2.040 -0.9949  0.5554  1.2884
13848TIP3    H263036   5.284   0.163   1.954  1.9496 -1.0818 -0.7242
13849TIP3   OH263037   2.163   4.213   2.510  0.4696 -0.2141  0.2510
13849TIP3    H163038   2.232   4.151   2.536  0.7815 -0.2271 -0.5894
13849TIP3    H263039   2.166   4.212   2.414 -0.7775 -0.2986  0.2119
13850TIP3   OH263040   4.790   4.780  14.267 -0.9255  0.6594  0.0026
13850TIP3    H163041   4.855   4.781  14.337 -2.8459  1.4048  1.8377
13850TIP3    H263042   4.839   4.802  14.187  1.7086 -2.3042  0.7176
13851TIP3   OH263043   3.576   0.553  11.318  0.3028  0.6680 -0.0953
13851TIP3    H163044   3.636   0.593  11.381  0.6537 -3.4148  2.3513
13851TIP3    H263045   3.632   0.525  11.246  0.7338  0.3898  0.3503
13852TIP3   OH263046   1.458   6.630  10.841 -0.8509  0.0486  0.2773
13852TIP3    H163047   1.476   6.677  10.760 -2.7473 -0.6438 -0.5751
13852TIP3    H263048   1.431   6.698  10.904 -2.4740  0.2466 -0.6127
13853TIP3   OH263049   0.175   3.660   2.719 -0.4738 -0.0220  0.4409
13853TIP3    H163050   0.162   3.610   2.638 -1.8941  0.8078  0.1316
13853TIP3    H263051   0.166   3.751   2.692  1.2121  0.3653  1.1592
13854TIP3   OH263052   5.349   2.691   0.371  0.0078  0.2129 -0.8000
13854TIP3    H163053   5.283   2.688   0.439 -0.8572  0.4814 -1.6109
13854TIP3    H263054   5.314   2.637   0.300  1.1826 -0.5851 -0.7894
13855TIP3   OH263055   4.252   4.751  13.776 -0.2055  0.0064  0.5392
13855TIP3    H163056   4.281   4.660  13.774  0.7515  0.3165  0.2518
13855TIP3    H263057   4.332   4.802  13.789 -0.6614  0.8437  0.1153
13856TIP3   OH263058   0.030   3.425  10.463 -0.1588  0.4077  0.4154
13856TIP3    H163059   0.046   3.464  10.377  1.7033  0.6135  0.8292
13856TIP3    H263060  -0.064   3.408  10.465 -0.3087  0.9457 -1.4295
13857TIP3   OH263061   1.589   5.586   4.847 -0.1964 -0.0369 -0.5278
13857TIP3    H163062   1.680   5.563   4.827 -0.3223 -1.1903  0.1608
13857TIP3    H263063   1.588   5.603   4.941 -0.6710  0.0708 -0.5503
13858TIP3   OH263064   3.989   4.657   2.274 -0.2730  0.1708  0.1822
13858TIP3    H163065   4.037   4.736   2.251  0.2460 -0.1111  0.2922
13858TIP3    H263066   3.954   4.625   2.191  2.8061 -1.6449 -0.4885
13859TIP3   OH263067   6.502   1.854   1.425  0.4920 -0.4655  0.0193
13859TIP3    H163068   6.544   1.926   1.379 -1.1886 -0.4755 -1.5886
13859TIP3    H263069   6.414   1.885   1.444  0.1434 -1.6418  0.4002
13860TIP3   OH263070   1.380   6.356   3.663  0.6124  0.1132 -0.0501
13860TIP3    H163071   1.454   6.414   3.681  0.1883  0.7565 -0.3491
13860TIP3    H263072   1.403   6.274   3.706  1.2651  0.4711  0.3001
13861TIP3   OH263073   5.829   1.376   1.732 -0.3766 -0.0629 -0.3003
13861TIP3    H163074   5.853   1.311   1.797  0.7105  0.8451  0.2171
13861TIP3    H263075   5.769   1.330   1.673  2.6683 -2.4176 -1.6827
13862TIP3   OH263076   3.397   3.759  11.601  0.0571  0.0383  0.4275
13862TIP3    H163077   3.305   3.783  11.589  0.5758  1.1621 -1.4583
13862TIP3    H263078   3.405   3.746  11.696 -0.7915  5.3436  1.3700
13863TIP3   OH263079   6.510   3.990  14.040  0.1488  0.3362  0.1488
13863TIP3    H163080   6.495   4.004  13.946  3.3064 -3.2379 -0.9762
13863TIP3    H263081   6.433   3.940  14.069 -0.6831  1.1746 -0.5716
13864TIP3   OH263082   5.061   2.526   5.514  0.0878  0.1349  0.5604
13864TIP3    H163083   5.137   2.525   5.572  3.0439 -1.9233 -3.1166
13864TIP3    H263084   5.021   2.440   5.525  0.7840 -0.3401 -0.5752
13865TIP3   OH263085   0.188   6.804   0.419 -0.1834  0.1363  0.1755
13865TIP3    H163086   0.203   6.712   0.400  0.2648  0.0640  0.8539
13865TIP3    H263087   0.101   6.823   0.382 -0.8651 -0.8980  1.2265
13866TIP3   OH263088   1.484   5.716  17.169  0.3749 -0.7131  0.2623
13866TIP3    H163089   1.425   5.657  17.121  1.0087 -0.2084 -1.1473
13866TIP3    H263090   1.565   5.666  17.179  0.8889 -0.1092 -0.8746
13867TIP3   OH263091   1.515   1.844  12.336  0.1189  0.3198  0.3793
13867TIP3    H163092   1.579   1.792  12.385 -0.4964 -0.8826 -0.0600
13867TIP3    H263093   1.549   1.844  12.246  0.4112  1.1706  0.4830
13868TIP3   OH263094   6.376   0.133   4.136 -0.2071  0.4094  0.0726
13868TIP3    H163095   6.319   0.177   4.074  0.2747  1.5071  0.4051
13868TIP3    H263096   6.461   0.127   4.091  0.0041  0.7435  0.4212
13869TIP3   OH263097   2.196   5.840  15.526 -0.1694 -0.2360  0.0963
13869TIP3    H163098   2.202   5.837  15.621 -2.0692  3.9355  0.4614
13869TIP3    H263099   2.102   5.851  15.508  0.4167  1.7663 -2.0876
13870TIP3   OH263100   3.574   4.859  11.902 -0.0025 -0.9793  0.1107
13870TIP3    H163101   3.660   4.900  11.915 -1.2446  1.7582  0.0058
13870TIP3    H263102   3.514   4.914  11.951 -1.9967 -1.6942 -1.4836
13871TIP3   OH263103   4.239   3.424  15.140 -0.1200 -0.0837  0.1118
13871TIP3    H163104   4.305   3.406  15.073  1.6121  1.9450  1.1701
13871TIP3    H263105   4.165   3.460  15.092  0.9970  1.0958 -0.7838
13872TIP3   OH263106   1.424   3.943  16.364 -0.0659 -0.1027  0.3910
13872TIP3    H163107   1.337   3.904  16.353 -0.9024  2.2331 -1.8052
13872TIP3    H263108   1.484   3.875  16.333 -1.2947 -0.6762 -0.7825
13873TIP3   OH263109   6.590   4.390   1.756  0.5423  0.6433  0.5109
13873TIP3    H163110   6.581   4.318   1.693  0.4817  0.4523  0.7352
13873TIP3    H263111   6.672   4.371   1.801  1.1052  1.3393 -0.2158
13874TIP3   OH263112   3.760   6.090  11.199 -1.2355  0.2438  0.2100
13874TIP3    H163113   3.717   6.134  11.272 -0.6217  1.2816 -0.0509
13874TIP3    H263114   3.826   6.034  11.241 -0.5792  1.1744  0.4418
13875TIP3   OH263115   1.781   2.712  15.373  0.6493 -0.1484  0.0583
13875TIP3    H163116   1.846   2.783  15.365  1.3622 -0.6393  1.2757
13875TIP3    H263117   1.729   2.718  15.293  1.3055  1.1527 -0.2923
13876TIP3   OH263118   4.054   1.976  14.250 -0.2634 -0.0203 -0.0030
13876TIP3    H163119   3.979   1.990  14.193  0.6669  1.4000 -0.8955
13876TIP3    H263120   4.086   1.889  14.227 -2.3680 -1.1810  1.2634
13877TIP3   OH263121   0.108   3.691  13.376  0.6073 -0.1608 -0.2159
13877TIP3    H163122   0.127   3.744  13.453 -0.5897  1.9344 -1.3400
13877TIP3    H263123   0.194   3.675  13.336  0.8468  2.1265 -0.6416
13878TIP3   OH263124   0.429   4.295   5.295 -0.4028  0.2876 -0.5810
13878TIP3    H163125   0.458   4.233   5.228 -0.8487 -0.7500  0.1800
13878TIP3    H263126   0.493   4.286   5.365 -1.1732 -0.2464  0.0696
13879TIP3   OH263127   0.834   5.140   5.267 -0.3960 -0.0981  0.2139
13879TIP3    H163128   0.749   5.180   5.251 -0.3036 -0.2273 -0.6726
13879TIP3    H263129   0.893   5.185   5.205 -0.4073 -1.9847 -1.2065
13880TIP3   OH263130   3.538   2.378   6.231  0.2744  0.9087  0.0487
13880TIP3    H163131   3.617   2.430   6.215  1.0628 -0.0216  0.8443
13880TIP3    H263132   3.511   2.402   6.320  0.4430  0.2286  0.2897
13881TIP3   OH263133   0.563   5.139   5.701 -0.1882 -0.2864  0.0445
13881TIP3    H163134   0.609   5.218   5.674  0.3391  0.3307  2.6244
13881TIP3    H263135   0.480   5.170   5.737 -1.0905 -1.1263 -1.2710
13882TIP3   OH263136   5.261   0.372   2.616  0.1132  0.6694  0.0616
13882TIP3    H163137   5.214   0.293   2.590 -2.6402  2.1942  0.3076
13882TIP3    H263138   5.346   0.364   2.573 -0.8413 -1.4787 -1.4995
13883TIP3   OH263139   3.059   2.953  15.045 -0.4020 -0.4632 -0.0525
13883TIP3    H163140   3.021   2.931  14.960  0.0990  0.9014 -0.6460
13883TIP3    H263141   3.068   3.049  15.044 -1.3551 -0.3278  1.9568
13884TIP3   OH263142   5.730   0.512   2.310 -0.2909 -0.1487  0.0873
13884TIP3    H163143   5.765   0.530   2.223 -1.1886  1.1024 -0.0367
13884TIP3    H263144   5.763   0.425   2.332  0.6327 -0.1241 -1.1477
13885TIP3   OH263145   0.616   6.114   2.772  0.4615 -0.8289  0.2887
13885TIP3    H163146   0.578   6.061   2.702  0.8723 -1.1684  0.3220
13885TIP3    H263147   0.555   6.104   2.846 -0.2278 -0.0843 -0.1699
13886TIP3   OH263148   0.555   3.848  10.633 -0.1985 -0.0801  0.0505
13886TIP3    H163149   0.593   3.773  10.678  3.0984  1.0058 -0.7938
13886TIP3    H263150   0.540   3.912  10.703 -0.1740 -0.3926  0.3453
13887TIP3   OH263151   5.525   6.724  15.749 -0.5985  0.0719 -0.2898
13887TIP3    H163152   5.448   6.756  15.796 -0.8190  0.3563 -0.8386
13887TIP3    H263153   5.599   6.753  15.802 -0.8250  0.8783 -0.4162
13888TIP3   OH263154   4.082   2.277  11.999 -0.0045 -0.7367 -0.1847
13888TIP3    H163155   4.103   2.367  11.976  2.5254 -1.4418 -0.8739
13888TIP3    H263156   4.033   2.244  11.923  1.4181 -0.7107 -1.1378
13889TIP3   OH263157   5.090   1.685   2.595  0.8418 -0.3837  0.2601
13889TIP3    H163158   5.120   1.637   2.518  4.1758  1.3256  0.3928
13889TIP3    H263159   5.130   1.772   2.585 -0.0201  0.3745  3.1068
13890TIP3   OH263160   3.965   6.346   6.091 -0.0712 -0.1158  0.1139
13890TIP3    H163161   3.986   6.407   6.162 -2.3402  1.9756 -0.9456
13890TIP3    H263162   3.940   6.265   6.135  2.0139  0.0077  1.5718
13891TIP3   OH263163   1.919   0.329  15.205 -0.0035  0.7042 -0.1344
13891TIP3    H163164   1.980   0.364  15.270 -2.5653  2.9170  1.2024
13891TIP3    H263165   1.936   0.381  15.126 -0.3506  1.5266  0.3259
13892TIP3   OH263166   6.026   1.592   4.142 -0.0318 -0.0867  0.2071
13892TIP3    H163167   5.966   1.606   4.215  0.8054 -0.4783  0.9738
13892TIP3    H263168   6.014   1.669   4.086 -1.7558 -0.4838 -0.0164
13893TIP3   OH263169   2.072   2.301   1.044 -0.0539  0.1462  0.3293
13893TIP3    H163170   2.127   2.322   0.968  0.0816 -0.6457  0.1939
13893TIP3    H263171   2.049   2.385   1.082  0.1833  0.5344 -0.3820
13894TIP3   OH263172   0.201   1.144  16.743  0.7092 -0.3057 -0.6317
13894TIP3    H163173   0.181   1.236  16.731 -0.7108 -0.4846  0.1797
13894TIP3    H263174   0.273   1.143  16.806  0.2372  0.2351 -0.0743
13895TIP3   OH263175   0.189   6.046   0.273 -0.5275 -0.4472  0.4791
13895TIP3    H163176   0.111   6.062   0.220 -0.5328  0.1973  0.6741
13895TIP3    H263177   0.252   6.007   0.212 -0.5181  0.3328 -0.0178
13896TIP3   OH263178   5.318   4.204  16.764  0.3208  0.2459 -0.2617
13896TIP3    H163179   5.225   4.181  16.763  0.1191  1.0215 -0.2349
13896TIP3    H263180   5.363   4.122  16.783 -0.4232  0.0256  0.6307
13897TIP3   OH263181   5.678   6.758  15.969 -0.2965 -0.3359  0.4470
13897TIP3    H163182   5.704   6.825  16.033  0.0220  0.5966 -0.6359
13897TIP3    H263183   5.631   6.692  16.021  1.3765 -0.4197  1.8999
13898TIP3   OH263184   2.365   4.461  12.860  0.0145 -0.2106  0.4896
13898TIP3    H163185   2.347   4.498  12.946  1.4274 -1.1492  1.2203
13898TIP3    H263186   2.290   4.404  12.842 -0.6837  0.6367  0.7234
13899TIP3   OH263187   0.501   0.114  14.863 -0.3066 -0.4675  0.9726
13899TIP3    H163188   0.502   0.019  14.860 -1.5402 -0.4946  1.0422
13899TIP3    H263189   0.426   0.135  14.919  1.0266  0.5096  2.4306
13900TIP3   OH263190   6.348   3.949  11.997 -0.5325  0.4760  0.2287
13900TIP3    H163191   6.343   3.975  12.089 -2.0371  1.8273 -0.2128
13900TIP3    H263192   6.259   3.961  11.964  0.5632  2.6416 -2.1026
13901TIP3   OH263193   5.470   0.789  14.384 -0.5706  0.2828  0.5100
13901TIP3    H163194   5.451   0.743  14.466  0.1206 -0.5196  0.2237
13901TIP3    H263195   5.553   0.835  14.400 -0.0443 -0.4787  0.0255
13902TIP3   OH263196   2.246   0.345   5.274  0.3309 -0.0927  0.0452
13902TIP3    H163197   2.165   0.294   5.277 -0.6212  1.3321 -0.5496
13902TIP3    H263198   2.316   0.280   5.266 -0.7686 -1.3313  0.4474
13903TIP3   OH263199   4.309   1.265   2.757  0.1423  0.0196  0.4512
13903TIP3    H163200   4.292   1.172   2.774  0.2221 -0.2034 -0.6585
13903TIP3    H263201   4.290   1.276   2.664  0.1326  1.1189  0.5814
13904TIP3   OH263202   3.312   4.040   0.356 -0.4338 -0.7073 -0.5247
13904TIP3    H163203   3.233   4.031   0.303 -2.3653  0.3256  2.0683
13904TIP3    H263204   3.300   3.977   0.427  1.1824 -0.6789 -0.2141
13905TIP3   OH263205   4.760   5.754   5.351  0.5829  0.0774 -0.2767
13905TIP3    H163206   4.798   5.707   5.277  0.6815  0.3211 -0.3816
13905TIP3    H263207   4.692   5.696   5.384 -0.9729  0.9142 -1.9423
13906TIP3   OH263208   5.789   2.233   6.410  0.2965 -0.0150  0.2469
13906TIP3    H163209   5.714   2.279   6.448 -0.5451 -0.8086 -0.4245
13906TIP3    H263210   5.797   2.269   6.322  1.8924  1.4169  0.9540
13907TIP3   OH263211   3.391   1.231  13.534  0.0349 -0.1504 -0.4167
13907TIP3    H163212   3.308   1.184  13.532  1.0324 -1.9450 -1.7080
13907TIP3    H263213   3.442   1.186  13.601  0.1998  0.5343 -0.0787
13908TIP3   OH263214   6.521   3.627   4.275 -0.2776  0.0857 -0.2741
13908TIP3    H163215   6.477   3.712   4.277  1.7156  1.1179  1.3010
13908TIP3    H263216   6.597   3.638   4.331  0.3493 -2.5779 -0.5372
13909TIP3   OH263217   6.462   4.658   0.890 -0.0162 -0.8099 -0.1631
13909TIP3    H163218   6.523   4.590   0.861  0.5457 -0.5641  0.4376
13909TIP3    H263219   6.377   4.628   0.858  0.4004 -1.1969 -0.9410
13910TIP3   OH263220   6.074   1.308  15.978 -0.7087 -0.5987  0.0840
13910TIP3    H163221   6.082   1.330  16.071  0.9039 -0.7550 -0.0180
13910TIP3    H263222   6.152   1.345  15.937 -0.8627 -1.5009 -1.0385
13911TIP3   OH263223   0.416   4.549   1.454  0.2857 -0.6977 -0.1008
13911TIP3    H163224   0.439   4.462   1.422  1.5158 -0.5442  0.3732
13911TIP3    H263225   0.470   4.609   1.402 -0.1025 -0.2457  0.0099
13912TIP3   OH263226   5.369   5.387   2.779  0.1077  0.1786  0.2111
13912TIP3    H163227   5.291   5.334   2.793  0.3537  0.2993  2.1544
13912TIP3    H263228   5.436   5.325   2.752 -0.6061  0.0547 -1.3183
13913TIP3   OH263229   3.251   4.903   1.601  0.1225  0.2573 -0.3012
13913TIP3    H163230   3.222   4.943   1.519  1.1015  2.8957  0.5576
13913TIP3    H263231   3.173   4.862   1.638 -0.9591  1.4758 -1.2135
13914TIP3   OH263232   3.332   3.818   2.807 -0.3072 -0.2992 -0.0483
13914TIP3    H163233   3.250   3.862   2.785  0.3029  0.9755  0.1804
13914TIP3    H263234   3.330   3.809   2.902  0.3831  0.9047  0.0935
13915TIP3   OH263235   1.353   5.376  15.645  0.0832 -0.1379 -0.5059
13915TIP3    H163236   1.442   5.352  15.619 -0.1054  1.0354 -2.3718
13915TIP3    H263237   1.334   5.455  15.594 -1.5208  0.4186  0.9113
13916TIP3   OH263238   0.655   0.796  11.845 -0.4751  0.5603 -0.0422
13916TIP3    H163239   0.678   0.704  11.861  1.3093  1.0161  0.1078
13916TIP3    H263240   0.611   0.824  11.926 -0.2146  0.0955  0.2630
13917TIP3   OH263241   6.794   2.724   6.116  0.2670  0.2674  0.3189
13917TIP3    H163242   6.884   2.698   6.099 -0.3061 -0.2682 -2.1249
13917TIP3    H263243   6.796   2.820   6.115  0.7382  0.2526 -0.0600
13918TIP3   OH263244   6.211   1.482  14.084 -0.2375 -0.3349 -0.3439
13918TIP3    H163245   6.156   1.405  14.102 -0.1164  0.1694  2.3976
13918TIP3    H263246   6.292   1.445  14.049 -0.6523 -1.3777 -0.2382
13919TIP3   OH263247   6.525   3.917   0.431  0.2500  0.5214  0.1674
13919TIP3    H163248   6.525   3.836   0.379  1.4198  0.7915 -0.2618
13919TIP3    H263249   6.615   3.949   0.426  0.0314  1.3117  1.1897
13920TIP3   OH263250   4.486   5.753   2.518 -0.3570 -0.0897  0.1551
13920TIP3    H163251   4.492   5.677   2.575  1.3491  0.1204  0.2827
13920TIP3    H263252   4.507   5.828   2.574 -0.2902  0.2905 -0.3652
13921TIP3   OH263253   2.291   1.682   0.938 -0.0441 -0.2496 -0.1992
13921TIP3    H163254   2.380   1.661   0.967 -0.2755 -1.9398 -0.6267
13921TIP3    H263255   2.237   1.667   1.016  0.0037  0.4113 -0.0414
13922TIP3   OH263256   5.909   2.432  15.748  0.0637 -0.2097  0.4104
13922TIP3    H163257   5.902   2.478  15.664 -1.0022 -1.6816 -0.3376
13922TIP3    H263258   6.002   2.411  15.756  0.6771  2.5859  1.0719
13923TIP3   OH263259   3.682   1.123  11.206 -0.8060  0.6640  0.1263
13923TIP3    H163260   3.638   1.054  11.254 -3.2888  2.0886 -0.0454
13923TIP3    H263261   3.652   1.114  11.115  1.5561 -0.1734 -0.6061
13924TIP3   OH263262   3.753   2.105  13.908 -0.1214  0.5591 -1.0524
13924TIP3    H163263   3.712   2.108  13.821  1.3602 -0.3040 -1.7887
13924TIP3    H263264   3.821   2.173  13.905 -0.1194  0.5806 -0.5370
13925TIP3   OH263265   1.423   6.631  11.176  0.9498  0.2113  0.5390
13925TIP3    H163266   1.376   6.564  11.227  2.1253  0.8042  2.4448
13925TIP3    H263267   1.354   6.678  11.130  0.1114 -2.6089 -1.2579
13926TIP3   OH263268   3.714   2.282  11.777  0.2367  0.0423 -0.4022
13926TIP3    H163269   3.651   2.210  11.782  0.3932  0.0075  1.3204
13926TIP3    H263270   3.684   2.345  11.842  0.9326  0.8892 -0.8812
13927TIP3   OH263271   2.912   3.225   0.571  0.0382 -0.2240 -0.5487
13927TIP3    H163272   2.846   3.157   0.557  0.3114 -0.0248 -3.0002
13927TIP3    H263273   2.876   3.278   0.643  0.0536 -3.1868  1.7441
13928TIP3   OH263274   5.771   3.064  16.678  1.0875  0.5861 -0.0850
13928TIP3    H163275   5.739   2.979  16.650 -0.5621  0.8737  0.8813
13928TIP3    H263276   5.696   3.123  16.667  2.5397  2.2020 -1.9067
13929TIP3   OH263277   1.847   5.944  14.158  0.2296 -0.0797  0.1236
13929TIP3    H163278   1.938   5.971  14.148 -0.4580  3.0022  1.4552
13929TIP3    H263279   1.825   5.969  14.248 -1.9831 -0.5940 -0.2432
13930TIP3   OH263280   2.173   4.336  14.638 -0.1525  0.3217 -0.7515
13930TIP3    H163281   2.123   4.414  14.612  0.8591  1.4109  0.5299
13930TIP3    H263282   2.259   4.348  14.597  0.5960  0.7761  0.9258
13931TIP3   OH263283   0.235   1.558   0.265  0.2685 -0.6532 -0.1977
13931TIP3    H163284   0.206   1.521   0.182  0.4162  1.6782 -1.3162
13931TIP3    H263285   0.216   1.651   0.258  0.7954 -0.3284  2.1738
13932TIP3   OH263286   4.872   4.100  13.346 -0.8259 -0.3297 -0.1471
13932TIP3    H163287   4.887   4.051  13.427 -0.6440  0.3574  0.2387
13932TIP3    H263288   4.824   4.178  13.374  0.3515  0.5480 -0.5065
13933TIP3   OH263289   0.113   1.398  16.695  0.1217 -0.5756 -0.5130
13933TIP3    H163290   0.084   1.449  16.771 -1.8748  1.6834 -2.6942
13933TIP3    H263291   0.033   1.381  16.646  1.4932 -1.1488 -2.6160
13934TIP3   OH263292   5.836   5.198  14.284  0.3666  0.4063 -0.4404
13934TIP3    H163293   5.928   5.221  14.294  0.6255 -1.8119  3.0433
13934TIP3    H263294   5.838   5.117  14.232  0.3151  0.8042 -1.0671
13935TIP3   OH263295   1.790   1.458  12.467  0.0160  0.7015 -0.3321
13935TIP3    H163296   1.798   1.507  12.549  1.7438  0.9973 -0.6477
13935TIP3    H263297   1.713   1.403  12.479  0.8244 -0.0256  1.9073
13936TIP3   OH263298   3.611   6.064   0.755  0.4771  0.2305  0.1664
13936TIP3    H163299   3.646   5.976   0.741  1.3178  0.6519 -0.4279
13936TIP3    H263300   3.638   6.086   0.844  0.8991  0.1665  0.0580
13937TIP3   OH263301   6.374   0.376  14.813 -0.3194  0.4283  0.2226
13937TIP3    H163302   6.334   0.307  14.760  1.0291 -0.1045 -0.1190
13937TIP3    H263303   6.356   0.351  14.904 -3.3655  1.7756  0.0610
13938TIP3   OH263304   2.687   1.454  16.161  0.2030 -0.2960 -0.3345
13938TIP3    H163305   2.699   1.372  16.209 -0.7960 -0.3807 -0.2157
13938TIP3    H263306   2.668   1.426  16.071  1.6433 -0.1466 -0.7024
13939TIP3   OH263307   4.211   4.074   4.576  0.4507  0.3321 -0.1081
13939TIP3    H163308   4.254   3.989   4.573  0.4305  0.3399 -0.5983
13939TIP3    H263309   4.267   4.127   4.633 -0.5752 -0.5894  1.8144
13940TIP3   OH263310   3.402   1.994  13.224 -0.7406  0.1606  0.1198
13940TIP3    H163311   3.418   1.912  13.178  0.8948  0.7487 -0.3765
13940TIP3    H263312   3.362   2.051  13.159 -0.1515  0.3703 -0.0626
13941TIP3   OH263313   1.081   2.670   3.680  0.8507 -0.8440 -0.6098
13941TIP3    H163314   1.155   2.674   3.619  0.9803  1.3144 -0.3587
13941TIP3    H263315   1.122   2.670   3.766  0.5864  0.6069 -0.4656
13942TIP3   OH263316   4.798   5.962  11.542 -0.2406 -0.4998 -0.4599
13942TIP3    H163317   4.880   6.009  11.526  1.2405 -3.2932 -1.5666
13942TIP3    H263318   4.802   5.936  11.634  0.0953 -0.6018 -0.5029
13943TIP3   OH263319   1.277   0.805  13.277 -0.9566 -0.1315 -0.2214
13943TIP3    H163320   1.341   0.753  13.229  0.3185  0.6276  0.6345
13943TIP3    H263321   1.318   0.891  13.287 -2.7770  0.8923 -1.0966
13944TIP3   OH263322   4.583   1.632   0.166  0.2470 -0.2329 -0.0550
13944TIP3    H163323   4.651   1.696   0.144 -0.3706  0.2688 -0.4856
13944TIP3    H263324   4.502   1.682   0.166 -0.1958 -0.9532 -0.0823
13945TIP3   OH263325   2.836   1.162   1.059 -0.3968  0.3018  0.0490
13945TIP3    H163326   2.839   1.191   0.968  0.1793  0.8411  0.2309
13945TIP3    H263327   2.861   1.240   1.109 -0.5411 -0.0415  0.6526
13946TIP3   OH263328   1.412   6.412  16.485  0.2059  0.1359  0.4088
13946TIP3    H163329   1.486   6.442  16.434 -1.6341 -1.0558 -3.0884
13946TIP3    H263330   1.383   6.332  16.442 -3.1426  0.5857  1.6296
13947TIP3   OH263331   1.176   4.832   5.663 -0.0445 -0.0622 -0.1469
13947TIP3    H163332   1.254   4.800   5.709 -0.2275 -1.2470 -0.6619
13947TIP3    H263333   1.124   4.754   5.646 -1.1618  0.6748 -0.1735
13948TIP3   OH263334   5.235   0.940  15.832  0.2355 -0.2356 -0.3654
13948TIP3    H163335   5.281   1.009  15.881 -0.7715  1.0181 -1.1507
13948TIP3    H263336   5.232   0.866  15.892  1.1824  0.4577  0.5598
13949TIP3   OH263337   4.654   2.005   3.421 -0.4636 -0.3358  0.5175
13949TIP3    H163338   4.591   1.981   3.488 -1.8720 -0.8042 -0.9269
13949TIP3    H263339   4.642   1.938   3.353 -0.3229  1.1151 -0.9603
13950TIP3   OH263340   2.197   0.079  11.789  0.7564  0.1226  0.3275
13950TIP3    H163341   2.102   0.069  11.795  0.6099  0.3719 -1.2815
13950TIP3    H263342   2.226   0.085  11.879 -1.0677  2.9517  0.7849
13951TIP3   OH263343   3.570   0.052   1.116  0.2270 -0.0667 -0.5185
13951TIP3    H163344   3.531   0.050   1.203  1.8725  1.2372  0.2847
13951TIP3    H263345   3.514   0.111   1.066  0.0669  0.2937  0.0758
13952TIP3   OH263346   0.928   3.907   6.561 -0.6020 -0.1564 -0.4244
13952TIP3    H163347   0.995   3.909   6.492 -1.1390  0.2483 -0.9355
13952TIP3    H263348   0.929   3.816   6.592 -0.4506 -0.3707 -1.0528
13953TIP3   OH263349   1.084   4.706   1.329 -0.1318  0.1412  0.1212
13953TIP3    H163350   1.049   4.769   1.266  0.9793  0.4797 -0.1683
13953TIP3    H263351   1.179   4.719   1.327  0.2238 -2.2838 -0.7272
13954TIP3   OH263352   4.879   5.563  13.971  0.1367  0.4940  0.3023
13954TIP3    H163353   4.811   5.528  13.913 -0.8101  0.5291  1.3736
13954TIP3    H263354   4.903   5.488  14.026 -0.1309  0.8800  0.9486
13955TIP3   OH263355   3.305   0.724   2.768 -0.1287  0.3645  0.6134
13955TIP3    H163356   3.400   0.731   2.766 -0.1105  0.8231  2.1526
13955TIP3    H263357   3.276   0.768   2.688  0.9134  0.9585  0.5524
13956TIP3   OH263358   6.166   2.349  10.857 -0.1546 -0.1781 -0.6855
13956TIP3    H163359   6.128   2.435  10.880  2.4958  0.9598 -0.4061
13956TIP3    H263360   6.236   2.370  10.796  1.9020 -1.9311  0.9951
13957TIP3   OH263361   3.425   5.054  12.027  0.1563 -0.5095 -0.0179
13957TIP3    H163362   3.359   5.074  11.961  1.8860  0.0068 -1.6404
13957TIP3    H263363   3.439   5.136  12.075 -0.7784 -0.7709  0.7166
13958TIP3   OH263364   5.225   0.324  15.661  0.5605  0.3622 -0.5228
13958TIP3    H163365   5.297   0.301  15.603 -0.2388 -0.1309 -1.3248
13958TIP3    H263366   5.248   0.411  15.695  1.3658  0.3521 -1.0291
13959TIP3   OH263367   0.890   5.818  14.124 -0.4901  0.1327 -0.5107
13959TIP3    H163368   0.809   5.866  14.142 -0.7553 -0.0337 -1.2500
13959TIP3    H263369   0.933   5.868  14.055  0.1909  0.3887  0.1020
13960TIP3   OH263370   5.471   3.459   1.772 -0.0193 -0.2735  0.0711
13960TIP3    H163371   5.503   3.421   1.690 -1.3156  0.2587 -0.7041
13960TIP3    H263372   5.376   3.453   1.765 -0.1720  1.1370  0.8946
13961TIP3   OH263373   3.259   5.964  10.437  0.5737 -0.5811 -0.4411
13961TIP3    H163374   3.235   5.880  10.398  1.0401 -0.9044 -0.0335
13961TIP3    H263375   3.354   5.967  10.432  0.7715 -1.3315  2.0669
13962TIP3   OH263376   2.675   0.377   4.208 -0.9019  0.4992 -0.2609
13962TIP3    H163377   2.602   0.334   4.164 -0.9948  0.3423  0.0449
13962TIP3    H263378   2.733   0.305   4.235 -0.6389  0.6223 -0.4984
13963TIP3   OH263379   2.206   5.942   5.778  0.5008  0.0772  0.4524
13963TIP3    H163380   2.280   5.963   5.836  1.8116  0.0337 -1.1834
13963TIP3    H263381   2.246   5.925   5.693 -1.2897 -1.2313 -0.1480
13964TIP3   OH263382   5.153   3.247  15.525  0.2948  0.2721  0.3514
13964TIP3    H163383   5.181   3.314  15.463  0.4514  0.4085  0.5657
13964TIP3    H263384   5.063   3.226  15.501  0.9917 -1.0786 -1.1410
13965TIP3   OH263385   2.040   0.058   0.107  0.1140 -0.3665 -0.3228
13965TIP3    H163386   2.022  -0.030   0.075  3.8248 -1.9675  1.5815
13965TIP3    H263387   2.064   0.108   0.030 -1.0576 -1.2877 -1.2990
13966TIP3   OH263388   0.744   5.382  13.580  0.3594 -0.2281 -0.2867
13966TIP3    H163389   0.800   5.311  13.612  2.2886  1.1774 -0.4739
13966TIP3    H263390   0.749   5.449  13.647  0.0585  0.5254 -1.0048
13967TIP3   OH263391   4.081   3.121  10.517  0.2812  0.2055  0.4427
13967TIP3    H163392   4.043   3.040  10.485 -1.2801  1.0811  0.0243
13967TIP3    H263393   4.025   3.146  10.591  1.4553  0.2823  1.3150
13968TIP3   OH263394   6.274   3.590   3.287  0.1095  0.1543  0.2029
13968TIP3    H163395   6.369   3.583   3.280  0.0250 -0.6765 -0.1345
13968TIP3    H263396   6.247   3.629   3.204  0.0206 -0.9175 -0.2732
13969TIP3   OH263397   6.421   1.590   3.417 -0.0527  0.5445 -0.4732
13969TIP3    H163398   6.478   1.525   3.375  0.2252  0.7284 -0.3807
13969TIP3    H263399   6.339   1.585   3.368 -0.8098 -1.4717  0.9410
13970TIP3   OH263400   3.317   3.325  12.887 -0.3226 -0.3418 -0.6361
13970TIP3    H163401   3.363   3.295  12.808  0.9347 -1.7905  0.6047
13970TIP3    H263402   3.388   3.343  12.950 -1.3257  0.4139  0.2870
13971TIP3   OH263403   0.153   1.239  11.310  0.3147 -0.7945  0.3513
13971TIP3    H163404   0.091   1.166  11.313  0.2458 -0.6805  2.7255
13971TIP3    H263405   0.179   1.252  11.402 -0.9092  3.1754  0.2170
13972TIP3   OH263406   5.362   2.534   2.260 -0.2889  0.0740 -0.2752
13972TIP3    H163407   5.393   2.591   2.330 -0.3704 -0.5769  0.3036
13972TIP3    H263408   5.377   2.445   2.294  1.1606 -0.2720 -1.7115
13973TIP3   OH263409   5.194   2.530  13.447 -0.0382  0.5971  0.0645
13973TIP3    H163410   5.127   2.534  13.515  1.0087 -1.2621  1.2324
13973TIP3    H263411   5.145   2.534  13.365 -1.4857  0.4280  0.9036
13974TIP3   OH263412   4.575   6.499   3.551 -0.1737  0.4717  0.2113
13974TIP3    H163413   4.572   6.471   3.459  1.3583 -1.8052  0.8281
13974TIP3    H263414   4.623   6.582   3.549  1.7703 -0.6439 -0.8198
13975TIP3   OH263415   2.494   1.593   0.501 -0.4039 -0.7837 -0.8233
13975TIP3    H163416   2.512   1.512   0.549 -1.6487 -1.6015 -1.7026
13975TIP3    H263417   2.399   1.606   0.510 -0.1809  0.7307 -0.4575
13976TIP3   OH263418   6.397   2.248  13.548 -0.3155 -0.0991  0.2959
13976TIP3    H163419   6.409   2.166  13.501 -0.5875  0.2865 -0.4492
13976TIP3    H263420   6.456   2.241  13.623 -1.5807 -1.6755  1.1695
13977TIP3   OH263421   0.024   3.327   3.367 -0.3050  0.2542  0.2281
13977TIP3    H163422  -0.015   3.240   3.362  0.5244 -0.1711  1.0468
13977TIP3    H263423   0.068   3.339   3.283 -0.1182 -0.2691  0.2509
13978TIP3   OH263424   2.602   1.643   3.815 -0.3372 -0.4324 -0.3781
13978TIP3    H163425   2.585   1.681   3.900 -3.9137 -1.7926 -0.4053
13978TIP3    H263426   2.569   1.707   3.752  1.4497  0.1570 -0.7480
13979TIP3   OH263427   4.377   3.090  15.751  0.6033 -0.2374 -0.1611
13979TIP3    H163428   4.339   3.005  15.731 -0.1273  0.2874 -1.0384
13979TIP3    H263429   4.401   3.126  15.666 -0.0227  0.8614  0.1162
13980TIP3   OH263430   1.156   4.234   2.109  0.2017  0.4928 -0.6277
13980TIP3    H163431   1.078   4.287   2.125 -0.1830 -0.4671  0.6558
13980TIP3    H263432   1.228   4.298   2.109 -0.4948  1.2900 -1.1696
13981TIP3   OH263433   0.331   3.026  11.738  0.7371 -1.0903 -0.4062
13981TIP3    H163434   0.403   2.979  11.696 -0.0551 -1.4954 -1.3155
13981TIP3    H263435   0.267   2.958  11.759  0.4189 -0.6717 -0.0011
13982TIP3   OH263436   3.308   0.653  15.216 -0.0126  0.0559 -0.6856
13982TIP3    H163437   3.331   0.560  15.210  0.1849  0.0981 -0.5565
13982TIP3    H263438   3.392   0.699  15.219 -0.0934  0.3391 -2.3667
13983TIP3   OH263439   1.219   1.596  15.107 -0.2055 -0.0359  0.7663
13983TIP3    H163440   1.269   1.668  15.146  0.1276 -0.5628  1.3210
13983TIP3    H263441   1.285   1.532  15.081 -0.5400 -0.3808  0.7596
13984TIP3   OH263442   5.632   0.135   0.725  0.2760  0.9470 -0.0289
13984TIP3    H163443   5.666   0.114   0.812  1.6270 -0.2445 -0.8343
13984TIP3    H263444   5.695   0.196   0.688 -2.4668  4.8464  1.4088
13985TIP3   OH263445   0.459   4.954  16.883 -0.1611  0.0346  0.0379
13985TIP3    H163446   0.500   4.877  16.920  1.0418  0.7585  0.2382
13985TIP3    H263447   0.365   4.935  16.886  0.0752 -1.0411  0.8986
13986TIP3   OH263448   4.733   3.808   1.508  0.9195  0.4953  0.6161
13986TIP3    H163449   4.753   3.716   1.487  0.9544  1.1620 -2.5762
13986TIP3    H263450   4.789   3.828   1.583  1.2870 -1.9383  1.0451
13987TIP3   OH263451   4.373   4.770   1.462 -0.7154  0.5024  0.3446
13987TIP3    H163452   4.357   4.848   1.408 -1.0880  1.0211  1.1895
13987TIP3    H263453   4.317   4.703   1.425  0.0752  0.4494 -0.7882
13988TIP3   OH263454   3.555   0.934   2.470 -0.0704  0.6901 -0.1296
13988TIP3    H163455   3.516   0.892   2.393 -0.6491 -1.5439  1.3406
13988TIP3    H263456   3.638   0.889   2.482  0.4821  1.7299 -0.0240
13989TIP3   OH263457   6.080   2.454   3.036  1.3042  0.2754  0.0159
13989TIP3    H163458   6.091   2.492   3.123 -1.3631  0.0188  0.5106
13989TIP3    H263459   5.999   2.403   3.042  1.7544 -0.7847 -2.2609
13990TIP3   OH263460   6.366   4.168  13.604  0.7169 -0.3697  0.0882
13990TIP3    H163461   6.304   4.241  13.612  0.8950 -0.0520 -1.3827
13990TIP3    H263462   6.422   4.176  13.681  1.9319  2.1891 -1.0221
13991TIP3   OH263463   1.551   1.227  14.681 -0.2564 -0.7365 -0.0747
13991TIP3    H163464   1.489   1.281  14.632  0.3906  0.6352  0.5651
13991TIP3    H263465   1.637   1.249  14.645  0.1422 -0.3625  1.0550
13992TIP3   OH263466   2.611   2.920   0.699  0.1978  0.2318  0.0273
13992TIP3    H163467   2.594   3.004   0.743 -0.4256 -0.7271  1.6484
13992TIP3    H263468   2.528   2.899   0.656 -0.1364 -0.3137  0.9280
13993TIP3   OH263469   4.834   4.220  12.565 -0.1542  0.0710 -0.8377
13993TIP3    H163470   4.855   4.137  12.607  2.1676  0.2329 -1.5605
13993TIP3    H263471   4.756   4.202  12.512  0.3960 -1.6855 -1.0728
13994TIP3   OH263472   2.228   2.936   0.161 -0.5490 -0.0055 -0.1891
13994TIP3    H163473   2.292   2.953   0.092 -1.5704  0.7296 -0.9708
13994TIP3    H263474   2.254   2.852   0.198  1.7159  0.9582  0.4622
13995TIP3   OH263475   5.008   6.357  12.422  0.1801  0.3193 -1.0668
13995TIP3    H163476   5.076   6.332  12.485  0.7886  0.8071 -1.5240
13995TIP3    H263477   5.056   6.379  12.343 -0.4032  2.1145 -0.9406
13996TIP3   OH263478   0.643   0.127   4.197 -0.2112  0.0607  0.1373
13996TIP3    H163479   0.655   0.042   4.156 -0.1858  0.6262 -1.0481
13996TIP3    H263480   0.729   0.169   4.191 -0.8943  1.2390 -1.7589
13997TIP3   OH263481   1.224   5.990   2.388 -0.1261  0.2123 -0.1611
13997TIP3    H163482   1.191   5.920   2.330  0.7029 -0.5956  0.3316
13997TIP3    H263483   1.146   6.038   2.414 -0.6100  0.0337 -1.2401
13998TIP3   OH263484   4.524   5.882   6.374 -0.0986  0.0033 -0.2423
13998TIP3    H163485   4.432   5.864   6.395 -0.4633  1.6412 -0.3721
13998TIP3    H263486   4.527   5.976   6.357  1.2467 -0.3426 -2.1045
13999TIP3   OH263487   2.974   3.724  12.991 -0.7120 -0.0494 -0.0162
13999TIP3    H163488   2.909   3.752  12.927 -0.7061 -0.7425 -0.3391
13999TIP3    H263489   2.924   3.700  13.068 -0.6723  1.3761  0.4695
14000TIP3   OH263490   2.511   0.512   3.789 -0.2052 -0.6412  0.3384
14000TIP3    H163491   2.541   0.553   3.708 -0.8238 -0.2569  0.2980
14000TIP3    H263492   2.498   0.420   3.767 -2.0446 -0.2046 -0.4621
14001TIP3   OH263493   0.190   3.844  11.746  1.1127  0.1790  0.0714
14001TIP3    H163494   0.286   3.835  11.750  0.9544 -1.3508  0.9218
14001TIP3    H263495   0.175   3.938  11.752  2.5201  0.3442  1.5290
14002TIP3   OH263496   4.680   6.551  16.589 -0.1743  0.5500  0.2660
14002TIP3    H163497   4.701   6.615  16.658  0.4274  0.2065  0.4021
14002TIP3    H263498   4.701   6.466  16.627  0.3393  0.3728 -0.4126
14003TIP3   OH263499   2.619   5.860  11.788 -0.0283  0.0000  0.3600
14003TIP3    H163500   2.560   5.917  11.737  1.1450  1.6496  0.8253
14003TIP3    H263501   2.563   5.787  11.815 -1.7818  1.3266  0.4418
14004TIP3   OH263502   3.318   0.556   3.227  0.0898 -0.2228 -0.2309
14004TIP3    H163503   3.384   0.489   3.210  2.0723  1.6845 -0.1046
14004TIP3    H263504   3.249   0.539   3.162  1.0281 -1.7397 -0.8510
14005TIP3   OH263505   5.525   3.715   3.969  0.4345 -0.2145  0.7194
14005TIP3    H163506   5.609   3.701   3.925  0.0933  2.8575 -1.0460
14005TIP3    H263507   5.539   3.792   4.024 -1.2906  0.4091  0.2979
14006TIP3   OH263508   6.082   3.956  15.341  0.3502 -0.1491 -0.7244
14006TIP3    H163509   5.989   3.953  15.361  0.7425  1.0157  1.4255
14006TIP3    H263510   6.111   4.041  15.373  2.3340 -0.8686 -0.5107
14007TIP3   OH263511   4.725   5.547  16.428  0.3058  0.1911  0.5487
14007TIP3    H163512   4.689   5.580  16.346  1.3049  1.0656  0.4426
14007TIP3    H263513   4.805   5.501  16.402  1.4869  1.8281  1.1491
14008TIP3   OH263514   3.217   4.785   0.022  0.3937  0.0325 -0.0838
14008TIP3    H163515   3.253   4.697   0.028  1.6709  0.4450 -1.3995
14008TIP3    H263516   3.214   4.803  -0.072 -0.9460  0.9603  0.1145
14009TIP3   OH263517   2.915   5.008  11.241  0.2148  0.2646  0.9220
14009TIP3    H163518   2.894   5.100  11.228 -0.9605 -0.2396 -0.9882
14009TIP3    H263519   2.842   4.972  11.291 -0.3610 -0.0734 -0.1447
14010TIP3   OH263520   3.036   0.983  13.892  0.8596 -0.0013  0.3305
14010TIP3    H163521   2.991   0.926  13.954 -0.1707  0.6638  0.2116
14010TIP3    H263522   3.048   1.066  13.939  0.8253  0.2309 -0.0617
14011TIP3   OH263523   1.193   6.395   0.707  0.1600  0.1290 -0.0912
14011TIP3    H163524   1.176   6.383   0.613  0.3426 -0.2842 -0.0719
14011TIP3    H263525   1.123   6.454   0.736 -0.0058  0.1135 -0.4480
14012TIP3   OH263526   2.837   1.021   3.387  0.0735  0.1629  0.5450
14012TIP3    H163527   2.848   0.937   3.343  1.1630  0.0425  1.0373
14012TIP3    H263528   2.762   1.007   3.445 -2.6580  0.9116 -2.6161
14013TIP3   OH263529   0.868   2.257  12.235 -0.6287  0.1584  0.1309
14013TIP3    H163530   0.951   2.213  12.219  0.6926  2.3102  0.9315
14013TIP3    H263531   0.859   2.318  12.161 -1.0788  0.5329  0.4937
14014TIP3   OH263532   1.031   4.359  16.313 -0.2860  0.2327 -0.0628
14014TIP3    H163533   0.995   4.432  16.362 -0.7363  0.5991 -0.9332
14014TIP3    H263534   1.047   4.394  16.225  0.0987 -0.5327 -0.3088
14015TIP3   OH263535   0.369   3.734   4.020  0.1182 -0.5658  0.0393
14015TIP3    H163536   0.431   3.706   3.952 -0.8834  0.1348 -1.1687
14015TIP3    H263537   0.412   3.809   4.061 -0.3356  0.4864 -1.4064
14016TIP3   OH263538   6.186   4.277  16.593  0.5115 -0.0048  0.3703
14016TIP3    H163539   6.244   4.279  16.670 -2.8136  1.3196  2.9758
14016TIP3    H263540   6.156   4.187  16.588 -0.1821  0.1604  1.3946
14017TIP3   OH263541   3.061   1.405   2.774  0.4181 -0.0928 -0.1228
14017TIP3    H163542   3.156   1.410   2.784  0.5732 -1.4395 -0.7673
14017TIP3    H263543   3.041   1.312   2.787 -0.5967 -0.1314 -1.7802
14018TIP3   OH263544   0.136   4.297  14.506  0.4609 -0.0167 -0.5583
14018TIP3    H163545   0.094   4.233  14.564  2.0516 -0.9624 -0.4323
14018TIP3    H263546   0.074   4.307  14.433 -1.1506  0.5191  0.8426
14019TIP3   OH263547   4.624   2.400   4.051 -0.1957  0.4719 -0.3818
14019TIP3    H163548   4.692   2.446   4.100  0.4489 -0.1771 -0.6617
14019TIP3    H263549   4.671   2.333   4.002 -1.0177  0.1480 -0.7307
14020TIP3   OH263550   6.791   3.585  12.028 -0.1741  0.2003 -0.1142
14020TIP3    H163551   6.703   3.613  12.055  0.1308  1.9858 -0.8962
14020TIP3    H263552   6.848   3.657  12.054  0.8040 -0.1737 -1.1973
14021TIP3   OH263553   0.270   1.629   3.205 -0.2611  0.1952 -0.1136
14021TIP3    H163554   0.352   1.655   3.164  1.0276  0.5737  2.6248
14021TIP3    H263555   0.243   1.551   3.157  2.5231 -0.8761 -0.0296
14022TIP3   OH263556   3.367   5.983   1.336  0.0581 -0.1128  0.3374
14022TIP3    H163557   3.420   6.062   1.322 -1.8415  1.0974 -0.2310
14022TIP3    H263558   3.285   6.016   1.372 -0.9588 -1.8106 -0.4077
14023TIP3   OH263559   0.213   6.257   3.074  1.1845  0.5064  0.4255
14023TIP3    H163560   0.224   6.240   3.167  0.9311 -0.1014  0.3503
14023TIP3    H263561   0.181   6.174   3.038  0.0456  1.0994  0.0127
14024TIP3   OH263562   4.754   3.404   0.327  0.5774  0.5462  0.2542
14024TIP3    H163563   4.747   3.456   0.407 -0.4366  0.0869  0.4810
14024TIP3    H263564   4.847   3.406   0.304  0.5124  2.7142  0.0789
14025TIP3   OH263565   4.941   3.670   5.864 -0.0989 -0.3360  0.2191
14025TIP3    H163566   5.015   3.613   5.844 -0.3103 -1.0532  1.4515
14025TIP3    H263567   4.981   3.750   5.899  0.1293 -0.4091  0.1260
14026TIP3   OH263568   1.369   0.568   0.448  0.4029 -0.3478 -0.0729
14026TIP3    H163569   1.275   0.577   0.437  0.5918  0.8527 -0.8177
14026TIP3    H263570   1.398   0.655   0.477  1.1060 -1.0544  1.3908
14027TIP3   OH263571   0.887   0.282   5.433  0.3978  0.0062 -0.2025
14027TIP3    H163572   0.934   0.358   5.401 -0.1612  0.7596  0.7659
14027TIP3    H263573   0.934   0.255   5.512  1.1182 -1.1880 -1.0215
14028TIP3   OH263574   2.838   5.242  15.609  0.0985 -0.6212  0.9089
14028TIP3    H163575   2.778   5.207  15.542  1.0959  0.6028 -0.6608
14028TIP3    H263576   2.865   5.165  15.659  1.6614 -2.0677 -2.0068
14029TIP3   OH263577   1.170   2.318   4.825 -0.4583 -0.1235  0.9346
14029TIP3    H163578   1.133   2.395   4.781 -1.0464 -0.4318  0.8905
14029TIP3    H263579   1.217   2.355   4.900  1.3880  0.4908 -0.4937
14030TIP3   OH263580   0.411   2.657   6.818 -0.1760 -0.1105  0.8925
14030TIP3    H163581   0.376   2.572   6.845  0.2555 -0.5196  0.1626
14030TIP3    H263582   0.505   2.652   6.836 -0.1633  0.2493  0.9370
14031TIP3   OH263583   6.608   0.438  13.681 -0.4006  0.6876  0.4965
14031TIP3    H163584   6.603   0.515  13.737  0.1502  0.7945  0.4052
14031TIP3    H263585   6.527   0.390  13.699 -0.5448  1.0656  0.8743
14032TIP3   OH263586   6.278   0.987   4.362  0.6688  0.0582 -0.6008
14032TIP3    H163587   6.315   0.898   4.370  0.6335 -0.0056 -1.1053
14032TIP3    H263588   6.259   0.996   4.268 -0.9932 -0.0619 -0.2875
14033TIP3   OH263589   4.098   0.830  16.838 -0.2711  0.2667  0.3386
14033TIP3    H163590   4.163   0.896  16.860 -0.4722  1.0520 -1.3564
14033TIP3    H263591   4.014   0.877  16.841 -0.3376  0.3055 -1.6497
14034TIP3   OH263592   4.625   6.483   5.518 -0.0340 -0.6545  0.6141
14034TIP3    H163593   4.665   6.402   5.486  0.3943 -0.3747  0.4339
14034TIP3    H263594   4.698   6.534   5.553 -0.2039 -0.0509  0.0945
14035TIP3   OH263595   0.153   6.185  16.390 -0.0592 -0.1024 -0.0360
14035TIP3    H163596   0.128   6.179  16.482  1.2450  0.9720  0.3932
14035TIP3    H263597   0.217   6.115  16.377  0.8255  0.6536  0.2301
14036TIP3   OH263598   1.090   0.155   5.095 -0.1306 -0.1761  0.1490
14036TIP3    H163599   1.115   0.243   5.068 -2.0272  0.0515 -0.9523
14036TIP3    H263600   1.142   0.097   5.040  3.1592  0.1632  2.7440
14037TIP3   OH263601   1.354   5.090   1.055  0.7834  0.1117 -0.8117
14037TIP3    H163602   1.433   5.043   1.079  0.6631  1.8258  3.4982
14037TIP3    H263603   1.283   5.027   1.070  1.0562 -0.1365 -0.5553
14038TIP3   OH263604   6.470   5.547   0.616 -0.3185  0.7899  0.2459
14038TIP3    H163605   6.540   5.542   0.682 -2.2359  0.8121  2.3428
14038TIP3    H263606   6.430   5.632   0.630  0.2457  1.4757 -2.0529
14039TIP3   OH263607   4.562   4.031   1.182 -0.0262  0.3475  0.1785
14039TIP3    H163608   4.636   4.055   1.125  0.9534 -1.7005  0.5491
14039TIP3    H263609   4.569   3.936   1.192 -1.2761  0.4372  2.2106
14040TIP3   OH263610   5.414   2.961  14.950 -0.2873 -0.3722 -0.3046
14040TIP3    H163611   5.410   2.884  15.007  1.1628 -0.4974 -0.3581
14040TIP3    H263612   5.413   2.924  14.861 -2.9376 -0.1612 -0.3972
14041TIP3   OH263613   6.794   2.668  12.675  0.1535  0.2833 -0.0517
14041TIP3    H163614   6.796   2.721  12.596  1.5252  1.9690  1.0728
14041TIP3    H263615   6.802   2.578  12.644  0.3977  0.8952 -1.8303
14042TIP3   OH263616   5.111   0.838   6.620 -0.4937 -0.2158  0.0002
14042TIP3    H163617   5.149   0.752   6.602  0.0872  0.1214 -0.3938
14042TIP3    H263618   5.023   0.819   6.651 -0.9887 -0.8876 -1.7577
14043TIP3   OH263619   0.935   6.511  15.224 -0.0144 -0.1061 -0.3337
14043TIP3    H163620   0.966   6.564  15.150  0.4461  1.2225  0.8067
14043TIP3    H263621   0.839   6.517  15.217  0.0268  1.7846  0.4138
14044TIP3   OH263622   5.648   2.427  14.316 -0.4167  0.5901 -0.6379
14044TIP3    H163623   5.742   2.409  14.312 -0.5388 -0.3759  0.3774
14044TIP3    H263624   5.622   2.398  14.404 -1.3531  2.3822 -0.3061
14045TIP3   OH263625   6.032   5.525   1.412 -0.0308  0.0760  0.2884
14045TIP3    H163626   6.033   5.575   1.493 -1.1472 -1.6403  1.4096
14045TIP3    H263627   5.977   5.576   1.353  1.2689  1.6338  0.4009
14046TIP3   OH263628   6.244   0.140  14.219 -0.4988  0.3417 -0.1513
14046TIP3    H163629   6.240   0.208  14.151  0.6867 -1.4581 -2.0859
14046TIP3    H263630   6.315   0.167  14.276 -0.0867  0.7792 -0.8656
14047TIP3   OH263631   0.166   0.103   0.137 -0.6593  0.2618 -0.2214
14047TIP3    H163632   0.126   0.102   0.223 -0.2968  1.0147 -0.0454
14047TIP3    H263633   0.222   0.025   0.136  0.9609  1.3689  0.9994
14048TIP3   OH263634   5.069   3.858  16.958 -0.2539 -0.2528  0.4121
14048TIP3    H163635   5.076   3.763  16.964  0.0432 -0.2216  0.5918
14048TIP3    H263636   5.159   3.889  16.965 -0.3003  0.0144 -0.1693
14049TIP3   OH263637   5.182   6.259  15.656 -0.1000 -0.5616  0.3116
14049TIP3    H163638   5.186   6.318  15.731  0.0177 -1.1316  0.7571
14049TIP3    H263639   5.152   6.314  15.584 -0.6236 -0.1078  0.8707
14050TIP3   OH263640   5.361   1.796   1.558  0.3816  0.4970  0.2731
14050TIP3    H163641   5.406   1.867   1.510  2.2573 -1.9308 -1.7258
14050TIP3    H263642   5.415   1.782   1.635  0.3012  0.8889  0.4032
14051TIP3   OH263643   5.366   4.428   4.837 -0.3249  0.2152 -0.4704
14051TIP3    H163644   5.311   4.378   4.898  0.2335  0.4099  0.1940
14051TIP3    H263645   5.324   4.415   4.752 -0.0436 -1.5800 -0.3434
14052TIP3   OH263646   6.806   4.656   2.850  0.1534 -0.4287 -0.3292
14052TIP3    H163647   6.844   4.595   2.913  0.6905 -0.3548 -0.5814
14052TIP3    H263648   6.862   4.733   2.855 -1.9290  1.0131  1.7705
14053TIP3   OH263649   5.748   4.527  16.642  0.0373 -0.2010 -0.2729
14053TIP3    H163650   5.779   4.452  16.591 -2.1942  0.3839 -2.5856
14053TIP3    H263651   5.797   4.601  16.606  0.3039 -0.1469  0.1964
14054TIP3   OH263652   4.729   5.976  12.346 -0.7882 -0.5246 -0.0110
14054TIP3    H163653   4.657   5.975  12.284  1.0521  2.4657 -2.3323
14054TIP3    H263654   4.808   5.966  12.292  0.7406  0.0694  2.0358
14055TIP3   OH263655   3.976   0.200  12.524  0.8675  0.9317 -0.3054
14055TIP3    H163656   4.040   0.193  12.594 -0.6415  0.3813  1.0538
14055TIP3    H263657   4.008   0.142  12.455  1.2624 -0.1788  0.8050
14056TIP3   OH263658   3.186   4.776   0.872 -0.0099  0.0210 -0.1583
14056TIP3    H163659   3.128   4.806   0.802 -0.3160 -2.1734 -0.8974
14056TIP3    H263660   3.149   4.692   0.899  2.3280 -1.0301 -0.0843
14057TIP3   OH263661   1.968   3.322  11.411 -0.4436  0.2839  0.1697
14057TIP3    H163662   1.877   3.304  11.386 -0.8866  0.7639  1.4257
14057TIP3    H263663   2.012   3.337  11.327 -1.5079  0.0215 -0.4588
14058TIP3   OH263664   6.179   1.717   5.640 -0.3598 -0.1018  0.4745
14058TIP3    H163665   6.118   1.726   5.713  0.0548  0.3870  0.7656
14058TIP3    H263666   6.215   1.805   5.627  0.3554 -0.4012  0.3704
14059TIP3   OH263667   5.098   4.637   4.015 -0.5271  0.4562  0.1732
14059TIP3    H163668   5.010   4.662   3.984  0.2042  0.9846 -1.5316
14059TIP3    H263669   5.137   4.591   3.941  0.7431  0.4471  0.8350
14060TIP3   OH263670   4.626   3.922   0.791  0.5541  0.1204 -0.0194
14060TIP3    H163671   4.534   3.909   0.767  0.3550  1.0258  0.2147
14060TIP3    H263672   4.646   3.848   0.850  0.4060 -0.8669 -1.1964
14061TIP3   OH263673   6.067   1.107  15.787  0.2038 -0.7881 -0.7260
14061TIP3    H163674   6.055   1.167  15.860  2.4496 -0.0816 -0.9024
14061TIP3    H263675   6.044   1.021  15.823 -1.4263 -0.0769 -0.0168
14062TIP3   OH263676   5.579   4.865   3.346 -0.8903 -0.2118  0.2443
14062TIP3    H163677   5.567   4.793   3.285 -1.4572 -1.3326  1.6612
14062TIP3    H263678   5.561   4.828   3.433 -1.5628  1.6906  0.9696
14063TIP3   OH263679   6.470   3.338   4.694 -0.0181 -0.2124  0.1492
14063TIP3    H163680   6.499   3.373   4.778 -1.3755  0.6775  0.2562
14063TIP3    H263681   6.393   3.389   4.672  0.5950 -0.1116 -1.8838
14064TIP3   OH263682   4.783   5.124  14.807 -0.1782  0.5990  0.0617
14064TIP3    H163683   4.857   5.139  14.867  1.0623  0.0827 -1.3069
14064TIP3    H263684   4.765   5.030  14.815  1.2595  0.1493 -1.7936
14065TIP3   OH263685   0.173   4.260  16.039  0.6637 -0.6745  0.3102
14065TIP3    H163686   0.218   4.251  16.123  1.8248 -1.7765 -0.4066
14065TIP3    H263687   0.241   4.292  15.979  0.7205 -3.0008 -0.9481
14066TIP3   OH263688   6.287   6.098   3.711  0.3162  0.1182 -0.7096
14066TIP3    H163689   6.202   6.055   3.717 -0.1045  0.9900 -0.4636
14066TIP3    H263690   6.348   6.036   3.751 -0.7809  1.1541  2.7405
14067TIP3   OH263691   0.397   3.401  13.376 -0.6285  0.5036 -0.1608
14067TIP3    H163692   0.320   3.422  13.428 -0.5730  0.4710 -0.0653
14067TIP3    H263693   0.363   3.388  13.287 -0.5548  1.7950 -0.3839
14068TIP3   OH263694   5.229   6.243  12.661 -0.0148  0.2478  0.2132
14068TIP3    H163695   5.150   6.274  12.705 -0.0780  2.5006 -1.4168
14068TIP3    H263696   5.242   6.154  12.695 -2.2322  0.4967  1.8184
14069TIP3   OH263697   0.484   0.521   0.526 -0.3658  0.4039  0.6081
14069TIP3    H163698   0.445   0.608   0.540 -1.7416 -0.4451  2.2154
14069TIP3    H263699   0.470   0.503   0.434  0.1907  2.0185  0.1861
14070TIP3   OH263700   2.661   5.953  16.846  0.2801  0.3425 -0.4945
14070TIP3    H163701   2.670   6.031  16.901  0.0515 -0.8126  1.2016
14070TIP3    H263702   2.663   5.879  16.907 -0.3579 -0.9506 -1.9881
14071TIP3   OH263703   1.275   6.647   2.818  0.4152 -0.0582  0.0073
14071TIP3    H163704   1.364   6.675   2.794  1.5001 -1.6861  1.9617
14071TIP3    H263705   1.266   6.560   2.780  0.6448 -0.9662  1.9624
14072TIP3   OH263706   4.055   5.512   3.497  0.6259 -0.8321  0.5339
14072TIP3    H163707   4.008   5.475   3.422  0.8662 -0.4452  0.1908
14072TIP3    H263708   4.145   5.524   3.466  1.0592 -1.9946  1.3339
14073TIP3   OH263709   4.962   3.261   6.076  0.3730 -0.4638 -0.1734
14073TIP3    H163710   4.938   3.170   6.095  0.1791 -0.1690  1.0554
14073TIP3    H263711   5.035   3.279   6.136  0.2036  0.2832 -0.1923
14074TIP3   OH263712   4.249   0.952  13.632  0.2244 -0.1585  0.2195
14074TIP3    H163713   4.158   0.926  13.644  0.9212 -2.0797  1.4779
14074TIP3    H263714   4.248   1.047  13.643 -2.1727  0.3482 -3.3019
14075TIP3   OH263715   2.186   0.118  11.355 -0.3224 -0.1688 -0.3069
14075TIP3    H163716   2.134   0.108  11.275 -2.2276  1.0056  0.7252
14075TIP3    H263717   2.121   0.112  11.425  1.6664 -3.8918  1.3088
14076TIP3   OH263718   1.768   1.647  11.921  0.2932 -0.9125  0.6229
14076TIP3    H163719   1.765   1.665  12.015  3.4047 -1.6326  0.9132
14076TIP3    H263720   1.861   1.655  11.898 -0.3811 -1.0892 -2.3273
14077TIP3   OH263721   6.481   1.498   4.533  0.3645 -0.4417  0.0510
14077TIP3    H163722   6.397   1.515   4.575  0.4930  1.1168 -0.2805
14077TIP3    H263723   6.543   1.491   4.605  0.5525  2.0165  0.1635
14078TIP3   OH263724   5.294   4.941  12.174  0.0693  0.6952  0.2641
14078TIP3    H163725   5.353   4.954  12.101  0.6517  1.5951  0.8855
14078TIP3    H263726   5.244   5.023  12.179  0.0889  0.6681  0.9157
14079TIP3   OH263727   2.796   0.962  13.694  0.6711 -0.1386 -0.0811
14079TIP3    H163728   2.883   0.983  13.726  0.4865 -3.5806  3.0119
14079TIP3    H263729   2.801   0.870  13.669 -2.2861 -0.6904  1.1237
14080TIP3   OH263730   0.354   6.684   0.200  0.7612  0.4794 -0.4057
14080TIP3    H163731   0.313   6.620   0.141  1.5535  1.7586 -2.4236
14080TIP3    H263732   0.439   6.646   0.221 -0.0010 -0.5320  0.9002
14081TIP3   OH263733   5.765   4.701  15.302  0.2538  0.2749 -0.1951
14081TIP3    H163734   5.783   4.689  15.209 -0.0270 -2.0378  0.0179
14081TIP3    H263735   5.676   4.737  15.304 -0.7337 -1.9952 -0.7936
14082TIP3   OH263736   0.211   3.434  12.582  0.3821  0.5660 -0.1529
14082TIP3    H163737   0.199   3.345  12.549 -1.2344  0.1759  1.4124
14082TIP3    H263738   0.184   3.490  12.509 -0.0899 -0.2383 -0.6052
14083TIP3   OH263739   6.461   2.419  16.040 -0.0636 -0.5738 -0.3817
14083TIP3    H163740   6.498   2.507  16.030 -0.8485 -0.4792 -2.7088
14083TIP3    H263741   6.367   2.433  16.051 -0.1488 -1.1238 -0.3901
14084TIP3   OH263742   5.825   0.981  17.196  0.4511  0.4196  0.7728
14084TIP3    H163743   5.779   0.941  17.270  0.3340  0.6495  0.8246
14084TIP3    H263744   5.762   1.044  17.160  0.2083 -0.2760 -0.0277
14085TIP3   OH263745   5.868   1.605   2.049  0.2190  0.0127  0.7208
14085TIP3    H163746   5.915   1.688   2.039  1.3330 -0.7504 -0.5393
14085TIP3    H263747   5.778   1.631   2.069  0.4103  1.5534 -0.3146
14086TIP3   OH263748   0.213   0.802  16.103 -0.3052  0.1149  0.0881
14086TIP3    H163749   0.299   0.823  16.067 -0.6538  0.9339 -0.2633
14086TIP3    H263750   0.226   0.719  16.149  0.3408 -0.5003 -1.1910
14087TIP3   OH263751   3.247   3.404  12.552 -0.1270 -0.7406 -0.6873
14087TIP3    H163752   3.190   3.328  12.566 -1.0468  0.0622  0.0374
14087TIP3    H263753   3.336   3.370  12.562 -0.5715 -1.5174  0.6713
14088TIP3   OH263754   2.033   5.437   0.550  0.2353 -0.3595 -0.0019
14088TIP3    H163755   2.035   5.366   0.486 -0.9449 -1.0198  0.6882
14088TIP3    H263756   1.999   5.512   0.502  0.5590 -0.5080 -0.4714
14089TIP3   OH263757   4.352   0.023  12.910 -1.1755  0.1979 -0.0732
14089TIP3    H163758   4.339  -0.065  12.873 -0.4787  0.7192 -1.5728
14089TIP3    H263759   4.264   0.052  12.933 -1.2259 -1.7577  2.5228
14090TIP3   OH263760   0.191   1.772   6.572  0.2295 -0.1733 -0.2494
14090TIP3    H163761   0.165   1.857   6.607 -0.9903 -1.4572  2.0563
14090TIP3    H263762   0.108   1.730   6.547  0.5013 -1.9357  1.6300
14091TIP3   OH263763   1.666   1.976  13.049 -0.2648 -1.0490  0.4025
14091TIP3    H163764   1.589   2.007  13.097 -1.4435 -0.6226 -1.6980
14091TIP3    H263765   1.721   2.054  13.039 -0.0925 -1.1039  0.9297
14092TIP3   OH263766   4.687   3.677   0.886  0.7168 -0.4457 -0.2676
14092TIP3    H163767   4.684   3.590   0.926 -0.6442 -1.5529 -2.6744
14092TIP3    H263768   4.766   3.676   0.832  2.2392  0.8448  1.8640
14093TIP3   OH263769   4.049   6.784   3.924  0.2846  0.6276 -0.4956
14093TIP3    H163770   4.104   6.771   3.847 -0.1964  0.5527 -0.8290
14093TIP3    H263771   4.048   6.699   3.968 -1.9437 -0.2373 -2.0720
14094TIP3   OH263772   3.584   4.091   5.666 -0.1893  0.1439 -0.4154
14094TIP3    H163773   3.655   4.090   5.731 -0.2716 -0.8916 -0.3302
14094TIP3    H263774   3.624   4.129   5.588  0.0601  0.9111  0.0758
14095TIP3   OH263775   3.519   5.105   1.518  0.4316  0.5583  0.0029
14095TIP3    H163776   3.613   5.095   1.506  0.0101 -1.7049 -1.7535
14095TIP3    H263777   3.489   5.148   1.438 -0.2939 -0.5789 -0.3491
14096TIP3   OH263778   1.320   4.120   6.282 -0.1422  0.2107 -0.6656
14096TIP3    H163779   1.403   4.083   6.312 -1.3938 -0.6623  1.9091
14096TIP3    H263780   1.345   4.198   6.233  2.1574  0.4782  0.8412
14097TIP3   OH263781   6.417   4.886   3.301 -0.3244 -0.0018 -0.1203
14097TIP3    H163782   6.378   4.871   3.387 -2.4768  0.2766 -1.0068
14097TIP3    H263783   6.423   4.798   3.262 -0.2575 -0.0294 -0.0452
14098TIP3   OH263784   6.058   6.355  13.210 -0.2883 -0.3381 -0.1528
14098TIP3    H163785   6.138   6.355  13.262  0.9141  1.3993 -1.9338
14098TIP3    H263786   6.061   6.437  13.162 -3.5992  0.1749  0.4058
14099TIP3   OH263787   2.764   4.122   0.029 -0.1775 -0.0119 -0.2491
14099TIP3    H163788   2.795   4.143   0.117 -2.4931 -1.6935  1.0139
14099TIP3    H263789   2.826   4.056  -0.003  0.4586  0.3345  0.2664
14100TIP3   OH263790   1.029   1.789   3.813  0.5542 -0.3781  0.0629
14100TIP3    H163791   0.945   1.743   3.814  1.0598 -1.3082  0.7112
14100TIP3    H263792   1.008   1.877   3.781 -0.3861 -1.1218 -1.4166
14101TIP3   OH263793   4.004   3.259  13.792 -0.4465  0.0759 -0.0485
14101TIP3    H163794   4.073   3.210  13.747 -1.4717 -0.6134 -0.9012
14101TIP3    H263795   3.966   3.315  13.723 -0.6664  0.5322  0.4390
14102TIP3   OH263796   3.854   6.177  15.919 -0.0169 -0.0871 -0.7818
14102TIP3    H163797   3.940   6.153  15.953  0.1689  1.5707 -0.0513
14102TIP3    H263798   3.796   6.106  15.949  1.0519 -1.1501 -1.1906
14103TIP3   OH263799   3.855   2.984   0.702 -0.2169  0.3254 -0.2869
14103TIP3    H163800   3.889   2.919   0.641 -0.7665  1.2061 -1.5519
14103TIP3    H263801   3.800   2.934   0.762  0.2722 -0.5390 -0.5488
14104TIP3   OH263802   5.962   0.820   1.180  0.0671  0.5032  0.0579
14104TIP3    H163803   5.930   0.783   1.262 -0.4937 -1.0817 -0.8580
14104TIP3    H263804   6.025   0.887   1.207  0.8416 -0.8782  1.7607
14105TIP3   OH263805   0.542   3.499  15.654  0.1507  0.2676  0.0561
14105TIP3    H163806   0.448   3.516  15.644 -0.6206 -2.0695  2.8905
14105TIP3    H263807   0.576   3.576  15.699 -0.6594  0.4668  0.3204
14106TIP3   OH263808   0.026   5.154  15.187 -0.0760  0.8470  0.1785
14106TIP3    H163809   0.071   5.199  15.258  2.0514 -0.5537 -0.2254
14106TIP3    H263810  -0.022   5.223  15.141  1.0824  2.2715  1.0772
14107TIP3   OH263811   4.676   6.341  14.115  0.3619  0.1643 -0.4591
14107TIP3    H163812   4.758   6.310  14.153  0.7451 -0.4421 -1.7344
14107TIP3    H263813   4.654   6.274  14.050  0.0357  1.4647 -1.6991
14108TIP3   OH263814   0.232   0.110  14.379  1.0065 -0.4417 -0.3726
14108TIP3    H163815   0.316   0.155  14.374  0.8766 -0.1657 -0.1598
14108TIP3    H263816   0.170   0.171  14.339  0.5147  0.3986  1.5739
14109TIP3   OH263817   3.789   3.219   3.643  0.1039  0.2406 -0.5164
14109TIP3    H163818   3.717   3.164   3.612  0.5092  0.2132 -1.4124
14109TIP3    H263819   3.824   3.171   3.719 -0.9009  0.3273  0.0032
14110TIP3   OH263820   5.237   4.095  15.460 -0.1232 -0.0776  0.4863
14110TIP3    H163821   5.219   4.044  15.381 -2.2421  0.3703  0.6291
14110TIP3    H263822   5.163   4.156  15.466  1.3556  1.6594  1.3914
14111TIP3   OH263823   3.257   0.618   0.148 -0.4666 -0.4734 -0.3721
14111TIP3    H163824   3.182   0.638   0.203 -0.1442  0.0377 -0.1175
14111TIP3    H263825   3.303   0.548   0.195 -0.5336 -0.4756 -0.3089
14112TIP3   OH263826   3.656   1.781   2.540 -0.3853 -0.0741 -0.2312
14112TIP3    H163827   3.722   1.792   2.609  0.1796  0.3065 -0.8264
14112TIP3    H263828   3.697   1.818   2.462 -1.3057  0.1423 -0.6102
14113TIP3   OH263829   2.928   5.064   6.316 -0.2250 -0.2756 -0.5167
14113TIP3    H163830   3.007   5.117   6.329 -0.7451  0.1913  0.8714
14113TIP3    H263831   2.960   4.980   6.282  0.6913  0.5821 -1.8647
14114TIP3   OH263832   3.454   2.277   3.429  0.7454 -0.1854  0.1220
14114TIP3    H163833   3.525   2.308   3.372  1.1056 -1.0041  0.1141
14114TIP3    H263834   3.426   2.355   3.477  3.0134 -0.2045  1.6007
14115TIP3   OH263835   2.454   5.562  13.721  0.2378 -0.1119  0.7142
14115TIP3    H163836   2.549   5.555  13.715  0.3030 -0.4400  1.9479
14115TIP3    H263837   2.434   5.530  13.809 -0.9600  0.5212  0.6705
14116TIP3   OH263838   5.532   1.332   3.681  0.6428 -0.0117 -0.4151
14116TIP3    H163839   5.475   1.353   3.607  1.0606  0.5412 -0.5835
14116TIP3    H263840   5.495   1.252   3.718  0.5744 -0.4303 -1.3725
14117TIP3   OH263841   0.050   1.689   5.629 -0.2405  0.2023 -0.1887
14117TIP3    H163842   0.145   1.679   5.624 -0.0850  0.4962  1.7872
14117TIP3    H263843   0.015   1.613   5.583  0.9477 -1.4791  1.6153
14118TIP3   OH263844   4.036   0.978   3.246 -0.3533 -0.2016  0.1169
14118TIP3    H163845   3.991   0.999   3.328 -0.0259 -1.2504  0.5766
14118TIP3    H263846   4.034   0.882   3.242  1.9529 -0.2881  0.2223
14119TIP3   OH263847   5.131   0.525   3.328  0.5547 -0.2813  0.1241
14119TIP3    H163848   5.219   0.488   3.320  0.5615 -0.0590 -0.9635
14119TIP3    H263849   5.144   0.619   3.318  0.3081 -0.1608  0.9449
14120TIP3   OH263850   4.731   3.180  15.873 -0.2234  0.1099 -0.2888
14120TIP3    H163851   4.670   3.253  15.863  0.9331  0.8523 -2.2980
14120TIP3    H263852   4.794   3.210  15.940 -0.2533  0.6037 -0.4800
14121TIP3   OH263853   2.730   5.504   0.220  0.6266 -0.6127  0.0106
14121TIP3    H163854   2.678   5.568   0.270 -0.0554 -1.7973  0.8388
14121TIP3    H263855   2.689   5.420   0.240  1.3952 -1.2863 -1.2451
14122TIP3   OH263856   3.435   6.052   3.093  0.0099  0.0395  0.2618
14122TIP3    H163857   3.442   5.975   3.150 -2.2296  0.5598  1.2776
14122TIP3    H263858   3.342   6.074   3.094  0.3370  1.6005 -1.5882
14123TIP3   OH263859   5.905   2.639  13.051 -0.6718 -0.5268 -0.0292
14123TIP3    H163860   5.862   2.705  12.996 -0.9461  0.9811  1.9537
14123TIP3    H263861   5.928   2.685  13.131  4.1918 -1.4194 -0.7466
14124TIP3   OH263862   2.414   5.549  16.959 -0.0010 -0.1524 -0.5373
14124TIP3    H163863   2.427   5.641  16.983 -1.2852 -0.8030  2.9693
14124TIP3    H263864   2.473   5.501  17.018  0.5746 -1.5837 -2.2555
14125TIP3   OH263865   5.357   5.390  12.277 -0.4300 -0.1234 -0.1078
14125TIP3    H163866   5.430   5.434  12.321  0.4521 -1.0085 -0.6721
14125TIP3    H263867   5.299   5.462  12.250  1.7695  0.8388 -2.3933
14126TIP3   OH263868   1.207   4.289  11.946  0.1605 -0.0770  0.0292
14126TIP3    H163869   1.151   4.266  12.019 -0.9084  1.2786 -0.3317
14126TIP3    H263870   1.272   4.349  11.983  1.1289 -1.3318  0.3654
14127TIP3   OH263871   6.480   2.533   0.699 -0.0165  0.0549  0.3124
14127TIP3    H163872   6.515   2.454   0.741  0.5156  0.1198 -0.0074
14127TIP3    H263873   6.476   2.597   0.770  0.5139  0.0458  0.3556
14128TIP3   OH263874   2.015   1.237   3.741 -0.8030 -0.8416 -0.1480
14128TIP3    H163875   2.056   1.211   3.824  1.4482  0.2146 -0.9141
14128TIP3    H263876   2.031   1.163   3.682  2.0788  0.5053 -1.1276
14129TIP3   OH263877   1.750   5.344  11.176 -0.4631 -0.5164 -0.6683
14129TIP3    H163878   1.745   5.321  11.084 -0.1468 -0.5465 -0.6810
14129TIP3    H263879   1.689   5.285  11.220 -0.5645 -0.5443 -0.8496
14130TIP3   OH263880   1.484   6.396  16.965  0.2885  0.2290  0.4631
14130TIP3    H163881   1.543   6.471  16.958  2.7110 -1.5996  0.3723
14130TIP3    H263882   1.460   6.393  17.057 -0.3075  1.4511  0.3568
14131TIP3   OH263883   6.557   6.454  16.561  0.4540  0.5646  0.4720
14131TIP3    H163884   6.643   6.443  16.521  0.5085  2.2789  0.0968
14131TIP3    H263885   6.499   6.402  16.506  0.9031  1.1203 -0.5471
14132TIP3   OH263886   4.837   4.996  12.951  0.4510  0.1811  0.1759
14132TIP3    H163887   4.931   5.012  12.959  0.7008 -0.7946 -0.7319
14132TIP3    H263888   4.797   5.069  12.998  1.6497  0.7815  0.3007
14133TIP3   OH263889   2.396   4.834  11.504 -0.7638 -0.1588  1.3104
14133TIP3    H163890   2.444   4.904  11.547 -2.6974  1.4054  1.0172
14133TIP3    H263891   2.344   4.794  11.573 -2.8224  1.4605  0.7698
14134TIP3   OH263892   0.594   3.143  11.849 -0.7244  0.4360  0.4832
14134TIP3    H163893   0.609   3.237  11.839 -0.6988  0.4934  1.0410
14134TIP3    H263894   0.500   3.132  11.836 -0.4639  0.3053 -1.3137
14135TIP3   OH263895   1.141   5.103   5.804  0.1293  0.3891 -0.1477
14135TIP3    H163896   1.186   5.022   5.783 -0.0663  0.0673  0.6331
14135TIP3    H263897   1.050   5.087   5.783  0.3064  0.9013 -1.3416
14136TIP3   OH263898   1.814   3.991  16.460 -0.1395  0.1341 -0.0320
14136TIP3    H163899   1.869   4.036  16.395  0.6748 -1.7118 -0.6515
14136TIP3    H263900   1.875   3.934  16.507 -1.2535 -0.7315  0.3766
14137TIP3   OH263901   0.503   5.617   5.158 -0.3001 -0.3647 -0.0262
14137TIP3    H163902   0.453   5.554   5.211  1.7866 -2.8057 -0.8665
14137TIP3    H263903   0.547   5.673   5.223 -0.7095 -0.9445  0.7627
14138TIP3   OH263904   3.534   1.145   1.140  0.0743 -0.5529 -0.1232
14138TIP3    H163905   3.614   1.101   1.169 -0.3240 -2.5202 -1.8848
14138TIP3    H263906   3.486   1.077   1.092 -1.6858  1.1769 -0.8535
14139TIP3   OH263907   4.394   1.967  14.631  0.2549 -0.1182  0.0218
14139TIP3    H163908   4.390   1.956  14.726  1.4637  1.8650  0.3456
14139TIP3    H263909   4.304   1.983  14.604 -0.1317 -0.9613  0.7818
14140TIP3   OH263910   1.408   3.852  12.401  0.2759  0.4476  0.3751
14140TIP3    H163911   1.381   3.845  12.309 -1.1225  2.6725  0.5712
14140TIP3    H263912   1.463   3.775  12.416  0.3554 -0.0590 -2.2674
14141TIP3   OH263913   0.069   2.119  14.835 -0.2199  0.0034  0.1254
14141TIP3    H163914   0.132   2.048  14.824  1.2014  0.6849  3.3778
14141TIP3    H263915   0.043   2.141  14.745  3.5329 -0.8708 -1.2826
14142TIP3   OH263916   2.002   6.044   0.853 -0.0695 -0.0036  0.4971
14142TIP3    H163917   1.998   6.072   0.945  1.4337  0.6361  0.3909
14142TIP3    H263918   2.013   5.949   0.858 -1.5813 -0.1646  0.9394
14143TIP3   OH263919   4.179   2.806  13.807 -0.2586  0.4667  0.1740
14143TIP3    H163920   4.159   2.846  13.892 -0.9318  1.1072 -0.2788
14143TIP3    H263921   4.115   2.735  13.798 -0.1369  0.3485  0.2371
14144TIP3   OH263922   6.466   3.365   5.190  1.0650  0.2371  0.4429
14144TIP3    H163923   6.386   3.319   5.164  1.2525  0.2555 -0.1743
14144TIP3    H263924   6.524   3.295   5.220  0.1439  0.3941  2.7280
14145TIP3   OH263925   2.027   3.852   3.003  0.6459 -0.1948  0.1361
14145TIP3    H163926   1.956   3.907   2.971  0.5145  0.3490  1.3183
14145TIP3    H263927   1.983   3.777   3.044  0.7782 -0.2703  0.1414
14146TIP3   OH263928   4.909   2.169  16.897  0.0704  0.1929  0.3335
14146TIP3    H163929   4.968   2.110  16.945 -0.1086  1.9857  2.8464
14146TIP3    H263930   4.947   2.174  16.809  2.1237 -0.8146  1.1181
14147TIP3   OH263931   0.468   5.755  14.137  0.2899  0.2890  0.3926
14147TIP3    H163932   0.459   5.832  14.080  0.2922  0.9760  1.2995
14147TIP3    H263933   0.440   5.682  14.083  1.5883  0.7450 -0.9402
14148TIP3   OH263934   4.647   4.395  13.658  0.3370 -0.7624  0.0812
14148TIP3    H163935   4.662   4.381  13.564  0.4279 -0.6867  0.0852
14148TIP3    H263936   4.552   4.404  13.665  0.2440 -1.8233  0.1437
14149TIP3   OH263937   1.380   2.491  12.727 -0.4496  0.0522  0.6236
14149TIP3    H163938   1.417   2.530  12.806  1.2567  0.6217 -0.4383
14149TIP3    H263939   1.377   2.397  12.746 -0.2749  0.2046  1.4419
14150TIP3   OH263940   1.325   5.166   3.415  0.3862 -0.1053  0.2989
14150TIP3    H163941   1.392   5.111   3.455  1.7069  0.0833 -1.5880
14150TIP3    H263942   1.324   5.140   3.323 -1.1902  0.8376  0.0277
14151TIP3   OH263943   6.809   0.865   3.033 -0.3278 -0.5665 -0.6063
14151TIP3    H163944   6.794   0.811   2.956 -2.0629  0.7225 -1.2074
14151TIP3    H263945   6.891   0.911   3.014 -0.0333 -1.2694 -1.0773
14152TIP3   OH263946   5.333   2.662  11.359 -0.3113 -0.5059 -0.0728
14152TIP3    H163947   5.416   2.682  11.403 -0.4568  0.4966 -0.2507
14152TIP3    H263948   5.355   2.592  11.298 -0.0333 -1.6965  1.3464
14153TIP3   OH263949   5.885   1.485  13.940 -0.0867 -0.3519 -0.0953
14153TIP3    H163950   5.894   1.580  13.939 -0.6524 -0.2991 -1.5611
14153TIP3    H263951   5.931   1.456  13.861  3.6332 -1.6449  2.4205
14154TIP3   OH263952   5.918   2.115   2.423  0.0387 -0.1911  0.1757
14154TIP3    H163953   5.841   2.169   2.444 -1.0043 -1.9878  1.0573
14154TIP3    H263954   5.959   2.099   2.507  2.6291  2.5098 -0.4965
14155TIP3   OH263955   3.006   5.940  15.738 -0.2911  0.1665  0.3345
14155TIP3    H163956   3.076   5.877  15.725  0.4905  1.2062 -0.6123
14155TIP3    H263957   2.937   5.912  15.677  0.4041  0.7134 -0.7247
14156TIP3   OH263958   0.737   2.448   3.394 -0.2024 -0.2609 -0.3769
14156TIP3    H163959   0.778   2.535   3.398 -0.2769 -0.1759 -1.2468
14156TIP3    H263960   0.803   2.388   3.428  0.5714 -0.0971 -1.5591
14157TIP3   OH263961   0.654   2.720  10.888  0.3163 -0.9540 -0.0907
14157TIP3    H163962   0.734   2.732  10.939 -0.3693  1.8504  0.4150
14157TIP3    H263963   0.662   2.783  10.816 -2.3827  0.9701  1.2160
14158TIP3   OH263964   5.603   0.363  14.954  0.4392 -0.3499 -0.2762
14158TIP3    H163965   5.616   0.399  15.042 -0.6340 -0.6995  0.0398
14158TIP3    H263966   5.597   0.441  14.897 -4.5095  0.2091  0.7749
14159TIP3   OH263967   0.459   4.757   0.283 -0.1986  0.2095 -0.0177
14159TIP3    H163968   0.449   4.692   0.214 -1.2761 -0.2560  0.5489
14159TIP3    H263969   0.550   4.749   0.311  0.3590  0.7371 -1.7042
14160TIP3   OH263970   1.997   0.037  16.284  0.5378 -0.2607  1.2698
14160TIP3    H163971   1.967   0.127  16.294 -1.1425 -1.1064  4.4430
14160TIP3    H263972   1.990   0.020  16.190 -2.5928  1.7708  1.0491
14161TIP3   OH263973   4.811   2.754   5.349 -0.7471  0.3888  0.1702
14161TIP3    H163974   4.768   2.670   5.363  0.3457 -0.6350 -2.3512
14161TIP3    H263975   4.864   2.767   5.428 -0.6238 -1.4867  0.4135
14162TIP3   OH263976   1.458   2.789   5.009  0.4773 -0.0850 -0.0933
14162TIP3    H163977   1.543   2.753   5.034 -0.1705 -0.4042  1.6929
14162TIP3    H263978   1.394   2.738   5.059 -0.7197  0.7675 -0.7211
14163TIP3   OH263979   1.920   5.607   1.439 -0.3518  0.2575 -0.7165
14163TIP3    H163980   1.920   5.690   1.486 -1.8219  0.5130 -1.1443
14163TIP3    H263981   1.828   5.584   1.431 -0.0381 -0.5755 -2.0744
14164TIP3   OH263982   2.882   4.408   1.556  0.0567 -0.3101 -0.3124
14164TIP3    H163983   2.812   4.361   1.601  0.0356 -0.7193 -0.7677
14164TIP3    H263984   2.926   4.458   1.625  0.1699 -1.1123  0.2016
14165TIP3   OH263985   5.516   3.432  13.246  0.4798 -0.4479 -0.3189
14165TIP3    H163986   5.536   3.463  13.334  0.6315 -2.2088  0.2926
14165TIP3    H263987   5.580   3.475  13.190 -1.2609  2.7060  0.0411
14166TIP3   OH263988   6.774   6.442  12.697  0.5291 -0.3664  0.0277
14166TIP3    H163989   6.764   6.402  12.783  0.4232  0.5414  0.4380
14166TIP3    H263990   6.794   6.534  12.715 -2.8521  0.6418 -0.9021
14167TIP3   OH263991   3.026   6.524  14.885 -0.2429 -0.2523  0.4734
14167TIP3    H163992   3.111   6.484  14.904 -0.5349 -0.2515  1.8824
14167TIP3    H263993   3.046   6.597  14.826  1.0559  1.1897  2.6085
14168TIP3   OH263994   1.794   5.809  17.221 -0.0377 -0.6403 -0.1870
14168TIP3    H163995   1.850   5.804  17.144 -2.0851 -4.0527 -1.5660
14168TIP3    H263996   1.739   5.886  17.206  2.2278  1.0543 -0.1670
14169TIP3   OH263997   1.623   4.508   2.066  0.1591  0.2199  0.0093
14169TIP3    H163998   1.660   4.433   2.021  0.1595 -0.0443  0.4391
14169TIP3    H263999   1.549   4.535   2.012 -0.9023 -1.1653  0.7186
14170TIP3   OH264000   3.959   4.051   4.724 -0.1830 -0.0649  0.1016
14170TIP3    H164001   4.006   4.042   4.641 -1.6369  0.7516 -0.8188
14170TIP3    H264002   3.930   3.962   4.745  0.4103 -0.3143 -0.1240
14171TIP3   OH264003   0.644   4.187  14.175 -0.1582  0.1573  0.3032
14171TIP3    H164004   0.713   4.143  14.125  0.1726 -0.7091  1.4912
14171TIP3    H264005   0.659   4.280  14.161  0.1249 -0.0723 -0.9369
14172TIP3   OH264006   3.031   0.758  15.174 -0.4267  0.0276 -0.6543
14172TIP3    H164007   2.981   0.681  15.199 -0.7927  0.4821  0.0409
14172TIP3    H264008   3.121   0.727  15.164 -0.6623 -0.5845 -0.8732
14173TIP3   OH264009   2.545   6.188   0.186  0.5346 -0.5271 -0.3359
14173TIP3    H164010   2.629   6.230   0.204  0.7196 -1.5007  1.1412
14173TIP3    H264011   2.530   6.130   0.261 -0.6735 -1.5946 -1.3741
14174TIP3   OH264012   3.487   6.682  17.177  0.2599 -0.2880  0.2698
14174TIP3    H164013   3.490   6.696  17.083  1.0889  3.2685  0.7601
14174TIP3    H264014   3.565   6.726  17.211 -1.6758  1.2682  2.9173
14175TIP3   OH264015   2.083   3.817  15.192  0.1940  0.1461 -0.1972
14175TIP3    H164016   2.125   3.896  15.226 -0.6215  0.7035 -0.4664
14175TIP3    H264017   2.006   3.804  15.248  0.5927 -0.7388  0.1539
14176TIP3   OH264018   6.735   2.566   0.961 -0.0489  0.1029  0.3774
14176TIP3    H164019   6.788   2.609   0.894  0.4760 -0.4264  0.4456
14176TIP3    H264020   6.664   2.628   0.979 -0.2235  0.2279 -0.7005
14177TIP3   OH264021   2.179   3.381   1.153  0.2186  0.3044 -0.1991
14177TIP3    H164022   2.214   3.396   1.065 -1.7828  0.5632 -0.9709
14177TIP3    H264023   2.205   3.291   1.174  2.2410  0.8451 -0.3103
14178TIP3   OH264024   2.807   5.670  11.894  0.1564 -0.1718  0.8283
14178TIP3    H164025   2.769   5.750  11.858 -2.6364 -1.3460  1.0458
14178TIP3    H264026   2.782   5.602  11.832  3.0773 -0.8231  0.2973
14179TIP3   OH264027   3.012   2.022  16.390  0.0774 -0.0924 -0.1854
14179TIP3    H164028   2.940   2.016  16.453  0.6498 -0.2432  0.4497
14179TIP3    H264029   2.971   2.002  16.306 -0.7163  0.2596  0.1178
14180TIP3   OH264030   2.125   4.833   2.033  0.4138 -0.5097 -0.1585
14180TIP3    H164031   2.088   4.758   2.079  1.9679 -1.6251 -0.7018
14180TIP3    H264032   2.200   4.798   1.986  1.1425  1.3829 -0.4546
14181TIP3   OH264033   6.357   0.445   2.449  0.6083 -0.3301  0.1610
14181TIP3    H164034   6.376   0.536   2.470 -1.6121  0.2980 -0.4848
14181TIP3    H264035   6.413   0.425   2.373  1.6160  0.2625  0.7461
14182TIP3   OH264036   5.426   6.555   4.397 -0.1389 -0.1283  0.3603
14182TIP3    H164037   5.486   6.485   4.422 -1.0086 -1.7190 -1.8358
14182TIP3    H264038   5.482   6.621   4.356  0.4047 -0.5841  0.3639
14183TIP3   OH264039   4.023   1.401  16.146 -0.4857  0.5594 -0.1649
14183TIP3    H164040   3.941   1.378  16.102  0.7375 -1.6093 -1.3687
14183TIP3    H264041   4.005   1.388  16.239 -1.0379 -1.4779 -0.5402
14184TIP3   OH264042   3.752   3.449   2.536  0.6922 -0.0703  0.2622
14184TIP3    H164043   3.745   3.427   2.629 -2.5232  0.5271  0.2161
14184TIP3    H264044   3.747   3.545   2.533  2.2470  0.0221 -0.4706
14185TIP3   OH264045   2.376   1.294  15.288  0.0905  0.1049 -0.1325
14185TIP3    H164046   2.419   1.282  15.204  0.6120 -1.1316  0.2932
14185TIP3    H264047   2.435   1.352  15.337  0.0094  0.4604 -0.4567
14186TIP3   OH264048   0.713   2.139  11.703  0.2635 -0.4478 -0.3519
14186TIP3    H164049   0.688   2.049  11.682  1.9434 -1.3293  1.2569
14186TIP3    H264050   0.768   2.131  11.781  1.1812  1.9009 -0.7080
14187TIP3   OH264051   5.776   6.122  10.325  0.2410  0.7209  0.1317
14187TIP3    H164052   5.856   6.077  10.352 -0.7323 -1.0782  0.0606
14187TIP3    H264053   5.711   6.053  10.316 -1.8891  2.3857  2.1816
14188TIP3   OH264054   1.552   0.409   6.385 -0.0419 -0.5559  0.1975
14188TIP3    H164055   1.487   0.411   6.315 -0.8240  0.4035  0.9392
14188TIP3    H264056   1.593   0.496   6.382 -1.3981  0.1786  2.1429
14189TIP3   OH264057   6.224   3.549   0.840  0.0425 -0.3318  0.1952
14189TIP3    H164058   6.188   3.630   0.876  4.3209  0.1605  3.7055
14189TIP3    H264059   6.254   3.573   0.752  1.2115  1.9166  1.1671
14190TIP3   OH264060   5.360   5.662  15.842  0.2864  0.3387 -0.6488
14190TIP3    H164061   5.346   5.581  15.793 -0.9159 -0.4482  0.9438
14190TIP3    H264062   5.271   5.695  15.859  0.7448  1.5272 -0.5446
14191TIP3   OH264063   1.627   2.869  13.652  0.5068 -0.3939  0.0947
14191TIP3    H164064   1.590   2.944  13.606 -2.4882 -1.2884  0.9293
14191TIP3    H264065   1.651   2.808  13.582 -0.6217 -0.2392 -0.4345
14192TIP3   OH264066   5.596   4.343   6.173  0.1112 -0.2246  0.8545
14192TIP3    H164067   5.647   4.416   6.207  0.1061  0.1479  0.0857
14192TIP3    H264068   5.559   4.300   6.250 -0.0477  0.7042  1.2939
14193TIP3   OH264069   3.151   4.114  11.694  0.1622 -0.7117 -0.8741
14193TIP3    H164070   3.144   4.042  11.757  1.6452 -0.1392 -0.0446
14193TIP3    H264071   3.066   4.115  11.649 -0.4172 -1.9827  0.1770
14194TIP3   OH264072   2.365   1.227  11.120  0.1514  0.1491  0.4517
14194TIP3    H164073   2.303   1.264  11.183 -0.1462  2.4761 -1.1149
14194TIP3    H264074   2.313   1.168  11.067  0.0111 -0.4453  1.2384
14195TIP3   OH264075   2.236   4.300   4.613  0.3142 -0.1147 -0.0496
14195TIP3    H164076   2.309   4.340   4.661  0.5175  1.5170 -1.6725
14195TIP3    H264077   2.158   4.330   4.658  0.5737 -0.2911  0.5216
14196TIP3   OH264078   1.471   2.872  16.347  0.0509  0.0144  0.0611
14196TIP3    H164079   1.524   2.922  16.409  0.7438  0.5262 -0.9286
14196TIP3    H264080   1.526   2.798  16.322  0.3628  0.6355 -1.0935
14197TIP3   OH264081   5.296   4.613  15.032  0.5289  0.1501 -0.3871
14197TIP3    H164082   5.297   4.708  15.043 -0.9587  0.0209  1.0707
14197TIP3    H264083   5.300   4.579  15.122  1.0924 -1.1730 -0.8980
14198TIP3   OH264084   1.127   3.290   4.408  0.3952  0.3590  0.6768
14198TIP3    H164085   1.060   3.317   4.346  0.8609  1.8208  0.7911
14198TIP3    H264086   1.195   3.248   4.355 -0.7989 -1.5393  0.6133
14199TIP3   OH264087   3.110   5.902  15.334 -0.0886 -0.6234  0.1057
14199TIP3    H164088   3.051   5.859  15.396 -2.3034  0.5765 -1.0938
14199TIP3    H264089   3.090   5.862  15.250 -0.1417  0.6992 -0.5316
14200TIP3   OH264090   5.442   0.700  16.091  0.3335 -0.1663 -0.2785
14200TIP3    H164091   5.364   0.755  16.087 -0.0736 -0.8407 -1.7887
14200TIP3    H264092   5.515   0.761  16.079  0.0330  0.4250  0.8409
14201TIP3   OH264093   3.106   6.738   3.387 -0.4166 -0.2241 -0.1739
14201TIP3    H164094   3.166   6.811   3.405 -0.2496 -0.8040  1.7527
14201TIP3    H264095   3.030   6.756   3.442 -1.5787 -0.0379 -1.8371
14202TIP3   OH264096   0.262   5.691   1.526 -0.1733  0.0123  0.1176
14202TIP3    H164097   0.338   5.732   1.485 -0.9859 -0.8476 -2.3837
14202TIP3    H264098   0.273   5.598   1.506 -0.6976 -0.4264  1.7872
14203TIP3   OH264099   1.503   3.309   1.746 -0.0960 -0.2692 -0.1535
14203TIP3    H164100   1.454   3.280   1.823  0.0015  0.1092  0.0555
14203TIP3    H264101   1.478   3.401   1.736  0.3717 -0.1482 -0.1998
14204TIP3   OH264102   3.653   5.641   1.774 -0.1802 -0.7319 -0.5142
14204TIP3    H164103   3.735   5.643   1.726 -0.6507 -0.5989 -1.3124
14204TIP3    H264104   3.648   5.726   1.817  0.1303 -0.7670 -0.4081
14205TIP3   OH264105   4.423   5.689  10.949 -0.8430  0.0192 -0.0841
14205TIP3    H164106   4.457   5.630  10.882 -0.9890 -0.1429 -0.0168
14205TIP3    H264107   4.460   5.774  10.927 -2.3737  0.3560 -1.4666
14206TIP3   OH264108   1.354   1.444  13.691 -0.4829 -0.6275 -0.3587
14206TIP3    H164109   1.380   1.529  13.728  2.1594 -0.6535 -1.9998
14206TIP3    H264110   1.315   1.397  13.765 -0.6563  1.4528  0.9370
14207TIP3   OH264111   2.774   2.900   1.666  0.0067  0.2505 -0.1447
14207TIP3    H164112   2.777   2.812   1.702 -2.4776 -0.1188 -0.7759
14207TIP3    H264113   2.864   2.933   1.676  1.4560 -3.0139 -1.6323
14208TIP3   OH264114   1.918   1.214   5.085  0.0214 -0.3155 -0.1285
14208TIP3    H164115   1.885   1.137   5.130  0.1245 -0.5055 -0.3737
14208TIP3    H264116   1.854   1.231   5.015 -0.8399  0.7620  0.8923
14209TIP3   OH264117   6.802   5.476  14.832 -0.2312 -0.1660 -0.1669
14209TIP3    H164118   6.834   5.388  14.812  1.8743 -0.2226  3.1534
14209TIP3    H264119   6.724   5.462  14.885 -1.8328  0.0304 -2.3711
14210TIP3   OH264120   3.546   4.778  14.487  0.5006 -0.3380  0.1361
14210TIP3    H164121   3.632   4.802  14.521 -0.0606  0.1681  1.2040
14210TIP3    H264122   3.508   4.722  14.554 -0.4511  0.3414  0.1772
14211TIP3   OH264123   2.305   4.676   0.657  0.3081  0.6139  0.7593
14211TIP3    H164124   2.251   4.755   0.653  1.3295  1.3777  1.6750
14211TIP3    H264125   2.257   4.617   0.715 -1.5584 -0.3422 -1.6437
14212TIP3   OH264126   5.755   1.000  12.610 -0.1928 -0.0935 -0.0726
14212TIP3    H164127   5.803   1.021  12.530  2.9593  0.0688  1.7664
14212TIP3    H264128   5.770   0.907  12.623 -1.4953 -0.3194 -0.1551
14213TIP3   OH264129   4.968   5.556   2.848 -0.4268  0.2420 -0.3655
14213TIP3    H164130   4.886   5.544   2.800 -0.9660  1.7925  0.1357
14213TIP3    H264131   4.950   5.517   2.934 -0.8856  1.2292 -0.0120
14214TIP3   OH264132   3.724   2.094   2.553 -0.0813 -0.0159 -0.6383
14214TIP3    H164133   3.768   2.175   2.526 -0.8813  0.4273 -0.6405
14214TIP3    H264134   3.794   2.030   2.561  0.5731  0.7026 -0.5544
14215TIP3   OH264135   3.208   3.533  14.272 -0.4296  0.0599 -0.0583
14215TIP3    H164136   3.163   3.578  14.343  1.0669  0.1649  0.8425
14215TIP3    H264137   3.256   3.463  14.315 -0.2470 -0.4561 -1.0877
14216TIP3   OH264138   3.663   1.379   0.545  0.8634 -0.0738 -0.4419
14216TIP3    H164139   3.728   1.447   0.525 -0.3970  0.7272 -1.9920
14216TIP3    H264140   3.580   1.417   0.515 -0.6950 -0.0904  3.6453
14217TIP3   OH264141   6.768   4.678  11.308  0.1740  0.3817 -0.0551
14217TIP3    H164142   6.706   4.741  11.345  0.8559  0.9335  0.1518
14217TIP3    H264143   6.768   4.696  11.214 -0.5124 -0.0899 -0.1464
14218TIP3   OH264144   3.472   5.360   4.569 -0.2593 -0.3985 -0.3641
14218TIP3    H164145   3.473   5.454   4.586  2.5051 -0.0702 -1.9506
14218TIP3    H264146   3.457   5.353   4.474 -1.7398 -1.5969 -0.0489
14219TIP3   OH264147   2.587   3.892   3.449 -0.6354  0.3182 -0.0833
14219TIP3    H164148   2.559   3.962   3.389  0.0141  0.9015  0.2843
14219TIP3    H264149   2.671   3.862   3.414 -0.8615 -0.2088 -0.1771
14220TIP3   OH264150   6.364   3.842   3.095  0.5457  0.2451 -0.2458
14220TIP3    H164151   6.362   3.848   3.000  0.0838  1.2715 -0.1713
14220TIP3    H264152   6.443   3.889   3.121 -1.3228  3.2991  0.1135
14221TIP3   OH264153   1.566   0.974   4.537 -0.2295  0.0779 -0.2704
14221TIP3    H164154   1.623   0.959   4.461  1.6872 -2.6339  1.5936
14221TIP3    H264155   1.478   0.960   4.503  0.4912  0.3570 -2.3456
14222TIP3   OH264156   3.210   3.342   2.038 -0.5348  0.0043  0.0211
14222TIP3    H164157   3.268   3.361   2.111  0.6110  0.5663 -1.0029
14222TIP3    H264158   3.263   3.287   1.980 -1.1111  0.3067 -0.8015
14223TIP3   OH264159   6.193   2.264  12.261  0.1311 -0.1072  0.0721
14223TIP3    H164160   6.168   2.253  12.169 -1.5993  0.4205  0.4671
14223TIP3    H264161   6.263   2.329  12.258 -0.8520  0.9490 -0.7752
14224TIP3   OH264162   1.147   6.644  13.138 -0.2276 -0.6816  0.2708
14224TIP3    H164163   1.095   6.723  13.154  0.4333  0.0320 -1.0379
14224TIP3    H264164   1.121   6.615  13.051  0.7415 -0.9649  0.0695
14225TIP3   OH264165   3.555   2.781   5.824 -1.1967  0.3267  0.8159
14225TIP3    H164166   3.565   2.701   5.875  0.6314 -0.5340 -0.8573
14225TIP3    H264167   3.468   2.814   5.848 -2.0661 -2.2567  1.3753
14226TIP3   OH264168   0.197   4.853   4.249  0.0560 -0.0004 -0.4182
14226TIP3    H164169   0.232   4.907   4.179  2.8476 -0.7536  0.3519
14226TIP3    H264170   0.193   4.911   4.325  0.5248 -0.1633 -0.2690
14227TIP3   OH264171   1.101   4.332   0.455  0.1530 -0.0000  0.3158
14227TIP3    H164172   1.026   4.385   0.427 -0.3935 -0.1389  1.4720
14227TIP3    H264173   1.074   4.242   0.438  0.5011  0.0093 -0.2915
14228TIP3   OH264174   0.423   2.376  12.065 -0.3911  0.2386  0.0705
14228TIP3    H164175   0.437   2.463  12.104 -0.8109  2.0202 -3.4969
14228TIP3    H264176   0.456   2.386  11.976 -2.2900 -2.7340 -0.9942
14229TIP3   OH264177   1.939   6.598  14.099 -0.1978  0.5758  0.1183
14229TIP3    H164178   1.981   6.610  14.185  0.6429 -0.6545 -0.0989
14229TIP3    H264179   1.915   6.505  14.098 -0.7811  0.7342 -0.7326
14230TIP3   OH264180   1.389   4.880  14.051 -0.0059 -0.5750 -0.1303
14230TIP3    H164181   1.386   4.862  13.957  2.0500  2.3530 -0.8123
14230TIP3    H264182   1.476   4.851  14.078 -0.3047 -0.6702  0.7352
14231TIP3   OH264183   4.920   0.112   0.052  0.3124  0.9315  0.3567
14231TIP3    H164184   4.835   0.108   0.009  0.0222 -2.6286  1.0891
14231TIP3    H264185   4.975   0.161  -0.009 -1.9875  2.3856 -0.5992
14232TIP3   OH264186   3.066   5.291  15.883 -0.3738 -0.0413 -0.1184
14232TIP3    H164187   3.108   5.288  15.969 -2.7725  0.5126  1.1011
14232TIP3    H264188   2.989   5.235  15.892 -1.4294  1.1622 -1.4698
14233TIP3   OH264189   4.200   2.628   6.173 -0.7428 -0.3768  0.3533
14233TIP3    H164190   4.140   2.555   6.185 -0.4834 -0.4962  0.9699
14233TIP3    H264191   4.257   2.601   6.101 -0.2227 -1.0701  1.0136
14234TIP3   OH264192   6.107   3.227  15.989  0.1047  0.4332  0.2400
14234TIP3    H164193   6.082   3.252  15.900 -2.4911 -0.6480  0.6060
14234TIP3    H264194   6.075   3.298  16.044  0.9318  0.6861  0.3991
14235TIP3   OH264195   4.134   6.634   6.060  0.3461  0.6215 -0.4858
14235TIP3    H164196   4.217   6.677   6.044 -0.5563  2.5190 -0.1511
14235TIP3    H264197   4.158   6.545   6.088  2.1484  0.1199 -3.4099
14236TIP3   OH264198   0.175   0.811   5.104  0.2954  0.2611  0.1791
14236TIP3    H164199   0.208   0.740   5.050  0.5594  0.9311 -0.5568
14236TIP3    H264200   0.127   0.768   5.175  0.5938 -0.6431 -0.1666
14237TIP3   OH264201   6.406   3.650  13.240 -0.1157  0.4225 -0.1051
14237TIP3    H164202   6.332   3.611  13.287  0.2150 -0.2748 -0.1573
14237TIP3    H264203   6.460   3.689  13.309 -1.0815  1.8936 -0.1575
14238TIP3   OH264204   4.683   1.777   2.825  0.1146 -0.0183 -0.2127
14238TIP3    H164205   4.661   1.693   2.864  0.9281 -0.5498 -0.8903
14238TIP3    H264206   4.715   1.756   2.737 -0.1508  1.0306 -0.5702
14239TIP3   OH264207   2.177   3.439  14.798  0.0713 -0.8113  0.0467
14239TIP3    H164208   2.147   3.349  14.809 -1.2754 -0.4765 -0.8474
14239TIP3    H264209   2.097   3.491  14.790  0.8592  0.1557 -1.8092
14240TIP3   OH264210   0.104   3.288  12.230  0.4853 -0.4808  0.0729
14240TIP3    H164211   0.181   3.271  12.176  0.9658 -1.4998  1.0776
14240TIP3    H264212   0.127   3.257  12.317 -0.7300  0.0390  0.6014
14241TIP3   OH264213   2.014   5.547   2.718  0.3100 -0.2132 -0.6419
14241TIP3    H164214   2.086   5.555   2.781  1.4746 -1.6745 -1.7491
14241TIP3    H264215   1.981   5.458   2.731 -2.7555  1.1486  1.3500
14242TIP3   OH264216   4.249   6.030  13.076 -0.1756 -0.0317  0.0044
14242TIP3    H164217   4.291   6.070  13.152 -1.2408  1.7298 -0.3025
14242TIP3    H264218   4.166   5.996  13.110 -0.7502  0.9465 -0.3929
14243TIP3   OH264219   4.324   4.058   5.159  0.6721  0.0058  0.6417
14243TIP3    H164220   4.327   3.964   5.180 -1.0040 -0.0967  0.4898
14243TIP3    H264221   4.311   4.060   5.064  0.8417  0.3942  0.6284
14244TIP3   OH264222   3.367   0.345  15.981  0.7105  0.5712  0.1706
14244TIP3    H164223   3.401   0.434  15.987  0.8393  0.5558 -0.3198
14244TIP3    H264224   3.272   0.354  15.993  0.8546  0.6357  1.3200
14245TIP3   OH264225   3.354   2.679   4.911 -0.5572 -0.0830 -0.3843
14245TIP3    H164226   3.300   2.623   4.855 -1.0060  1.1440 -1.2049
14245TIP3    H264227   3.408   2.729   4.850 -0.7429  0.9674  0.2985
14246TIP3   OH264228   1.189   3.154  11.994  0.3390  0.3721 -0.4629
14246TIP3    H164229   1.193   3.187  11.905  1.0171 -0.1962 -0.6447
14246TIP3    H264230   1.237   3.072  11.992  2.8224  1.7217  1.0258
14247TIP3   OH264231   1.519   1.613   5.980  0.3722 -0.0651  0.5867
14247TIP3    H164232   1.458   1.584   5.912  0.4911 -0.0657  0.4806
14247TIP3    H264233   1.587   1.546   5.981  0.0800 -0.3634  1.0942
14248TIP3   OH264234   0.913   4.540  16.542 -0.4880 -0.8256 -0.0136
14248TIP3    H164235   0.894   4.591  16.620  1.7596  0.4451 -0.2600
14248TIP3    H264236   0.848   4.568  16.478  1.9537  3.3475 -0.8296
14249TIP3   OH264237   4.904   2.480   1.739 -0.1433  0.0936 -0.7413
14249TIP3    H164238   4.960   2.533   1.684 -0.5812  1.2616 -0.0771
14249TIP3    H264239   4.836   2.540   1.769  0.7288 -0.2353  1.9909
14250TIP3   OH264240   2.500   1.379  14.663 -0.1210  0.2711  0.3866
14250TIP3    H164241   2.450   1.413  14.738  0.7586 -1.0494  1.6019
14250TIP3    H264242   2.487   1.285  14.666  1.5287  0.0175  0.0663
14251TIP3   OH264243   6.741   3.576  13.228  0.4866 -0.7063  0.4769
14251TIP3    H164244   6.819   3.611  13.270 -0.2277  0.2705  1.0033
14251TIP3    H264245   6.715   3.643  13.165  1.6538 -2.2335 -1.7109
14252TIP3   OH264246   2.021   3.849   3.932 -0.7944  0.1080  0.2647
14252TIP3    H164247   1.960   3.785   3.968  0.0223  1.1546  3.7027
14252TIP3    H264248   2.040   3.817   3.844 -0.0444 -4.5977  1.9948
14253TIP3   OH264249   6.114   0.369   2.330 -0.2573  0.0177  0.5683
14253TIP3    H164250   6.189   0.387   2.388  0.3309 -2.4749  0.6577
14253TIP3    H264251   6.142   0.401   2.244 -0.9902  3.4084  1.5181
14254TIP3   OH264252   6.789   2.423   0.007 -0.1020 -0.3563  0.4492
14254TIP3    H164253   6.828   2.505  -0.024 -3.3995  1.0109 -0.2108
14254TIP3    H264254   6.787   2.433   0.102 -0.1221  0.1611  0.3998
14255TIP3   OH264255   3.092   1.455   2.189  0.3556 -0.1852 -0.3405
14255TIP3    H164256   3.058   1.478   2.275  1.8576 -0.3101  0.3055
14255TIP3    H264257   3.018   1.464   2.130 -0.3497  1.2060  0.7512
14256TIP3   OH264258   4.750   0.783  11.923  0.4201  0.2405  0.1737
14256TIP3    H164259   4.843   0.808  11.929  0.6160 -0.2166 -0.9532
14256TIP3    H264260   4.748   0.711  11.860 -0.9064  1.2741 -0.9882
14257TIP3   OH264261   3.829   2.218  12.421  0.0688  0.7183 -0.1295
14257TIP3    H164262   3.863   2.159  12.355 -1.1982 -1.6841  1.3067
14257TIP3    H264263   3.907   2.259  12.459  1.1840 -2.0247  0.6659
14258TIP3   OH264264   3.192   4.997   3.846 -0.1237 -0.1858  0.0230
14258TIP3    H164265   3.107   4.988   3.804  0.0296 -1.5481 -0.0233
14258TIP3    H264266   3.254   5.007   3.773 -0.0025 -1.3261 -0.0421
14259TIP3   OH264267   2.033   1.998  15.791 -0.2845  0.0226  0.5295
14259TIP3    H164268   1.950   2.027  15.754  0.0094 -1.4857 -1.3820
14259TIP3    H264269   2.097   2.060  15.757 -0.1814 -0.6905 -0.6050
14260TIP3   OH264270   1.286   2.614  14.531 -0.4479 -0.7718  0.5113
14260TIP3    H164271   1.271   2.550  14.601 -0.6305 -0.8872  0.3688
14260TIP3    H264272   1.273   2.699  14.573  1.1513 -0.7662  1.0429
14261TIP3   OH264273   5.258   6.207   2.100 -0.2645  0.0346  0.0385
14261TIP3    H164274   5.209   6.255   2.034 -0.6057  0.7115  0.7752
14261TIP3    H264275   5.325   6.160   2.051 -0.9036  0.0385 -0.8506
14262TIP3   OH264276   1.751   4.781  14.131 -0.3390 -0.3040 -0.7110
14262TIP3    H164277   1.682   4.842  14.158  0.7520 -0.7588  3.4631
14262TIP3    H264278   1.813   4.834  14.081 -1.5431  1.0544 -0.7802
14263TIP3   OH264279   4.998   2.808  11.187  0.6977  0.3037  0.0422
14263TIP3    H164280   5.078   2.845  11.223  0.5787  0.8953 -0.3099
14263TIP3    H264281   4.959   2.761  11.261  1.3249  0.0760  0.2318
14264TIP3   OH264282   1.739   2.492   5.684 -0.2178  0.1869 -0.6482
14264TIP3    H164283   1.833   2.499   5.664 -0.4729  3.5961 -0.9744
14264TIP3    H264284   1.735   2.492   5.780  0.0802  1.0907 -0.6283
14265TIP3   OH264285   5.106   0.037  14.189 -0.1304  0.4627  0.1410
14265TIP3    H164286   5.070   0.077  14.110 -0.4832  1.1973  0.6770
14265TIP3    H264287   5.105   0.106  14.255  0.6843  0.0159  0.6438
14266TIP3   OH264288   2.346   2.813  11.518 -0.4801  0.4314  0.1990
14266TIP3    H164289   2.434   2.846  11.500 -0.4042  0.9863  1.5484
14266TIP3    H264290   2.350   2.720  11.494 -0.1142  0.9150 -1.6583
14267TIP3   OH264291   1.782   5.110  16.534  0.0367  0.2588  0.1573
14267TIP3    H164292   1.826   5.150  16.610  0.8307  0.0141 -0.1676
14267TIP3    H264293   1.820   5.023  16.527 -0.7121 -0.0645  0.0353
14268TIP3   OH264294   5.922   0.677   3.385 -0.4273  0.2057  0.0728
14268TIP3    H164295   5.853   0.719   3.334  0.1389  0.6255 -0.3600
14268TIP3    H264296   5.999   0.733   3.371  0.3735 -1.0623 -0.6321
14269TIP3   OH264297   0.486   0.928  15.454  0.7000  0.6571 -0.4066
14269TIP3    H164298   0.517   0.855  15.400 -0.7027  0.2411 -0.6501
14269TIP3    H264299   0.563   0.984  15.463  1.1920  0.2702 -2.0681
14270TIP3   OH264300   2.931   1.074  14.732  0.0294 -0.0693 -0.3253
14270TIP3    H164301   2.922   1.135  14.659 -0.8577  0.6753  0.3978
14270TIP3    H264302   2.932   0.987  14.691 -1.7590  0.2648 -1.1304
14271TIP3   OH264303   0.383   3.557  14.412  0.1071 -0.3058  0.0407
14271TIP3    H164304   0.317   3.558  14.343  0.7255 -3.0430 -0.6486
14271TIP3    H264305   0.390   3.465  14.438  1.1640  0.4139  2.5389
14272TIP3   OH264306   1.426   1.080   0.954 -0.3629 -0.1261 -0.2283
14272TIP3    H164307   1.456   1.090   1.044 -1.4360 -0.9108  0.2222
14272TIP3    H264308   1.467   1.153   0.907 -0.3761  0.7022  1.0381
14273TIP3   OH264309   5.895   0.964   0.348 -0.0571 -0.6060 -0.8168
14273TIP3    H164310   5.858   0.972   0.436  0.2021 -1.8040 -0.5864
14273TIP3    H264311   5.861   0.881   0.315 -1.0456  0.3777 -2.2939
14274TIP3   OH264312   4.387   2.034  11.738 -0.1836 -0.1688 -0.0287
14274TIP3    H164313   4.442   1.957  11.753 -1.2764 -0.8389  0.5345
14274TIP3    H264314   4.320   2.031  11.806 -0.2523  1.2767  0.0022
14275TIP3   OH264315   6.210   1.720   2.066  0.0714 -0.3928 -0.5953
14275TIP3    H164316   6.249   1.788   2.120 -3.9177  2.4088 -0.9915
14275TIP3    H264317   6.161   1.665   2.127 -1.4872  0.6352 -0.8845
14276TIP3   OH264318   6.075   1.268  14.216 -0.2854 -0.4625 -0.0037
14276TIP3    H164319   6.136   1.294  14.285 -0.0192  2.5299 -1.2684
14276TIP3    H264320   6.001   1.327  14.226 -1.0544 -1.2264 -1.1346
14277TIP3   OH264321   6.683   3.988   4.134  0.1966 -0.0479 -0.4346
14277TIP3    H164322   6.602   3.954   4.172  0.3791 -0.2570 -0.2340
14277TIP3    H264323   6.707   4.061   4.191  0.8616 -0.8173  0.2789
14278TIP3   OH264324   1.105   5.002   3.574  0.4512  0.2411  0.3726
14278TIP3    H164325   1.140   5.026   3.660  0.4834  2.6517 -0.2786
14278TIP3    H264326   1.158   5.052   3.512 -0.7502 -0.1107 -0.9546
14279TIP3   OH264327   2.748   1.605  12.828  0.2588  0.2163  0.8071
14279TIP3    H164328   2.729   1.636  12.739  1.8238 -0.4561  0.2085
14279TIP3    H264329   2.677   1.543  12.848 -0.6596  1.1376  0.4339
14280TIP3   OH264330   5.227   0.510   0.146 -0.2025 -0.1504 -0.0190
14280TIP3    H164331   5.166   0.575   0.181  1.0603  0.3894  1.1785
14280TIP3    H264332   5.242   0.538   0.056  0.2766  1.1656  0.4679
14281TIP3   OH264333   5.582   0.106  12.219  0.8318 -0.2964 -0.4645
14281TIP3    H164334   5.531   0.168  12.271  1.1986 -0.4071  0.0324
14281TIP3    H264335   5.542   0.109  12.132  1.5243  1.4573 -0.7502
14282TIP3   OH264336   4.124   1.201  15.473  0.0306  0.3152  0.5358
14282TIP3    H164337   4.085   1.287  15.489  1.3724  1.4066 -1.8979
14282TIP3    H264338   4.218   1.217  15.471  0.3690 -1.4403  1.2491
14283TIP3   OH264339   6.367   5.005  15.409 -0.3903 -0.3599 -0.1895
14283TIP3    H164340   6.292   4.965  15.453 -0.0342 -1.4761 -0.5882
14283TIP3    H264341   6.439   4.943  15.423  0.1239  0.0608 -0.9659
14284TIP3   OH264342   0.456   1.188  11.763 -0.0262  0.0737 -0.5931
14284TIP3    H164343   0.532   1.140  11.796  0.2192  0.2787 -0.8513
14284TIP3    H264344   0.493   1.266  11.722 -0.4322  0.5606 -0.0369
14285TIP3   OH264345   5.933   5.820  15.490  0.5648 -0.8093  0.6099
14285TIP3    H164346   5.931   5.878  15.566  0.1182 -0.5738  0.4179
14285TIP3    H264347   5.845   5.782  15.486  0.4830 -0.5758  0.0292
14286TIP3   OH264348   5.391   6.193   1.806 -0.8418  0.1766 -0.7162
14286TIP3    H164349   5.479   6.195   1.843 -1.1107 -0.1133 -0.0587
14286TIP3    H264350   5.354   6.280   1.826 -1.1676 -0.1557  0.1412
14287TIP3   OH264351   3.649   4.007  13.724  0.2454  0.7028 -0.4392
14287TIP3    H164352   3.650   4.084  13.667 -1.1213  0.8434 -0.2823
14287TIP3    H264353   3.603   4.036  13.803 -2.2068 -0.8298 -1.2350
14288TIP3   OH264354   0.472   1.558  11.705 -0.4449  0.1508  0.5599
14288TIP3    H164355   0.511   1.602  11.781 -0.3817  0.7712  0.1734
14288TIP3    H264356   0.380   1.584  11.707 -0.0796  1.6255 -0.5814
14289TIP3   OH264357   1.646   3.512   6.238 -0.2597  0.7912  0.7702
14289TIP3    H164358   1.592   3.505   6.317 -0.9205  1.5147  0.3815
14289TIP3    H264359   1.620   3.595   6.197 -0.0751  0.3133 -0.3345
14290TIP3   OH264360   1.780   2.169  15.374  0.3743 -0.1719 -0.1118
14290TIP3    H164361   1.871   2.160  15.346  0.7403 -3.4104  1.9374
14290TIP3    H264362   1.730   2.126  15.304  0.6927 -1.3505  0.3725
14291TIP3   OH264363   0.926   5.170  10.674 -0.1177 -0.0032  0.1236
14291TIP3    H164364   0.911   5.245  10.730 -0.5956  0.0977 -0.1368
14291TIP3    H264365   0.978   5.204  10.601 -1.3581  0.3383 -0.6094
14292TIP3   OH264366   1.641   6.429   0.356  0.3459  0.4910 -0.1593
14292TIP3    H164367   1.658   6.339   0.382  2.1293  1.0948  0.8758
14292TIP3    H264368   1.687   6.440   0.273  0.6481  0.6328  0.0278
14293TIP3   OH264369   3.080   6.195  13.412  0.2632 -0.1455 -0.1466
14293TIP3    H164370   3.053   6.107  13.387  3.4809 -1.2174 -0.1334
14293TIP3    H264371   3.118   6.185  13.499  1.6148  1.0481 -0.5784
14294TIP3   OH264372   6.407   5.836  16.521  0.0225 -0.3652 -0.7232
14294TIP3    H164373   6.322   5.805  16.554  0.5106 -0.6469  0.2723
14294TIP3    H264374   6.448   5.758  16.484 -0.0078 -0.2909 -0.9171
14295TIP3   OH264375   0.246   3.369   1.079 -0.5506 -0.0197 -0.0277
14295TIP3    H164376   0.197   3.395   1.158  0.4528  0.5325  0.4189
14295TIP3    H264377   0.181   3.325   1.024 -1.6480  1.0609  0.3807
14296TIP3   OH264378   1.621   5.934  16.716  0.2803  0.1675  0.2089
14296TIP3    H164379   1.559   5.981  16.772 -0.1048  0.5062 -0.4951
14296TIP3    H264380   1.620   5.844  16.750 -0.1070  0.3205  0.6127
14297TIP3   OH264381   2.420   4.967   2.172 -0.3078 -0.2388  0.5466
14297TIP3    H164382   2.357   5.021   2.124  0.1646  0.6675  0.9291
14297TIP3    H264383   2.505   4.991   2.136 -0.0571 -0.4092  1.0150
14298TIP3   OH264384   3.685   4.164  15.481 -0.2460  0.6351  0.0466
14298TIP3    H164385   3.738   4.243  15.471 -0.4425  0.7922  0.2676
14298TIP3    H264386   3.734   4.110  15.543  0.7569 -0.1534 -1.3956
14299TIP3   OH264387   5.981   5.112  13.950 -0.3868  0.4132 -0.2621
14299TIP3    H164388   6.059   5.072  13.910 -0.3811 -0.7231  0.8715
14299TIP3    H264389   5.973   5.069  14.035 -1.5420  1.4203  0.1458
14300TIP3   OH264390   1.764   5.608  11.073  0.1634 -0.1738 -0.0889
14300TIP3    H164391   1.741   5.535  11.130  0.7271 -1.3967 -1.4151
14300TIP3    H264392   1.680   5.645  11.046 -0.2856 -2.9802 -2.7943
14301TIP3   OH264393   3.881   5.775  12.636 -0.2671 -0.4964 -0.6576
14301TIP3    H164394   3.955   5.747  12.690  0.1562  0.6547 -0.6170
14301TIP3    H264395   3.879   5.870  12.646 -1.1762 -0.4273 -1.4054
14302TIP3   OH264396   2.422   0.290   5.552 -0.3276 -0.5375  0.5159
14302TIP3    H164397   2.385   0.339   5.479  1.5811  0.1392 -0.0299
14302TIP3    H264398   2.381   0.203   5.547 -0.1133 -0.5453 -1.4511
14303TIP3   OH264399   3.826   5.767   0.187  0.6147  0.7302 -0.7375
14303TIP3    H164400   3.892   5.833   0.167  1.4021 -0.8624 -3.7000
14303TIP3    H264401   3.873   5.698   0.234 -0.2580  2.3005  2.5821
14304TIP3   OH264402   0.177   6.582   3.889 -0.2337 -0.3175  0.7290
14304TIP3    H164403   0.159   6.577   3.795  0.5165 -0.0168  0.5677
14304TIP3    H264404   0.199   6.492   3.913 -0.4438 -0.3984  0.6213
14305TIP3   OH264405   2.693   0.595  11.855 -0.9465  0.3630 -0.4890
14305TIP3    H164406   2.620   0.654  11.834 -0.7490  0.6884 -0.2656
14305TIP3    H264407   2.738   0.584  11.771 -1.1854  0.2531 -0.6042
14306TIP3   OH264408   0.431   4.537  12.023 -0.5062 -0.1616 -0.4928
14306TIP3    H164409   0.500   4.603  12.022 -0.1199 -0.5090  1.4158
14306TIP3    H264410   0.366   4.569  11.961  0.2046  1.4467 -0.4192
14307TIP3   OH264411   6.682   5.244   0.939 -0.0485  0.2154  0.1548
14307TIP3    H164412   6.591   5.225   0.963  0.3126  0.6236  1.9624
14307TIP3    H264413   6.716   5.160   0.906 -0.8161 -0.1732  0.3332
14308TIP3   OH264414   0.890   6.310  13.930 -0.4086  0.5049  0.3609
14308TIP3    H164415   0.918   6.388  13.977 -0.4214 -0.1243  1.4295
14308TIP3    H264416   0.822   6.272  13.985  0.4803 -0.9476  0.4762
14309TIP3   OH264417   4.677   4.354  13.356  0.3076  0.0430 -0.3040
14309TIP3    H164418   4.712   4.380  13.270  1.4962 -1.1941 -0.2121
14309TIP3    H264419   4.590   4.319  13.337  1.8384 -3.3384 -1.4864
14310TIP3   OH264420   2.844   6.086   3.355  0.7080 -0.2695  0.0859
14310TIP3    H164421   2.865   5.997   3.385  0.3166 -1.0619 -1.9178
14310TIP3    H264422   2.927   6.133   3.359  0.8901 -0.6694  1.2959
14311TIP3   OH264423   6.195   4.384   0.543 -0.2107  0.5165  0.0475
14311TIP3    H164424   6.259   4.333   0.493 -0.8738 -0.6624  0.3856
14311TIP3    H264425   6.139   4.319   0.584 -2.2985  1.5377 -1.1134
14312TIP3   OH264426   6.764   6.504   2.599 -0.0949  0.3103 -0.5083
14312TIP3    H164427   6.782   6.596   2.577 -0.0323  1.1168  2.7152
14312TIP3    H264428   6.837   6.478   2.655 -0.8308 -1.2803 -0.2690
14313TIP3   OH264429   2.233   4.994   1.213 -0.1550 -0.4258 -0.5816
14313TIP3    H164430   2.250   4.914   1.164  0.9395 -0.1332 -0.6906
14313TIP3    H264431   2.250   5.065   1.151  1.2626 -0.0559  0.2056
14314TIP3   OH264432   3.884   5.526   4.324  0.0344  0.1980 -0.7577
14314TIP3    H164433   3.903   5.498   4.234 -2.7496 -0.8608 -1.0771
14314TIP3    H264434   3.907   5.452   4.378  0.2238  0.2457 -0.7747
14315TIP3   OH264435   5.717   0.811  14.508 -0.7103 -0.5661 -0.3387
14315TIP3    H164436   5.759   0.851  14.584  1.8842 -1.0255 -1.4610
14315TIP3    H264437   5.734   0.717  14.517 -0.4761 -0.6355 -1.4166
14316TIP3   OH264438   4.465   2.100   5.166  0.5742 -0.0670  0.2847
14316TIP3    H164439   4.511   2.173   5.125  0.3624 -0.1598 -0.1197
14316TIP3    H264440   4.465   2.031   5.099  1.8965 -0.8859  1.1127
14317TIP3   OH264441   6.033   6.126  15.850 -0.1668  0.4234 -0.1580
14317TIP3    H164442   6.096   6.194  15.874 -1.4005  0.9892  1.6550
14317TIP3    H264443   6.040   6.061  15.921  1.6234 -1.8378 -2.2999
14318TIP3   OH264444   3.583   5.122  16.298  0.2639 -0.8637  0.4495
14318TIP3    H164445   3.523   5.077  16.357  1.3122 -2.1098  0.5884
14318TIP3    H264446   3.629   5.185  16.353 -1.7035  0.9468  0.1234
14319TIP3   OH264447   1.372   0.741  14.120 -0.0143 -0.0602  0.2048
14319TIP3    H164448   1.325   0.823  14.136 -0.9701 -0.8392  1.4657
14319TIP3    H264449   1.327   0.701  14.046 -0.1729  0.0757  0.2299
14320TIP3   OH264450   4.068   0.188  16.673  0.9791  0.0925 -0.1438
14320TIP3    H164451   4.041   0.279  16.663  1.0535  0.1903  0.4955
14320TIP3    H264452   4.067   0.173  16.768  0.1668 -0.8179 -0.2839
14321TIP3   OH264453   6.561   5.429  10.910 -0.9396  0.6876 -0.8113
14321TIP3    H164454   6.505   5.354  10.930 -0.9574  0.5226 -1.4904
14321TIP3    H264455   6.599   5.409  10.825 -1.2905  1.6445 -1.2046
14322TIP3   OH264456   0.730   5.382   5.579  0.5693 -0.3844 -0.5571
14322TIP3    H164457   0.736   5.477   5.578 -0.9294 -0.2463  0.8886
14322TIP3    H264458   0.804   5.353   5.525  0.3079  1.6000 -2.0527
14323TIP3   OH264459   4.697   5.185   2.273  0.8718  0.2092 -0.8290
14323TIP3    H164460   4.640   5.145   2.207 -0.8714  0.0446  0.7346
14323TIP3    H264461   4.774   5.213   2.224 -0.7549  0.8896 -3.1067
14324TIP3   OH264462   6.532   0.721   2.483 -0.1659  0.4853  0.6228
14324TIP3    H164463   6.530   0.777   2.405  0.0324 -0.6621 -0.2200
14324TIP3    H264464   6.612   0.745   2.528 -0.4691  1.4222  0.6762
14325TIP3   OH264465   3.362   1.209   0.802 -0.2035  0.2845  0.1968
14325TIP3    H164466   3.401   1.184   0.718  0.2035 -0.4351  0.5937
14325TIP3    H264467   3.427   1.182   0.867 -0.5264  0.8218  0.7464
14326TIP3   OH264468   5.442   1.843  11.320  0.1969 -0.3829  0.3576
14326TIP3    H164469   5.512   1.895  11.360  0.9513 -0.8020 -0.3916
14326TIP3    H264470   5.488   1.777  11.267 -0.7731  0.1479 -1.1790
14327TIP3   OH264471   4.792   6.189   2.031  0.0338  0.0020  0.7041
14327TIP3    H164472   4.813   6.115   2.089  1.4984 -0.1126  0.0518
14327TIP3    H264473   4.751   6.253   2.089  1.4774 -0.1102  1.9108
14328TIP3   OH264474   0.559   0.712  15.266  0.6140 -0.4701 -0.5326
14328TIP3    H164475   0.624   0.722  15.197  2.4204 -1.6055  0.9461
14328TIP3    H264476   0.583   0.630  15.310 -0.2381  0.4358  1.6832
14329TIP3   OH264477   5.343   5.478   6.195  0.4001  0.5441  0.4182
14329TIP3    H164478   5.264   5.463   6.247  0.9310  1.5892  1.5533
14329TIP3    H264479   5.407   5.510   6.258  0.7279  2.9208 -1.0530
14330TIP3   OH264480   3.561   2.191  13.437 -0.1096 -0.7738 -0.1527
14330TIP3    H164481   3.542   2.229  13.351 -1.6340 -2.0998 -0.4146
14330TIP3    H264482   3.512   2.246  13.498  0.6268 -0.0960 -0.1618
14331TIP3   OH264483   5.329   4.209  12.839  0.0945  0.0417 -0.3916
14331TIP3    H164484   5.344   4.271  12.768  2.9215 -1.8460 -1.4929
14331TIP3    H264485   5.272   4.142  12.801 -0.9429  0.6365  0.0801
14332TIP3   OH264486   2.834   1.364   0.151  0.1013  0.1176  0.3640
14332TIP3    H164487   2.755   1.311   0.151  0.5733 -0.6430  2.9139
14332TIP3    H264488   2.903   1.305   0.119  0.1669 -0.0829  0.8700
14333TIP3   OH264489   2.704   1.441  13.083 -0.2635  0.5134 -0.1138
14333TIP3    H164490   2.768   1.431  13.012  0.1286  0.5863  0.2268
14333TIP3    H264491   2.710   1.359  13.132 -1.9160 -0.3345 -1.2797
14334TIP3   OH264492   4.438   5.369  15.128 -0.2908 -0.3053  0.4650
14334TIP3    H164493   4.394   5.340  15.208  0.7039 -0.4602  0.9696
14334TIP3    H264494   4.518   5.317  15.125 -0.9512 -1.2535 -1.3419
14335TIP3   OH264495   6.012   5.680  15.181 -0.7818  0.2365 -0.7791
14335TIP3    H164496   6.076   5.750  15.193 -1.0176  0.3883 -0.3717
14335TIP3    H264497   6.025   5.623  15.257 -1.9272  0.9007 -0.0734
14336TIP3   OH264498   1.089   0.142   0.600 -0.0123  0.1257 -0.4739
14336TIP3    H164499   0.997   0.159   0.618  0.6672  1.3913  2.1430
14336TIP3    H264500   1.127   0.229   0.586  1.0681 -0.2396  0.1285
14337TIP3   OH264501   4.622   1.795   6.067  0.8280  0.3566 -0.1274
14337TIP3    H164502   4.567   1.870   6.089 -1.1712 -0.4547 -2.2561
14337TIP3    H264503   4.633   1.749   6.151 -0.5609  1.2891  0.5915
14338TIP3   OH264504   2.120   0.264   2.367 -0.2008 -0.3593  0.2771
14338TIP3    H164505   2.212   0.276   2.392  0.2094  0.7520 -1.6452
14338TIP3    H264506   2.080   0.350   2.381 -0.3115 -0.1293 -1.3212
14339TIP3   OH264507   0.119   4.532   4.029  0.7567 -0.0317 -0.1612
14339TIP3    H164508   0.151   4.580   3.953  1.2224  1.9074  1.2192
14339TIP3    H264509   0.040   4.580   4.056  1.2017 -0.0639  1.2104
14340TIP3   OH264510   3.678   6.715   4.131 -0.4436 -0.0193 -0.0870
14340TIP3    H164511   3.718   6.764   4.060 -0.8952  2.0417  1.0413
14340TIP3    H264512   3.614   6.775   4.169  0.2421 -0.8274  2.4802
14341TIP3   OH264513   2.977   5.337  16.181 -0.2212  0.5260 -0.2391
14341TIP3    H164514   2.904   5.278  16.161  1.0166 -1.2369  0.2233
14341TIP3    H264515   3.008   5.308  16.267  0.9265  1.3299 -0.3729
14342TIP3   OH264516   1.166   2.260  15.668 -0.2703 -0.1096  0.1925
14342TIP3    H164517   1.096   2.262  15.732 -0.6083 -2.9335 -0.0168
14342TIP3    H264518   1.237   2.312  15.707 -1.5266  0.6089  1.5356
14343TIP3   OH264519   1.383   4.582   4.469 -0.0717  0.0575  0.4103
14343TIP3    H164520   1.361   4.665   4.427  1.3347  1.1044  1.6745
14343TIP3    H264521   1.394   4.604   4.562 -0.1192 -1.6240  0.8272
14344TIP3   OH264522   2.822   5.608  10.967  0.3595 -0.3979 -0.0468
14344TIP3    H164523   2.732   5.622  10.941  0.4905 -0.4341 -0.5316
14344TIP3    H264524   2.874   5.648  10.898  0.7205 -1.5593 -0.4678
14345TIP3   OH264525   4.400   2.583   1.944  0.2449 -0.2904  0.3881
14345TIP3    H164526   4.424   2.496   1.912 -0.4119  0.6523 -2.7864
14345TIP3    H264527   4.305   2.581   1.951  0.1734  0.3640 -0.3267
14346TIP3   OH264528   1.980   0.127  15.764  0.0631  0.2052  0.2303
14346TIP3    H164529   2.017   0.212  15.742  1.1433  0.0398  1.3179
14346TIP3    H264530   1.972   0.082  15.680  2.3170  0.2810 -0.0596
14347TIP3   OH264531   5.679   0.124  11.877  0.0806 -0.4079  0.2470
14347TIP3    H164532   5.757   0.073  11.898  1.4995  1.7102  0.2410
14347TIP3    H264533   5.676   0.126  11.782  1.0463  1.0162  0.2367
14348TIP3   OH264534   0.949   2.401   2.912 -0.0807 -0.1053 -0.6656
14348TIP3    H164535   0.954   2.306   2.924  0.8152 -0.0401 -0.4842
14348TIP3    H264536   0.991   2.438   2.990 -0.0380  0.4283 -0.9364
14349TIP3   OH264537   2.968   0.914   1.130 -0.3012 -0.6679 -0.0136
14349TIP3    H164538   3.051   0.893   1.087 -0.3604  0.6318 -0.7681
14349TIP3    H264539   2.952   1.006   1.109 -0.9380 -0.3464  1.7822
14350TIP3   OH264540   3.375   5.888  14.805 -0.6302 -0.0700  0.3767
14350TIP3    H164541   3.331   5.847  14.730  1.5046 -0.3080 -0.7732
14350TIP3    H264542   3.411   5.814  14.854 -0.8588  0.1689  0.9013
14351TIP3   OH264543   6.225   3.615   3.902  0.6332 -0.6078 -0.3416
14351TIP3    H164544   6.183   3.689   3.859  0.7797 -1.0713 -1.2941
14351TIP3    H264545   6.265   3.565   3.831  0.9576 -1.3341  0.3390
14352TIP3   OH264546   0.271   2.847   6.659  0.1501  0.2777  0.2116
14352TIP3    H164547   0.317   2.776   6.704  1.2760  1.3645  0.8218
14352TIP3    H264548   0.244   2.906   6.729  0.3068  1.0635 -0.3909
14353TIP3   OH264549   1.445   2.027  14.580  0.1837 -0.5223 -0.0062
14353TIP3    H164550   1.540   2.015  14.583  0.2205 -0.0388  1.6636
14353TIP3    H264551   1.433   2.110  14.534  0.6610  0.0447  0.8651
14354TIP3   OH264552   3.803   3.816   4.228 -0.4419  0.3619  0.1942
14354TIP3    H164553   3.847   3.893   4.264  0.3833  0.0046 -0.0346
14354TIP3    H264554   3.802   3.831   4.134  0.1863 -0.1346  0.1001
14355TIP3   OH264555   0.969   4.414   6.293  0.1402 -0.7157 -0.3417
14355TIP3    H164556   0.877   4.436   6.276  0.7996  2.4174 -0.0820
14355TIP3    H264557   1.002   4.381   6.209 -0.8530 -0.5247 -0.8146
14356TIP3   OH264558   3.790   5.196   3.835 -0.2890 -0.1662 -0.3342
14356TIP3    H164559   3.800   5.280   3.879  1.1507 -0.4619 -0.0700
14356TIP3    H264560   3.870   5.187   3.782  1.7087 -3.3042  2.9361
14357TIP3   OH264561   1.669   3.855   2.128 -0.1127  0.2716  0.0710
14357TIP3    H164562   1.592   3.798   2.125 -0.1249  0.2942 -0.0537
14357TIP3    H264563   1.638   3.939   2.094 -0.4528  0.7816  1.6082
14358TIP3   OH264564   5.477   0.101   2.873  0.3704  0.3181  0.1148
14358TIP3    H164565   5.439   0.186   2.892 -0.5595 -0.1730  0.4915
14358TIP3    H264566   5.567   0.120   2.845 -0.3088  1.5290 -1.2816
14359TIP3   OH264567   0.633   4.165  16.786  0.0308  0.6586 -0.4110
14359TIP3    H164568   0.645   4.252  16.748 -1.3250  0.4995 -1.2406
14359TIP3    H264569   0.662   4.105  16.717  0.2477  0.4246 -0.1187
14360TIP3   OH264570   4.751   4.860   2.501 -0.1530  0.1966  0.8239
14360TIP3    H164571   4.793   4.792   2.553 -0.6119 -0.1148  0.7819
14360TIP3    H264572   4.762   4.940   2.554  0.1707  0.0518  0.9809
14361TIP3   OH264573   3.255   5.613  15.244 -0.8676 -0.2485 -0.1077
14361TIP3    H164574   3.313   5.653  15.310 -1.8493 -0.4515  0.8971
14361TIP3    H264575   3.313   5.560  15.190  0.1098  0.7394 -0.0413
14362TIP3   OH264576   1.011   6.459  15.471 -0.3230  0.1795  0.2224
14362TIP3    H164577   0.995   6.491  15.382  0.9525  1.6870  0.5104
14362TIP3    H264578   0.974   6.527  15.527  0.1975 -0.0511  0.8461
14363TIP3   OH264579   4.970   3.959   0.171 -0.2506 -0.0897 -0.1952
14363TIP3    H164580   4.983   3.946   0.077 -1.0712 -1.3222 -0.1556
14363TIP3    H264581   4.931   3.877   0.202 -0.0156  0.3058  1.2199
14364TIP3   OH264582   3.378   2.313   3.844 -0.2708 -0.1064  0.0559
14364TIP3    H164583   3.436   2.380   3.809 -1.0326  0.5617  0.0542
14364TIP3    H264584   3.418   2.288   3.928  1.7095 -1.9132 -1.3679
14365TIP3   OH264585   2.999   5.445  14.068  0.0018 -0.5248 -0.0010
14365TIP3    H164586   3.041   5.486  13.993 -2.0813  0.9840 -0.3903
14365TIP3    H264587   3.049   5.476  14.144 -0.6057  1.5658 -0.4177
14366TIP3   OH264588   1.777   4.545   5.144  0.4558 -0.4680 -0.0743
14366TIP3    H164589   1.741   4.632   5.161  0.2038 -0.4764 -0.5618
14366TIP3    H264590   1.825   4.523   5.224 -1.6959 -1.0068  1.1005
14367TIP3   OH264591   2.395   4.634   1.696  0.0300  0.6963 -0.6375
14367TIP3    H164592   2.423   4.712   1.745  1.7220 -1.8193  2.6641
14367TIP3    H264593   2.317   4.604   1.742  0.4548 -0.5660 -0.7088
14368TIP3   OH264594   2.512   4.111  15.318  0.1337  0.1523 -0.3051
14368TIP3    H164595   2.529   4.019  15.301 -0.1353 -0.1590  1.0565
14368TIP3    H264596   2.447   4.111  15.388  1.2263  1.3846  0.7207
14369TIP3   OH264597   6.557   4.280  10.288 -0.3424  0.1663  0.7056
14369TIP3    H164598   6.477   4.235  10.316 -0.1765  0.2675  1.3563
14369TIP3    H264599   6.534   4.373  10.290 -0.0673  0.2256  1.3706
14370TIP3   OH264600   3.517   1.237   0.287 -0.7106 -0.2017  0.8428
14370TIP3    H164601   3.586   1.184   0.328 -0.2478 -0.0394  0.2651
14370TIP3    H264602   3.511   1.315   0.343 -0.9007 -0.5243  1.2822
14371TIP3   OH264603   1.733   5.543  11.848 -0.2076  0.6605 -0.6205
14371TIP3    H164604   1.706   5.614  11.791  0.3245  1.2129 -0.1955
14371TIP3    H264605   1.799   5.495  11.797 -0.2652  0.7203 -0.7519
14372TIP3   OH264606   4.081   4.156   5.547  0.1225 -0.1899  0.1988
14372TIP3    H164607   4.022   4.178   5.475 -0.4757  1.2131  1.1030
14372TIP3    H264608   4.136   4.233   5.558  2.4259 -1.6188 -0.8920
14373TIP3   OH264609   2.044   4.112  12.898 -0.8251  0.9646  0.0267
14373TIP3    H164610   1.998   4.186  12.937 -2.1504  0.1431  0.0406
14373TIP3    H264611   1.975   4.054  12.866  0.2074  0.2210 -0.9169
14374TIP3   OH264612   3.691   5.324  12.746 -0.1027  0.3589  0.1009
14374TIP3    H164613   3.699   5.378  12.668 -1.1299 -1.2289 -1.1384
14374TIP3    H264614   3.730   5.240  12.721 -1.8272 -0.6707  0.7684
14375TIP3   OH264615   6.804   3.932  16.770 -0.2987  0.9158 -0.0412
14375TIP3    H164616   6.776   4.002  16.711 -1.0202  0.5522 -0.1384
14375TIP3    H264617   6.731   3.920  16.830  0.1809  0.8512  0.5382
14376TIP3   OH264618   5.339   3.840   2.480 -0.4718 -0.0617  0.0136
14376TIP3    H164619   5.289   3.902   2.426 -0.8274 -0.6258 -0.3126
14376TIP3    H264620   5.303   3.754   2.457 -0.4848 -0.3265  0.9961
14377TIP3   OH264621   6.288   3.415  11.556  0.1707 -0.3183  0.3074
14377TIP3    H164622   6.321   3.367  11.632  0.6796  0.3664  0.5210
14377TIP3    H264623   6.367   3.451  11.514 -0.1508 -0.2419 -0.2358
14378TIP3   OH264624   1.555   5.849   1.594 -0.1415  0.5566  0.5083
14378TIP3    H164625   1.601   5.925   1.630  1.7695 -0.9545  1.3908
14378TIP3    H264626   1.575   5.778   1.655 -0.4547 -1.0528 -1.2109
14379TIP3   OH264627   3.921   0.049  14.094  0.1678 -0.0131 -0.0985
14379TIP3    H164628   3.861  -0.014  14.056 -1.0033  0.8800  0.2581
14379TIP3    H264629   3.931   0.117  14.028 -1.7807  1.4804  1.1028
14380TIP3   OH264630   3.713   2.982   0.088  0.0714 -0.2424  0.5205
14380TIP3    H164631   3.807   2.966   0.096 -0.0786 -1.6875 -0.4706
14380TIP3    H264632   3.707   3.071   0.054  1.1977 -1.2091 -2.3921
14381TIP3   OH264633   5.949   3.128   4.327  0.3198  0.2465  0.0952
14381TIP3    H164634   6.023   3.142   4.268 -1.1633 -0.0592 -1.8652
14381TIP3    H264635   5.918   3.216   4.347  0.8703  0.3532  0.4869
14382TIP3   OH264636   4.363   4.800   3.870 -0.1956 -0.1564 -0.6283
14382TIP3    H164637   4.281   4.758   3.894  0.9362 -1.7565  0.5843
14382TIP3    H264638   4.377   4.777   3.778 -1.4989  0.8299 -1.0859
14383TIP3   OH264639   0.684   4.186   5.688  0.0834 -0.1965  0.5095
14383TIP3    H164640   0.702   4.111   5.631  0.3574 -0.7237  1.2882
14383TIP3    H264641   0.612   4.158   5.743 -0.8811  0.6895 -0.2646
14384TIP3   OH264642   2.077   5.089  14.336  0.2190 -0.4975 -0.1357
14384TIP3    H164643   2.029   5.008  14.322  2.6733 -2.1455  0.7743
14384TIP3    H264644   2.073   5.104  14.430  2.3989 -1.2409  0.0900
14385TIP3   OH264645   0.372   1.960   4.977 -0.5284  0.3971  0.0306
14385TIP3    H164646   0.436   1.981   4.909 -0.4817  1.2931  0.3546
14385TIP3    H264647   0.416   1.893   5.031 -0.8035 -0.7713 -1.1716
14386TIP3   OH264648   4.871   6.511   3.868  0.5816  0.3441  0.0222
14386TIP3    H164649   4.933   6.548   3.932  1.1514  0.2218 -0.4518
14386TIP3    H264650   4.892   6.417   3.868  0.6213  0.3527 -0.3830
14387TIP3   OH264651   0.244   6.686  14.235  0.0454  0.1801 -0.4680
14387TIP3    H164652   0.274   6.756  14.293  2.2799 -0.6603 -0.5626
14387TIP3    H264653   0.204   6.732  14.161  1.1259  1.3463 -0.3492
14388TIP3   OH264654   6.700   4.537   0.045 -0.3080  0.4168  0.5273
14388TIP3    H164655   6.697   4.608   0.108 -2.2541  0.7534  0.0825
14388TIP3    H264656   6.623   4.484   0.063  0.1539 -0.5835 -0.3097
14389TIP3   OH264657   5.842   1.752  15.501 -0.2611 -0.1722  0.3152
14389TIP3    H164658   5.926   1.706  15.500  0.4005  1.0549 -1.6820
14389TIP3    H264659   5.831   1.785  15.412 -1.9346  1.3761  1.0706
14390TIP3   OH264660   1.140   2.539   4.609 -0.1711  0.6629 -0.5482
14390TIP3    H164661   1.165   2.597   4.538 -1.3172  2.4277  0.4606
14390TIP3    H264662   1.212   2.544   4.671  0.9698 -1.1128 -1.6861
14391TIP3   OH264663   4.226   1.711   5.686  0.3650 -0.3248 -0.0818
14391TIP3    H164664   4.178   1.786   5.652 -1.5629  0.0673  3.2786
14391TIP3    H264665   4.159   1.656   5.727  2.4229 -1.1619  2.2873
14392TIP3   OH264666   6.327   3.511   6.854  0.6285 -0.0560 -0.3767
14392TIP3    H164667   6.254   3.558   6.815 -1.0422  0.4095  3.1500
14392TIP3    H264668   6.405   3.554   6.819 -0.8353  4.0242  1.0978
14393TIP3   OH264669   1.447   6.347  13.403  0.0001 -0.3517 -0.2483
14393TIP3    H164670   1.390   6.394  13.342 -2.1532  0.7098  2.4624
14393TIP3    H264671   1.432   6.255  13.384 -1.1280 -0.0416 -0.9164
14394TIP3   OH264672   1.643   4.474  14.371 -0.1471  0.2388 -0.5875
14394TIP3    H164673   1.624   4.441  14.283 -0.7516  2.2223 -1.2369
14394TIP3    H264674   1.733   4.445  14.388  0.7314  1.5564 -2.7311
14395TIP3   OH264675   0.706   4.058   1.552  0.0063 -0.5628 -0.0636
14395TIP3    H164676   0.690   4.075   1.460  1.0915 -0.0908 -0.1797
14395TIP3    H264677   0.710   4.145   1.592 -1.5053 -0.7993  0.6160
14396TIP3   OH264678   4.725   1.865   0.136 -0.4434 -0.1021  0.5265
14396TIP3    H164679   4.764   1.943   0.175 -0.2718 -0.9320  2.0852
14396TIP3    H264680   4.679   1.897   0.058  0.9485  1.2975  0.2661
14397TIP3   OH264681   0.930   4.832  17.287 -0.2204  0.5326 -0.3229
14397TIP3    H164682   0.893   4.744  17.293 -1.2666  1.0255  0.7439
14397TIP3    H264683   0.862   4.889  17.323  0.4780  1.7702 -0.9328
14398TIP3   OH264684   1.342   1.907   3.011 -0.5604 -0.1001 -0.4960
14398TIP3    H164685   1.425   1.949   2.986  0.8817 -1.8623  1.0955
14398TIP3    H264686   1.323   1.846   2.940 -0.0103 -0.3039 -0.4744
14399TIP3   OH264687   0.345   4.495   1.103  0.8817  0.0856 -0.3951
14399TIP3    H164688   0.267   4.514   1.051  0.8172  1.3364  0.1282
14399TIP3    H264689   0.418   4.513   1.044  0.7828 -0.8084 -0.7954
14400TIP3   OH264690   1.474   1.528  11.583  0.0208 -0.3089 -0.7390
14400TIP3    H164691   1.534   1.513  11.657  0.9377  2.7418 -0.8098
14400TIP3    H264692   1.510   1.475  11.512  1.1779 -0.4737 -0.0444
14401TIP3   OH264693   1.687   6.360   1.760  0.0782 -0.1993 -0.1364
14401TIP3    H164694   1.782   6.370   1.758 -0.0194  0.7076 -1.2486
14401TIP3    H264695   1.657   6.399   1.677 -1.2015 -1.0942 -0.1184
14402TIP3   OH264696   5.562   4.290   2.078  0.6082  0.9981 -0.0598
14402TIP3    H164697   5.482   4.239   2.093  0.2372  1.9355  1.2555
14402TIP3    H264698   5.539   4.348   2.004 -0.3468  2.0760  1.0471
14403TIP3   OH264699   2.217   4.683  14.284  0.0277  0.0998 -0.4332
14403TIP3    H164700   2.130   4.699  14.319 -0.2622 -0.1918 -1.0227
14403TIP3    H264701   2.204   4.619  14.214  0.8213 -0.6176  0.0513
14404TIP3   OH264702   5.139   3.089  14.860 -0.2100 -0.1740 -0.0516
14404TIP3    H164703   5.053   3.053  14.839  0.3908 -1.4706 -0.3291
14404TIP3    H264704   5.199   3.014  14.857  1.3423  1.0858 -2.2839
14405TIP3   OH264705   1.553   4.879   1.863  0.2928  0.0759 -0.0058
14405TIP3    H164706   1.523   4.888   1.773 -0.0101  1.7436  0.2369
14405TIP3    H264707   1.627   4.818   1.858  0.5251  0.4563 -1.4416
14406TIP3   OH264708   4.572   1.743   1.666  1.1996  0.2452  0.0150
14406TIP3    H164709   4.568   1.706   1.578  1.0162  1.0379 -0.3190
14406TIP3    H264710   4.481   1.755   1.692  1.2522  0.6369  0.0340
14407TIP3   OH264711   6.593   6.631  11.078  0.1473  0.4924  0.0646
14407TIP3    H164712   6.597   6.599  11.168  0.8382 -1.0851 -0.4981
14407TIP3    H264713   6.525   6.578  11.037  1.0248  0.0060 -0.7861
14408TIP3   OH264714   6.209   4.097   4.453  0.1526 -0.2143 -0.2572
14408TIP3    H164715   6.137   4.034   4.447 -1.2969  1.3686  0.1091
14408TIP3    H264716   6.269   4.058   4.517 -1.7789 -0.2288  1.6230
14409TIP3   OH264717   3.097   4.920  15.909 -1.0319 -0.1699 -0.0524
14409TIP3    H164718   3.099   5.016  15.908 -1.8374 -0.1519 -0.0406
14409TIP3    H264719   3.022   4.898  15.964 -1.1069 -0.8108 -0.4021
14410TIP3   OH264720   3.501   1.873   0.780  0.1947  0.0419 -0.1314
14410TIP3    H164721   3.438   1.855   0.850  0.7120  0.3957  0.4345
14410TIP3    H264722   3.585   1.846   0.817  0.5155  0.5490 -0.4875
14411TIP3   OH264723   4.734   5.686  10.865  0.0573 -0.0153 -0.1981
14411TIP3    H164724   4.717   5.592  10.854 -0.0434 -0.1480  1.0609
14411TIP3    H264725   4.676   5.728  10.801  0.7781 -0.8422 -1.4237
14412TIP3   OH264726   0.011   2.737   3.541 -0.0410  0.0402 -0.0329
14412TIP3    H164727  -0.023   2.719   3.453 -1.3563 -0.0391  0.4718
14412TIP3    H264728  -0.066   2.728   3.598  1.0461 -1.1164  1.2754
14413TIP3   OH264729   1.942   2.795   2.210  0.3037  0.3445  0.3389
14413TIP3    H164730   1.956   2.754   2.295  0.5434  1.2452  0.7478
14413TIP3    H264731   2.026   2.785   2.165  0.4700  0.6783  0.5695
14414TIP3   OH264732   0.005   0.923   5.345 -0.0624  0.0361  0.3672
14414TIP3    H164733  -0.012   0.858   5.414  1.8044 -1.5663 -0.6567
14414TIP3    H264734   0.096   0.948   5.356 -0.3475  1.4008 -0.1926
14415TIP3   OH264735   4.181   1.956  10.673  0.4998  0.0865  0.4972
14415TIP3    H164736   4.243   1.946  10.746  1.1892 -0.1462 -0.1187
14415TIP3    H264737   4.114   1.889  10.689 -0.5460  1.4560  2.1108
14416TIP3   OH264738   0.657   6.664  11.993  0.3288 -0.3759 -0.5972
14416TIP3    H164739   0.616   6.748  11.973  1.8527  0.0565 -2.0054
14416TIP3    H264740   0.585   6.610  12.027 -0.6467  1.5033  0.4405
14417TIP3   OH264741   6.546   5.363   5.181 -0.3361  0.1595 -0.6509
14417TIP3    H164742   6.617   5.421   5.155 -1.3833  1.4728 -0.6410
14417TIP3    H264743   6.482   5.420   5.223 -0.4938 -1.3108  1.1941
14418TIP3   OH264744   0.547   0.643   3.384  0.4401 -0.0842 -0.2861
14418TIP3    H164745   0.620   0.699   3.410 -0.0218 -0.1033  1.0994
14418TIP3    H264746   0.489   0.641   3.460 -0.5929 -0.7567 -1.0606
14419TIP3   OH264747   4.426   3.722  16.222  0.3460 -0.0641 -0.4071
14419TIP3    H164748   4.391   3.806  16.253  0.3192  0.1979 -1.1448
14419TIP3    H264749   4.441   3.672  16.302  0.7268  0.7922  0.0709
14420TIP3   OH264750   1.392   1.384  15.028  0.1254 -0.1727 -0.0821
14420TIP3    H164751   1.388   1.398  15.122 -0.2521  0.3513 -0.1747
14420TIP3    H264752   1.462   1.320  15.016  1.2797  0.9841  0.4105
14421TIP3   OH264753   1.918   3.220  14.279  0.3133 -0.0759  0.1018
14421TIP3    H164754   1.947   3.270  14.202  2.1832 -0.0337  0.8064
14421TIP3    H264755   1.953   3.269  14.353 -0.0360 -1.0400  0.9081
14422TIP3   OH264756   4.587   1.496   3.265 -0.3851 -0.2654 -0.0744
14422TIP3    H164757   4.622   1.465   3.348 -3.1810 -1.8112  0.6044
14422TIP3    H264758   4.613   1.430   3.201 -1.8317 -1.3072  0.3908
14423TIP3   OH264759   6.529   5.528  14.658  0.0105 -0.0029  0.2541
14423TIP3    H164760   6.619   5.504  14.680 -0.7662 -2.2160  1.2710
14423TIP3    H264761   6.507   5.472  14.583 -0.2634  1.0976 -0.4932
14424TIP3   OH264762   3.402   4.415   4.305  0.1635  0.2464 -0.1134
14424TIP3    H164763   3.384   4.395   4.397  0.8826  1.5708  0.3301
14424TIP3    H264764   3.360   4.499   4.290  0.2951  0.1683 -0.9261
14425TIP3   OH264765   1.607   3.702  16.825 -0.1811 -0.6974  0.6885
14425TIP3    H164766   1.605   3.755  16.745  1.9913  1.7280  2.1574
14425TIP3    H264767   1.516   3.701  16.855 -0.0367  3.9985  1.6927
14426TIP3   OH264768   4.277   0.103   1.368 -0.0835  0.2700 -0.1260
14426TIP3    H164769   4.359   0.061   1.342  0.9986  2.5816 -0.5831
14426TIP3    H264770   4.219   0.091   1.294  0.1165 -0.6379 -0.1420
14427TIP3   OH264771   0.767   0.557   0.009  0.6196 -0.6614  0.4400
14427TIP3    H164772   0.763   0.462  -0.004 -0.4891 -0.5609 -0.0332
14427TIP3    H264773   0.676   0.583   0.021  0.8154  0.4819 -0.4403
14428TIP3   OH264774   6.182   6.155  12.343  0.0801  0.0525  0.0590
14428TIP3    H164775   6.125   6.226  12.315  0.9368  0.9342  0.5044
14428TIP3    H264776   6.227   6.189  12.421  0.6560 -0.8965  0.1578
14429TIP3   OH264777   1.057   1.260   4.823 -0.0228 -0.7960  0.4665
14429TIP3    H164778   1.046   1.266   4.728  1.4841 -0.7149  0.2786
14429TIP3    H264779   1.017   1.176   4.847 -1.0303 -0.4905 -0.1353
14430TIP3   OH264780   1.582   6.190   5.912  0.1491 -0.1773 -1.0455
14430TIP3    H164781   1.641   6.258   5.880  0.6366 -0.8274 -1.5606
14430TIP3    H264782   1.513   6.237   5.958 -0.4256  0.7979 -2.8319
14431TIP3   OH264783   1.107   2.376   1.296 -0.4708 -0.3726 -0.0972
14431TIP3    H164784   1.076   2.387   1.206  2.7098 -3.1597 -1.6603
14431TIP3    H264785   1.051   2.308   1.332 -1.7566  0.7491  0.0714
14432TIP3   OH264786   6.818   1.849  12.932  0.4180 -0.0714 -0.2789
14432TIP3    H164787   6.848   1.900  13.007 -0.3649  2.4667 -1.6037
14432TIP3    H264788   6.890   1.789  12.913  1.9705  1.5065  0.5038
14433TIP3   OH264789   6.007   2.502  11.151 -0.6434 -0.4432  0.2378
14433TIP3    H164790   5.915   2.476  11.146 -0.4775 -1.3737  1.5142
14433TIP3    H264791   6.032   2.523  11.061 -2.4876  1.1981  0.0882
14434TIP3   OH264792   4.923   3.555  11.962 -0.0718  0.6463 -0.1213
14434TIP3    H164793   4.899   3.600  12.042  1.3424 -0.1151  0.7564
14434TIP3    H264794   4.976   3.480  11.991 -0.1407 -0.0486 -1.7089
14435TIP3   OH264795   6.536   5.879  11.745 -0.3287  0.3272 -0.1150
14435TIP3    H164796   6.575   5.848  11.826 -0.0205  0.6576 -0.1376
14435TIP3    H264797   6.602   5.936  11.706 -1.7174  2.7228  0.9670
14436TIP3   OH264798   4.179   0.968   0.688 -0.3338  0.7196  0.3701
14436TIP3    H164799   4.270   0.960   0.716 -0.1002  0.9994 -0.3019
14436TIP3    H264800   4.133   1.004   0.765 -0.2305 -1.0983  1.3207
14437TIP3   OH264801   5.324   4.093   2.618 -0.0276 -0.0149  0.0795
14437TIP3    H164802   5.252   4.096   2.682 -1.1982 -1.9488 -1.0881
14437TIP3    H264803   5.375   4.016   2.643 -1.3309 -1.6711 -2.0985
14438TIP3   OH264804   1.113   5.506  14.503 -0.0441 -0.1090  0.1786
14438TIP3    H164805   1.204   5.535  14.497 -0.3982  0.6293 -2.1098
14438TIP3    H264806   1.062   5.579  14.468 -1.5055 -0.6749  1.0629
14439TIP3   OH264807   4.693   3.204   2.496  0.4990 -0.0391  0.3076
14439TIP3    H164808   4.721   3.133   2.554  1.2419  1.5935  2.0379
14439TIP3    H264809   4.673   3.276   2.556 -0.3333  1.1877 -1.4025
14440TIP3   OH264810   2.764   2.906  13.954 -0.3063 -0.1227  0.2037
14440TIP3    H164811   2.731   2.927  13.867 -0.1201  0.2293  0.2134
14440TIP3    H264812   2.805   2.820  13.944 -0.5301 -0.2083  0.0094
14441TIP3   OH264813   0.767   2.174   5.471 -0.4268 -0.1036  0.5394
14441TIP3    H164814   0.703   2.184   5.400 -1.2253 -0.9334  1.1197
14441TIP3    H264815   0.717   2.135   5.542  0.4827  0.2768  1.3957
14442TIP3   OH264816   3.843   3.192   2.449 -0.0239  0.2841  0.3592
14442TIP3    H164817   3.814   3.140   2.374  1.5409 -0.4255  0.2207
14442TIP3    H264818   3.797   3.276   2.439  0.3564  0.2944 -1.5311
14443TIP3   OH264819   1.703   2.778   4.067  0.0018  0.6259  0.4657
14443TIP3    H164820   1.647   2.702   4.086 -0.7744  1.4328  1.4677
14443TIP3    H264821   1.702   2.785   3.972 -0.7812  0.0186  0.4250
14444TIP3   OH264822   0.391   3.885  11.500  0.6389  0.8418 -0.1910
14444TIP3    H164823   0.312   3.926  11.465  0.3016  1.1392  0.9095
14444TIP3    H264824   0.458   3.952  11.491  0.9732  0.3193 -1.8578
14445TIP3   OH264825   6.288   4.214   0.201 -0.5306 -0.1666  0.3932
14445TIP3    H164826   6.296   4.130   0.156  1.5054  1.5439 -2.6447
14445TIP3    H264827   6.194   4.231   0.204 -0.7801 -0.7595 -2.5561
14446TIP3   OH264828   3.942   5.404  16.866 -0.1002 -0.0474 -0.1079
14446TIP3    H164829   3.865   5.437  16.820 -1.3142 -0.9445  1.2107
14446TIP3    H264830   3.913   5.320  16.904  2.3614 -1.7922 -1.9302
14447TIP3   OH264831   4.972   4.025   0.727 -0.1897 -0.5232 -0.0948
14447TIP3    H164832   4.901   3.969   0.757 -0.0526 -0.0654  1.0897
14447TIP3    H264833   5.005   4.068   0.806  0.9123 -0.1632 -0.7308
14448TIP3   OH264834   3.485   1.310  11.505 -0.1535 -0.4620  0.1478
14448TIP3    H164835   3.513   1.228  11.544 -1.8956 -1.5032 -0.7354
14448TIP3    H264836   3.389   1.307  11.508 -0.3225  0.0160 -2.9026
14449TIP3   OH264837   1.797   1.250   6.265  0.1067  0.1850 -0.6300
14449TIP3    H164838   1.821   1.243   6.173 -0.2994 -1.0679 -0.6445
14449TIP3    H264839   1.851   1.185   6.309 -0.0154  0.4767 -0.0449
14450TIP3   OH264840   1.856   4.919  13.906 -0.5868  0.5907  0.3155
14450TIP3    H164841   1.785   4.967  13.865 -1.7207 -1.1461  0.1684
14450TIP3    H264842   1.931   4.933  13.849 -1.0902  1.5428 -0.1171
14451TIP3   OH264843   3.717   2.630   3.303 -0.1459  0.3556 -0.3365
14451TIP3    H164844   3.679   2.543   3.296 -0.6053  0.4955  0.3720
14451TIP3    H264845   3.804   2.616   3.341  0.0042  0.1587 -0.7493
14452TIP3   OH264846   0.914   2.149  11.904  0.0046 -0.1222 -0.4912
14452TIP3    H164847   0.942   2.080  11.964 -0.1619 -0.8480 -1.2446
14452TIP3    H264848   0.985   2.213  11.906 -0.4620  0.3756  1.2783
14453TIP3   OH264849   6.434   2.448  15.236 -0.0086 -0.0422  0.7481
14453TIP3    H164850   6.418   2.504  15.313 -0.4015 -0.9511  1.3366
14453TIP3    H264851   6.450   2.510  15.165  0.4678  0.8163  1.5836
14454TIP3   OH264852   6.145   6.341  13.924 -0.0656  0.8992 -0.2055
14454TIP3    H164853   6.230   6.385  13.927  0.5581 -0.1033 -2.2212
14454TIP3    H264854   6.110   6.362  13.838 -0.3225 -1.4940 -0.7084
14455TIP3   OH264855   4.486   0.615   3.301 -0.0519 -0.1005  0.0059
14455TIP3    H164856   4.462   0.542   3.244  0.2782 -0.5307  0.4209
14455TIP3    H264857   4.496   0.576   3.388 -1.1270  0.6574  0.4752
14456TIP3   OH264858   2.950   1.604  15.940 -0.3561  0.2774 -0.0269
14456TIP3    H164859   3.008   1.528  15.939  0.4621  0.7760  3.3460
14456TIP3    H264860   3.010   1.679  15.944 -1.1789  0.8768  1.3731
14457TIP3   OH264861   4.755   6.730   4.130  0.0556  0.0952  0.1941
14457TIP3    H164862   4.698   6.700   4.201 -0.4984 -0.8365 -0.6427
14457TIP3    H264863   4.827   6.775   4.175 -0.3512 -0.3842  1.3442
14458TIP3   OH264864   5.213   0.516  11.075 -0.1681  0.0698 -0.3139
14458TIP3    H164865   5.231   0.604  11.042  2.3173  0.1452  1.1678
14458TIP3    H264866   5.222   0.524  11.170  3.7582 -2.5466 -0.3915
14459TIP3   OH264867   3.453   2.356   0.571 -0.3469 -0.3290  0.0348
14459TIP3    H164868   3.453   2.427   0.508 -0.4841 -0.4626 -0.1147
14459TIP3    H264869   3.415   2.394   0.651 -1.0275 -0.4148 -0.2459
14460TIP3   OH264870   6.692   0.362  11.376  0.2677  0.5369  0.4547
14460TIP3    H164871   6.679   0.269  11.357  0.0093  0.0713  2.7610
14460TIP3    H264872   6.710   0.401  11.291  0.8576 -1.7022 -0.4956
14461TIP3   OH264873   4.856   6.807  15.548  0.5677  0.1574 -0.2360
14461TIP3    H164874   4.911   6.884  15.562  0.4818  0.1895 -0.0615
14461TIP3    H264875   4.799   6.831  15.475 -0.8925  1.0733  1.1443
14462TIP3   OH264876   6.326   0.606  16.017  0.8437 -0.2175  0.4460
14462TIP3    H164877   6.255   0.582  15.958  0.8021  0.0349  0.3891
14462TIP3    H264878   6.329   0.702  16.012  0.0452 -0.1175  1.7995
14463TIP3   OH264879   2.258   1.953  11.385 -0.1723  0.6687 -0.2242
14463TIP3    H164880   2.286   2.042  11.406 -1.4498  0.8856  0.6249
14463TIP3    H264881   2.176   1.942  11.433 -0.2250 -0.8307 -0.6422
14464TIP3   OH264882   2.859   0.389  14.282 -0.1404  0.1319 -0.6323
14464TIP3    H164883   2.865   0.416  14.374  0.3695 -0.0044 -0.6249
14464TIP3    H264884   2.900   0.303  14.279 -1.4504 -0.4989 -0.7254
14465TIP3   OH264885   2.793   4.626   5.387 -0.2095 -0.0756 -0.7650
14465TIP3    H164886   2.884   4.596   5.396 -0.8755 -2.5056 -1.6290
14465TIP3    H264887   2.779   4.632   5.293 -0.2557  2.6574 -0.6248
14466TIP3   OH264888   6.777   5.372  13.168 -0.2026 -0.1282  0.0449
14466TIP3    H164889   6.867   5.376  13.135 -0.1223 -2.5942 -0.1371
14466TIP3    H264890   6.727   5.330  13.097 -1.4145  0.8354  0.3087
14467TIP3   OH264891   0.741   6.169   4.582 -0.3417  0.7591 -0.2865
14467TIP3    H164892   0.663   6.164   4.527  0.1629  0.7569 -1.0066
14467TIP3    H264893   0.786   6.249   4.554 -0.1283  0.8105  0.1889
14468TIP3   OH264894   6.160   1.499   5.478  0.2482 -0.2907 -0.2632
14468TIP3    H164895   6.205   1.525   5.398  0.5169  1.2198  0.3736
14468TIP3    H264896   6.155   1.578   5.530 -0.6447 -1.0824  0.8870
14469TIP3   OH264897   4.410   4.566   2.834 -0.0883  0.4363 -0.1402
14469TIP3    H164898   4.326   4.560   2.788  0.7503  0.3344 -1.6766
14469TIP3    H264899   4.464   4.622   2.779  0.9933  0.1917  0.6515
14470TIP3   OH264900   5.086   5.429   6.319 -0.1609  0.7034 -0.1319
14470TIP3    H164901   4.996   5.461   6.317 -0.9491 -1.4544  0.0141
14470TIP3    H264902   5.079   5.335   6.305  2.1159  0.5683 -0.5709
14471TIP3   OH264903   1.838   3.727  16.330 -0.4185  0.2605 -0.5410
14471TIP3    H164904   1.864   3.774  16.410 -1.1005 -0.5881  0.1940
14471TIP3    H264905   1.917   3.724  16.278  0.6190 -1.0304  1.0509
14472TIP3   OH264906   5.266   4.189  11.227  0.6133 -0.6338 -0.1118
14472TIP3    H164907   5.206   4.209  11.155 -0.4966  0.0974  0.9950
14472TIP3    H264908   5.213   4.198  11.306  1.4187 -2.9105  0.7447
14473TIP3   OH264909   1.027   2.718   2.519 -0.6110 -0.9041  0.7878
14473TIP3    H164910   1.026   2.774   2.442 -1.1232 -1.9170  0.0430
14473TIP3    H264911   1.117   2.724   2.553 -0.7957  0.7571  1.0299
14474TIP3   OH264912   6.809   6.696   2.865 -0.1324  0.3370  0.3283
14474TIP3    H164913   6.891   6.728   2.826  0.5180  0.4677  1.7654
14474TIP3    H264914   6.761   6.775   2.888 -0.0672  0.2677  0.7031
14475TIP3   OH264915   2.176   5.954   5.146  0.0605  0.3479 -0.1055
14475TIP3    H164916   2.213   5.901   5.216 -0.2488  0.2549 -0.0097
14475TIP3    H264917   2.201   5.909   5.066 -0.1087  0.1133 -0.0297
14476TIP3   OH264918   2.166   1.422  11.261 -0.6622  0.2447  0.0382
14476TIP3    H164919   2.206   1.456  11.180  0.8576 -1.2989  0.1179
14476TIP3    H264920   2.193   1.485  11.328  0.8554 -0.2465 -0.0853
14477TIP3   OH264921   3.466   1.394  16.606 -0.2039 -0.2866 -0.0763
14477TIP3    H164922   3.502   1.482  16.603 -1.6175  0.3132  0.3069
14477TIP3    H264923   3.474   1.367  16.697  0.8882 -0.8462 -0.3259
14478TIP3   OH264924   4.706   2.130  16.723 -1.1233 -0.2511 -0.0312
14478TIP3    H164925   4.770   2.137  16.794  0.5246 -0.7184 -1.4267
14478TIP3    H264926   4.707   2.037  16.700 -1.0497  0.0302 -1.1865
14479TIP3   OH264927   2.018   3.377  16.795  0.3376 -0.0229 -0.2540
14479TIP3    H164928   1.992   3.286  16.777  0.8328 -0.2263  0.0413
14479TIP3    H264929   2.073   3.371  16.873 -0.8251  0.7069  0.6338
14480TIP3   OH264930   2.148   2.437  13.196  0.2223  0.3079 -0.3898
14480TIP3    H164931   2.183   2.475  13.276  0.6448  0.4635 -0.6470
14480TIP3    H264932   2.174   2.497  13.127  0.6520 -0.3004 -0.7622
14481TIP3   OH264933   1.365   1.702   5.734  0.0021  0.2800  0.1078
14481TIP3    H164934   1.337   1.650   5.658 -0.0681 -0.2112  0.4697
14481TIP3    H264935   1.289   1.702   5.792 -0.0096  0.8196  0.0913
14482TIP3   OH264936   3.636   6.339  12.536 -0.0079 -0.2121  0.0155
14482TIP3    H164937   3.719   6.332  12.583  0.3840  0.4016 -0.5752
14482TIP3    H264938   3.582   6.268  12.571  1.1578 -1.3080 -0.3891
14483TIP3   OH264939   3.947   5.785   3.438  0.2444 -0.2025  0.3258
14483TIP3    H164940   3.954   5.692   3.461  1.0076 -0.0886  0.5742
14483TIP3    H264941   4.038   5.816   3.437 -0.0086  0.5485  0.2805
14484TIP3   OH264942   3.471   0.864  14.419  0.3372  0.8583 -0.2390
14484TIP3    H164943   3.545   0.915  14.452  0.5643  0.4380 -0.0952
14484TIP3    H264944   3.510   0.805  14.354  0.6471 -1.5422  2.0421
14485TIP3   OH264945   0.464   1.926  14.453  0.2214 -0.3460  0.7669
14485TIP3    H164946   0.435   1.835  14.441 -1.4213 -0.1165  2.7352
14485TIP3    H264947   0.545   1.919  14.503  0.6487 -0.7666  0.0256
14486TIP3   OH264948   1.553   0.158   3.051  0.4392  0.3069 -0.0709
14486TIP3    H164949   1.606   0.084   3.024  1.3230  0.5948  0.8563
14486TIP3    H264950   1.502   0.125   3.125 -0.1401  0.2482 -0.4896
14487TIP3   OH264951   5.222   2.811  15.988 -0.1998  0.0809  0.1545
14487TIP3    H164952   5.288   2.866  15.945  0.2488 -0.0146  0.7062
14487TIP3    H264953   5.225   2.838  16.080  1.8078 -2.5734  0.9225
14488TIP3   OH264954   5.513   2.375  11.694  0.0137  0.7278 -0.5227
14488TIP3    H164955   5.545   2.352  11.607 -0.3650  1.2993 -0.8193
14488TIP3    H264956   5.536   2.468  11.704  0.7213  0.4678  0.2887
14489TIP3   OH264957   3.884   2.766  12.817 -0.3605  0.9221  0.1603
14489TIP3    H164958   3.938   2.686  12.816 -1.7769 -0.1067 -3.1395
14489TIP3    H264959   3.862   2.779  12.909  0.3825 -2.1773  0.8436
14490TIP3   OH264960   2.480   6.210   4.800 -0.6152  0.5169 -0.8041
14490TIP3    H164961   2.518   6.126   4.778  1.3778  1.2361 -0.2499
14490TIP3    H264962   2.539   6.275   4.761 -1.7509  1.6713 -0.6740
14491TIP3   OH264963   1.894   2.873   5.075  0.3796  0.8826  0.1796
14491TIP3    H164964   1.860   2.953   5.114 -1.0323 -0.0268  0.8617
14491TIP3    H264965   1.862   2.803   5.132  1.5577 -0.1722 -0.4270
14492TIP3   OH264966   3.909   0.996   0.261 -0.1398  0.0968  0.0308
14492TIP3    H164967   3.957   0.951   0.191  1.8366  2.6486 -0.3207
14492TIP3    H264968   3.976   1.016   0.327 -1.3885  0.6022  1.1698
14493TIP3   OH264969   5.967   2.795  13.303  0.2471 -0.2939 -0.0748
14493TIP3    H164970   5.979   2.856  13.230  2.2285 -0.8251 -0.2196
14493TIP3    H264971   6.022   2.831  13.373 -0.2690 -0.7517  0.5678
14494TIP3   OH264972   5.265   2.339   0.050  0.0351  0.0150 -0.0444
14494TIP3    H164973   5.321   2.335   0.127 -0.5280  1.3849  0.4487
14494TIP3    H264974   5.320   2.304  -0.021  0.4630 -1.4994  1.0052
14495TIP3   OH264975   5.703   0.883  14.870  0.2649  0.2916 -0.6678
14495TIP3    H164976   5.773   0.829  14.906 -0.3573 -0.7429 -0.9931
14495TIP3    H264977   5.746   0.934  14.800  0.8324  0.1626 -0.4160
14496TIP3   OH264978   0.882   3.766   3.808 -0.3483  0.1866  0.5735
14496TIP3    H164979   0.871   3.835   3.873 -0.1618  0.7161  0.0495
14496TIP3    H264980   0.970   3.780   3.773  0.2642 -1.2248  1.5125
14497TIP3   OH264981   5.926   0.294  12.611 -0.2055 -0.6113 -0.2299
14497TIP3    H164982   5.900   0.254  12.528  0.7266 -0.4801 -0.5919
14497TIP3    H264983   5.988   0.231  12.649 -0.2062 -0.4068  0.1136
14498TIP3   OH264984   1.385   4.375   0.674  0.1765  0.0890  0.4329
14498TIP3    H164985   1.351   4.430   0.744 -3.9093 -1.3244 -0.3022
14498TIP3    H264986   1.428   4.302   0.719  0.7861  1.0689  1.4324
14499TIP3   OH264987   4.143   6.276   1.230 -0.1452  0.0412  0.3816
14499TIP3    H164988   4.239   6.268   1.228 -0.3599 -3.6328  0.9574
14499TIP3    H264989   4.118   6.296   1.140  1.1730  0.9121  0.2028
14500TIP3   OH264990   1.809   6.514  16.411  0.1887  0.4247  0.2350
14500TIP3    H164991   1.743   6.562  16.362  0.5871  1.9184  1.1072
14500TIP3    H264992   1.779   6.423  16.412 -1.3617  0.9338 -0.1476
14501TIP3   OH264993   1.483   0.492   5.885  0.2603  0.0013 -0.0990
14501TIP3    H164994   1.460   0.497   5.978  0.5511  0.2659 -0.0386
14501TIP3    H264995   1.579   0.485   5.885  0.2506 -0.1079 -0.3732
14502TIP3   OH264996   0.353   4.096   1.523 -0.0473  0.1119 -0.2037
14502TIP3    H164997   0.380   4.004   1.524  0.2771  0.2221  1.9146
14502TIP3    H264998   0.360   4.121   1.430  0.9843 -1.6656 -0.6383
14503TIP3   OH264999   0.465   0.336  10.659  0.1840  0.1565  0.2095
14503TIP3    H165000   0.447   0.262  10.717  1.0294 -0.0457  0.2213
14503TIP3    H265001   0.500   0.404  10.717 -0.3608  0.4819  0.1610
14504TIP3   OH265002   3.782   4.126  12.676  0.4635  0.1571 -0.3562
14504TIP3    H165003   3.735   4.198  12.719  0.4182  0.8936 -1.6025
14504TIP3    H265004   3.742   4.047  12.711 -0.9657  0.7690 -0.5739
14505TIP3   OH265005   2.094   5.908   3.628  0.6287  0.3218  0.9783
14505TIP3    H165006   2.013   5.933   3.584  0.0569 -2.3217  0.4681
14505TIP3    H265007   2.078   5.820   3.661  2.9950  0.1041  1.6545
14506TIP3   OH265008   3.641   2.427   3.752 -0.3342  0.4303  0.2484
14506TIP3    H165009   3.668   2.356   3.694 -1.4840 -0.9241  1.3585
14506TIP3    H265010   3.723   2.462   3.787  0.3186  0.6242 -1.4128
14507TIP3   OH265011   4.294   0.371  16.498 -0.4758 -0.0734 -0.4524
14507TIP3    H165012   4.215   0.339  16.456 -1.9066  2.8315 -0.0934
14507TIP3    H265013   4.301   0.462  16.469  1.8342  0.1922  0.8280
14508TIP3   OH265014   3.886   0.705  10.898 -0.4487  0.3071  0.1899
14508TIP3    H165015   3.823   0.633  10.891  0.5642 -0.7436  1.7897
14508TIP3    H265016   3.845   0.767  10.958  0.2345 -0.5832  1.5775
14509TIP3   OH265017   6.332   0.953  16.502 -0.2430  0.5385  0.1768
14509TIP3    H165018   6.397   0.977  16.436 -1.3973  2.3459 -0.3216
14509TIP3    H265019   6.355   1.007  16.578 -0.6370  0.5677  0.2761
14510TIP3   OH265020   2.185   2.240  14.567  0.0219 -0.5254 -0.3589
14510TIP3    H165021   2.184   2.258  14.661 -2.9021 -3.2696  0.2480
14510TIP3    H265022   2.104   2.280  14.535  1.6255  1.5085 -2.0068
14511TIP3   OH265023   4.719   4.810  12.297  0.2143  0.1160  0.2935
14511TIP3    H165024   4.739   4.799  12.390 -0.7419  0.1890  0.5159
14511TIP3    H265025   4.745   4.900  12.277  1.9548 -0.4196  0.0774
14512TIP3   OH265026   4.152   6.615  16.648 -0.2121 -0.1837 -0.2901
14512TIP3    H165027   4.203   6.690  16.618 -1.1753  0.3380 -0.6469
14512TIP3    H265028   4.062   6.646  16.648 -0.4541 -0.8473  1.1171
14513TIP3   OH265029   3.048   6.665  17.274 -0.0211  0.3981 -0.5095
14513TIP3    H165030   3.063   6.738  17.215  2.2415  0.6964  0.4168
14513TIP3    H265031   3.129   6.614  17.272 -1.4466 -1.9424 -0.9117
14514TIP3   OH265032   4.882   6.474  15.726 -0.0485  0.7222 -0.2568
14514TIP3    H165033   4.889   6.422  15.807  0.2323 -0.0779 -0.7836
14514TIP3    H265034   4.792   6.506  15.726 -0.8792 -1.5071 -0.9407
14515TIP3   OH265035   5.537   0.263   2.536  0.6687  0.4463 -0.4065
14515TIP3    H165036   5.564   0.200   2.469 -1.4191 -0.0831 -0.7608
14515TIP3    H265037   5.619   0.305   2.563  2.4923 -4.0545  1.5765
14516TIP3   OH265038   6.730   5.737  17.104  0.2530  0.2822 -0.5584
14516TIP3    H165039   6.659   5.799  17.118  0.5562  0.3914  0.5559
14516TIP3    H265040   6.808   5.792  17.095  0.4419  0.0937 -0.0944
14517TIP3   OH265041   3.871   0.358   6.459 -0.5597  0.4543  0.7063
14517TIP3    H165042   3.901   0.415   6.530  0.1623  1.2237 -0.2068
14517TIP3    H265043   3.819   0.415   6.403 -1.7267 -0.3196  0.9905
14518TIP3   OH265044   4.189   4.023  13.307  0.4971 -0.6572  0.1476
14518TIP3    H165045   4.145   4.060  13.231  1.5314 -1.1519 -0.7043
14518TIP3    H265046   4.201   3.930  13.285  0.4575 -0.8847  1.0725
14519TIP3   OH265047   2.449   3.633  14.038 -0.2857  0.2230  0.4423
14519TIP3    H165048   2.496   3.716  14.038 -0.5590  0.3820  1.0112
14519TIP3    H265049   2.514   3.568  14.065  0.4853 -0.0844 -2.0782
14520TIP3   OH265050   2.594   3.737  15.491 -0.3388  0.1933 -0.4108
14520TIP3    H165051   2.557   3.824  15.509 -1.4180 -0.4205  0.3607
14520TIP3    H265052   2.676   3.756  15.446 -0.6076  1.6225 -0.3429
14521TIP3   OH265053   1.404   3.610  12.976 -0.5623 -0.7273 -0.1191
14521TIP3    H165054   1.328   3.667  12.987  0.0684  0.3937 -1.4633
14521TIP3    H265055   1.422   3.611  12.882  1.0303 -1.0713  0.1632
14522TIP3   OH265056   0.434   2.381  16.085  0.4007 -0.2018  0.6589
14522TIP3    H165057   0.383   2.442  16.032  2.1098  0.6757 -0.0345
14522TIP3    H265058   0.470   2.435  16.156  2.5145 -0.2186 -0.3683
14523TIP3   OH265059   4.163   6.418  12.457 -0.1548  0.5651  0.1547
14523TIP3    H165060   4.186   6.444  12.546 -0.3164 -0.1295  0.4096
14523TIP3    H265061   4.141   6.325  12.464 -0.6288  0.6157 -0.5251
14524TIP3   OH265062   4.704   2.154   4.856 -0.0422  0.0579  0.6698
14524TIP3    H165063   4.726   2.200   4.775  2.9121  1.3659  2.1229
14524TIP3    H265064   4.648   2.216   4.904 -1.6504 -0.6480 -0.2596
14525TIP3   OH265065   3.761   4.087  14.071 -0.0770  0.8891  0.5058
14525TIP3    H165066   3.743   3.996  14.045  1.1179  0.3686  1.4236
14525TIP3    H265067   3.678   4.132  14.059 -0.9351 -0.5367  0.8972
14526TIP3   OH265068   5.093   0.614  16.007  0.1007  0.3024  0.5373
14526TIP3    H165069   5.058   0.557  16.076  0.1594  1.0140  1.1646
14526TIP3    H265070   5.132   0.688  16.055  0.5842  0.5517 -0.2427
14527TIP3   OH265071   0.496   3.929  15.102  0.1970 -0.1962 -0.0352
14527TIP3    H165072   0.441   3.895  15.173  0.3331 -1.1628 -0.3863
14527TIP3    H265073   0.458   3.892  15.022 -0.4440  1.5216 -0.5635
14528TIP3   OH265074   4.962   1.410  14.452 -0.4004  0.2085 -0.2849
14528TIP3    H165075   4.950   1.472  14.524 -0.7447  0.3768 -0.4886
14528TIP3    H265076   5.011   1.459  14.386 -1.5864  0.6038 -0.8871
14529TIP3   OH265077   4.793   4.114  11.007 -0.9543  0.5471 -0.0629
14529TIP3    H165078   4.745   4.116  10.924  0.2458 -0.0737 -0.7998
14529TIP3    H265079   4.727   4.130  11.074 -2.2844 -0.7939 -1.0108
14530TIP3   OH265080   1.536   1.199   4.727 -0.4674 -0.6302 -0.0005
14530TIP3    H165081   1.567   1.128   4.671 -0.4630  0.0304 -0.8506
14530TIP3    H265082   1.607   1.263   4.727 -0.2044 -0.9053  1.2904
14531TIP3   OH265083   3.243   0.119   4.374 -0.1900  0.0484 -0.2739
14531TIP3    H165084   3.232   0.203   4.330 -1.1944 -0.8790 -1.8490
14531TIP3    H265085   3.337   0.103   4.372 -0.2680 -0.2722 -2.6956
14532TIP3   OH265086   3.158   5.866   5.100 -0.3298 -0.3013  0.6067
14532TIP3    H165087   3.252   5.850   5.109 -0.3520  0.4799  2.5035
14532TIP3    H265088   3.153   5.942   5.042  0.2012 -0.5744  0.1987
14533TIP3   OH265089   5.437   4.530  12.767 -0.2721 -0.4093 -0.2127
14533TIP3    H165090   5.499   4.485  12.709 -0.5599 -1.5360  0.3287
14533TIP3    H265091   5.403   4.602  12.714  0.9843 -0.1834 -0.7478
14534TIP3   OH265092   1.020   6.185   4.376 -0.5729 -0.3863 -0.7497
14534TIP3    H165093   0.943   6.242   4.376 -1.3087 -1.3677 -0.1600
14534TIP3    H265094   0.985   6.098   4.391  0.2691 -1.3931 -4.1976
14535TIP3   OH265095   3.906   2.976  16.431  0.0335 -0.2173  0.2327
14535TIP3    H165096   3.870   3.025  16.357  1.8240 -0.1283 -0.6223
14535TIP3    H265097   3.880   2.885  16.414 -4.3333  0.4946  2.4548
14536TIP3   OH265098   0.955   6.637   5.346 -0.0407  0.7393  0.0000
14536TIP3    H165099   0.951   6.602   5.256 -1.8006 -1.6649  0.9552
14536TIP3    H265100   0.935   6.730   5.337 -2.5071  0.0720 -1.8765
14537TIP3   OH265101   1.497   0.456   1.413  0.6777 -0.5936  0.2513
14537TIP3    H165102   1.488   0.383   1.473 -0.6508 -0.2747  0.4483
14537TIP3    H265103   1.575   0.503   1.444 -0.8442  0.4371  2.6904
14538TIP3   OH265104   4.468   4.293  10.355 -0.2146  0.7269  0.5017
14538TIP3    H165105   4.488   4.255  10.440 -2.4496 -0.8029  0.3628
14538TIP3    H265106   4.537   4.359  10.342  1.8360 -1.0011  2.1839
14539TIP3   OH265107   4.156   2.368   2.683  0.5090 -0.3871  0.1230
14539TIP3    H165108   4.078   2.379   2.737  1.5442  1.3582  1.3496
14539TIP3    H265109   4.148   2.281   2.645 -1.8472 -0.3662  0.5031
14540TIP3   OH265110   5.443   1.174   3.144 -0.3623 -0.5662  0.1479
14540TIP3    H165111   5.521   1.172   3.200 -2.0897  0.7151  2.7009
14540TIP3    H265112   5.384   1.110   3.184 -1.1840 -0.4608 -0.8915
14541TIP3   OH265113   0.015   5.840   1.575 -0.1536  0.6383 -0.6447
14541TIP3    H165114   0.094   5.786   1.581 -0.1474  0.6320 -0.7714
14541TIP3    H265115  -0.038   5.814   1.650  0.0935  0.8457 -0.3950
14542TIP3   OH265116   2.929   3.204   3.456 -0.2071 -0.8539 -0.1656
14542TIP3    H165117   2.836   3.185   3.444 -0.2226  0.3085 -2.1072
14542TIP3    H265118   2.955   3.248   3.375  1.9592 -0.8696  0.4892
14543TIP3   OH265119   3.322   1.343   2.778 -0.5160 -0.2818 -0.2696
14543TIP3    H165120   3.328   1.258   2.822 -1.3442 -1.0451 -1.5955
14543TIP3    H265121   3.378   1.334   2.701  2.4440  1.6837  1.5566
14544TIP3   OH265122   5.813   3.867   6.616 -0.3193  0.5747  0.6910
14544TIP3    H165123   5.877   3.937   6.632 -0.8432  1.1122  0.4116
14544TIP3    H265124   5.854   3.789   6.655  1.0649  0.6415 -0.5686
14545TIP3   OH265125   3.488   3.719  13.830  0.7630  0.0541  0.5790
14545TIP3    H165126   3.431   3.696  13.903  0.6024 -1.6050 -0.0592
14545TIP3    H265127   3.429   3.756  13.764  0.4881 -1.1616  0.1337
14546TIP3   OH265128   3.714   5.599  16.084 -0.4105 -0.1791 -0.0196
14546TIP3    H165129   3.749   5.675  16.130  0.0310 -1.4187  1.7274
14546TIP3    H265130   3.624   5.591  16.116 -0.3395 -0.6121  0.0722
14547TIP3   OH265131   1.222   5.022   1.380 -0.2003 -0.0474  0.5931
14547TIP3    H165132   1.206   4.938   1.337  0.0061  0.5112 -0.6176
14547TIP3    H265133   1.182   5.014   1.466 -1.9346 -0.6781 -0.2683
14548TIP3   OH265134   5.292   4.004  14.987  0.0452 -0.3803  0.2513
14548TIP3    H165135   5.231   4.072  14.958  0.0117  0.5362  2.3870
14548TIP3    H265136   5.379   4.038  14.967 -0.0180 -0.1845  0.3107
14549TIP3   OH265137   3.991   1.535   0.504  0.5879  0.2692 -0.4737
14549TIP3    H165138   3.910   1.584   0.518  2.0034  2.0295  2.0472
14549TIP3    H265139   4.053   1.601   0.473  1.5514 -0.6941 -0.5937
14550TIP3   OH265140   5.097   2.151   5.357 -0.7549 -0.1034  0.3155
14550TIP3    H165141   5.165   2.205   5.318  0.5975 -1.7477  0.3517
14550TIP3    H265142   5.064   2.098   5.285 -2.0195  0.6742  0.2990
14551TIP3   OH265143   4.044   2.792   2.041 -0.6260  0.2987 -0.0037
14551TIP3    H165144   3.964   2.844   2.049 -2.2377 -1.6261 -2.8042
14551TIP3    H265145   4.072   2.804   1.951  1.5776 -0.0442  0.5997
14552TIP3   OH265146   5.891   5.121   6.026 -0.1206  0.0408 -0.0039
14552TIP3    H165147   5.919   5.103   6.116  0.4017  0.2860 -0.1163
14552TIP3    H265148   5.861   5.036   5.993  1.8326 -0.5425 -0.3548
14553TIP3   OH265149   5.603   5.262   2.676 -0.4110  0.1429 -0.3028
14553TIP3    H165150   5.621   5.188   2.735  2.3411 -2.3676 -3.9986
14553TIP3    H265151   5.682   5.316   2.681 -1.0772  1.0948 -0.0500
14554TIP3   OH265152   5.599   1.142  12.363 -0.4190 -0.2704  0.6453
14554TIP3    H165153   5.694   1.148  12.355 -0.4478 -0.9812 -0.1728
14554TIP3    H265154   5.567   1.139  12.273 -1.3294  1.6761  0.8688
14555TIP3   OH265155   6.722   5.490   0.742  0.3443 -0.6203 -0.0178
14555TIP3    H165156   6.758   5.430   0.677 -2.2392 -0.2220 -1.8780
14555TIP3    H265157   6.763   5.575   0.722 -1.0613 -0.3182 -1.6742
14556TIP3   OH265158   1.409   6.050   0.448  0.3329  0.7380  0.0497
14556TIP3    H165159   1.330   6.032   0.396  0.8152 -0.5720 -0.2463
14556TIP3    H265160   1.376   6.066   0.537 -0.1554 -1.4642  0.2863
14557TIP3   OH265161   2.162   3.029   5.307  0.4213 -0.6404 -0.3554
14557TIP3    H165162   2.220   3.054   5.378 -0.7236 -1.0086  0.7229
14557TIP3    H265163   2.173   2.934   5.299 -0.1033 -0.7256 -0.0808
14558TIP3   OH265164   0.009   5.140   5.239  0.6376  0.2704 -0.4080
14558TIP3    H165165   0.016   5.233   5.259 -0.0153  0.3815 -0.6590
14558TIP3    H265166   0.061   5.096   5.306 -0.9433  0.6701  1.1194
14559TIP3   OH265167   6.138   1.206  10.849 -0.2190  0.1776  0.0319
14559TIP3    H165168   6.217   1.160  10.879 -0.9637 -1.1782 -0.0564
14559TIP3    H265169   6.169   1.293  10.826  1.2077 -0.2430  0.2894
14560TIP3   OH265170   0.226   4.573  15.188  0.6379 -0.2894  0.8463
14560TIP3    H165171   0.273   4.656  15.189 -0.0274  0.1429 -1.0764
14560TIP3    H265172   0.192   4.563  15.277  0.2744  1.7535  0.9610
14561TIP3   OH265173   4.328   6.097  11.772  0.3450 -0.2039 -0.1195
14561TIP3    H165174   4.286   6.011  11.773  1.5353 -0.7853  1.6377
14561TIP3    H265175   4.344   6.115  11.679 -0.2456 -1.7137 -0.5229
14562TIP3   OH265176   3.544   6.158  16.268  0.6398 -0.1341  0.2736
14562TIP3    H165177   3.471   6.097  16.254 -0.3608  0.7001  1.7305
14562TIP3    H265178   3.521   6.235  16.218  0.5951  0.0663  0.5992
14563TIP3   OH265179   3.373   3.634   1.187  0.2275 -0.7169  0.0024
14563TIP3    H165180   3.359   3.686   1.266  0.9305  0.0466 -0.3608
14563TIP3    H265181   3.285   3.606   1.160 -0.0393 -0.7291  0.8811
14564TIP3   OH265182   2.100   5.925  12.806 -0.5093 -0.2403  0.5395
14564TIP3    H165183   2.162   5.981  12.853 -0.1134 -0.8958  0.8013
14564TIP3    H265184   2.015   5.946  12.845 -0.4801  0.7370  0.1084
14565TIP3   OH265185   2.272   1.750  13.357 -0.5530  0.7383  0.0963
14565TIP3    H165186   2.236   1.666  13.329 -0.1395  0.0008  1.7142
14565TIP3    H265187   2.334   1.773  13.287 -0.3578 -0.5028 -0.1668
14566TIP3   OH265188   1.465   4.816   4.892 -0.3628  0.3791  0.0822
14566TIP3    H165189   1.488   4.866   4.970 -1.3650  1.4784 -0.3272
14566TIP3    H265190   1.377   4.782   4.910 -0.1200 -0.3624 -0.0890
14567TIP3   OH265191   4.620   5.428   3.643  0.2856 -0.0450  0.2444
14567TIP3    H165192   4.592   5.518   3.629 -0.2388 -0.2784 -0.2270
14567TIP3    H265193   4.714   5.429   3.625 -0.0231  0.0726 -1.4114
14568TIP3   OH265194   6.640   1.806  11.765 -0.1039  0.4566 -0.0436
14568TIP3    H165195   6.589   1.886  11.776  0.3513  0.7250  0.0899
14568TIP3    H265196   6.715   1.816  11.823 -0.8396 -0.7318  1.1605
14569TIP3   OH265197   3.697   3.905   6.123  0.4958  0.1156  0.3705
14569TIP3    H165198   3.607   3.887   6.096 -0.4854  2.3778  1.9542
14569TIP3    H265199   3.719   3.833   6.182 -0.3328 -0.3848  0.0788
14570TIP3   OH265200   4.718   0.062   3.883  0.0735 -0.0649 -0.0314
14570TIP3    H165201   4.721   0.026   3.972 -0.5009  1.6471  0.6942
14570TIP3    H265202   4.809   0.068   3.856  0.2082 -1.4982  0.0577
14571TIP3   OH265203   3.270   4.162   3.474 -0.5104 -0.2005  0.4749
14571TIP3    H165204   3.318   4.085   3.505  0.0622 -0.1673 -0.3087
14571TIP3    H265205   3.274   4.224   3.547  2.5558  0.6634 -0.3363
14572TIP3   OH265206   6.421   6.754   1.243 -0.0629 -0.7623 -0.4839
14572TIP3    H165207   6.326   6.758   1.229  0.4969  0.6663 -4.4556
14572TIP3    H265208   6.445   6.842   1.272 -0.0895 -1.5345  2.0200
14573TIP3   OH265209   2.019   2.735   3.388  0.2835  0.6589  0.0024
14573TIP3    H165210   2.023   2.817   3.436  0.9969  0.3838  0.4308
14573TIP3    H265211   2.073   2.750   3.310  1.1800  0.3181  0.5377
14574TIP3   OH265212   5.580   4.793   1.827  0.2414 -0.6464 -0.1338
14574TIP3    H165213   5.623   4.878   1.838 -0.1218 -0.4332 -0.3427
14574TIP3    H265214   5.598   4.747   1.909  1.1305 -0.6835 -0.3492
14575TIP3   OH265215   1.303   4.678   3.630 -0.1247  0.0080  0.4545
14575TIP3    H165216   1.375   4.618   3.608 -0.2186  0.1228 -0.1722
14575TIP3    H265217   1.273   4.711   3.546 -1.4816 -0.7045  0.6522
14576TIP3   OH265218   0.047   1.572   4.232  0.1166  0.6352  0.1867
14576TIP3    H165219  -0.038   1.555   4.273 -0.5725 -0.5504 -1.6297
14576TIP3    H265220   0.037   1.537   4.143  2.2354  1.2480 -0.3103
14577TIP3   OH265221   6.050   5.932   3.732 -0.9087 -0.3094 -0.1680
14577TIP3    H165222   6.101   5.852   3.720 -0.9905 -0.5975  1.2903
14577TIP3    H265223   5.972   5.904   3.780 -0.2189  0.8627  1.7198
14578TIP3   OH265224   4.289   5.628  11.783 -0.1274 -0.3398  0.1082
14578TIP3    H165225   4.331   5.632  11.697 -1.4556 -0.6953 -0.5634
14578TIP3    H265226   4.255   5.539  11.790 -0.6389 -0.1071  0.7018
14579TIP3   OH265227   0.937   0.618  11.476 -0.0055  0.0531 -0.3077
14579TIP3    H165228   0.882   0.693  11.500 -0.5651  0.2629 -2.2211
14579TIP3    H265229   0.887   0.542  11.506 -0.4264  0.3410 -0.2671
14580TIP3   OH265230   5.105   6.126   0.149 -0.7815  0.3483 -0.6706
14580TIP3    H165231   5.017   6.163   0.148 -0.7051  0.7693  2.1238
14580TIP3    H265232   5.162   6.197   0.118 -1.1549  0.9507  0.0184
14581TIP3   OH265233   4.983   6.308  16.686 -0.1554 -0.1366  0.5056
14581TIP3    H165234   4.892   6.331  16.704  0.2114  1.7056  0.0435
14581TIP3    H265235   5.008   6.252  16.760 -1.0770  0.9150  1.6358
14582TIP3   OH265236   6.720   0.660   4.921 -0.1298 -0.8094  0.9142
14582TIP3    H165237   6.773   0.737   4.901 -1.4190 -0.0110  0.4735
14582TIP3    H265238   6.742   0.638   5.011 -0.4004  0.6309  1.3455
14583TIP3   OH265239   0.001   0.423  15.112 -0.1016  0.2451  0.0237
14583TIP3    H165240  -0.010   0.358  15.042  1.1491  2.0993 -1.9769
14583TIP3    H265241   0.093   0.418  15.136 -0.2921  0.3607  0.8014
14584TIP3   OH265242   2.984   6.338  10.971 -0.3555  0.0497  0.2223
14584TIP3    H165243   3.024   6.421  10.945  1.6214 -1.3111 -1.2302
14584TIP3    H265244   2.929   6.313  10.897 -1.6688  0.4821  1.0295
14585TIP3   OH265245   5.039   3.038  11.618 -0.1656  0.3782 -0.3305
14585TIP3    H165246   4.959   2.988  11.605  0.1704  0.3867 -2.7348
14585TIP3    H265247   5.074   3.051  11.529  0.8649  3.0220  0.4069
14586TIP3   OH265248   2.528   1.265   1.089 -0.6533  0.0728 -0.1481
14586TIP3    H165249   2.547   1.208   1.014  0.1885 -1.7155  1.4022
14586TIP3    H265250   2.433   1.259   1.100 -0.8467  0.6918 -1.3062
14587TIP3   OH265251   3.291   3.481  14.916  0.1002 -0.1515 -0.5493
14587TIP3    H165252   3.302   3.477  15.011  1.9186  0.4143 -0.7206
14587TIP3    H265253   3.204   3.443  14.900 -0.2168 -0.2463  1.3255
14588TIP3   OH265254   1.957   6.179  11.536  0.1039 -0.2339  0.1219
14588TIP3    H165255   1.961   6.251  11.598  1.3493  0.5684 -0.8723
14588TIP3    H265256   1.864   6.154  11.534 -0.3382  1.3494  0.4554
14589TIP3   OH265257   6.114   4.317   3.011 -0.5582  0.4519  0.3341
14589TIP3    H165258   6.125   4.354   3.099  0.6082  0.7190  0.0802
14589TIP3    H265259   6.054   4.378   2.967  0.2306  1.2762  0.3863
14590TIP3   OH265260   4.784   5.940  10.652  0.2180 -0.4146 -0.3778
14590TIP3    H165261   4.754   5.980  10.570  0.7414 -0.2956 -0.5176
14590TIP3    H265262   4.875   5.914  10.634  0.1752 -0.8402  0.0056
14591TIP3   OH265263   4.010   0.711  16.463 -0.6362 -0.0125  0.1479
14591TIP3    H165264   4.082   0.674  16.514  0.0647 -0.5408 -1.2000
14591TIP3    H265265   4.048   0.787  16.420  0.4255 -2.7536 -4.0540
14592TIP3   OH265266   0.804   3.579   0.027 -0.6670  0.0925 -0.2295
14592TIP3    H165267   0.830   3.521   0.098 -0.9535  0.5502  0.2576
14592TIP3    H265268   0.801   3.523  -0.051 -0.6710 -0.4818  0.1823
14593TIP3   OH265269   5.515   2.999  14.627 -0.4079 -0.1925 -0.1147
14593TIP3    H165270   5.492   2.907  14.619 -1.7500  0.0873  0.4494
14593TIP3    H265271   5.611   2.999  14.636 -0.5037 -1.6161  1.1219
14594TIP3   OH265272   2.858   6.658  13.324  0.7295 -0.5032  0.4354
14594TIP3    H165273   2.951   6.634  13.324  0.5288 -1.2982  2.4277
14594TIP3    H265274   2.858   6.751  13.301  1.9396 -0.7052 -0.4757
14595TIP3   OH265275   4.851   0.897   4.720 -0.1430 -0.3596  0.2228
14595TIP3    H165276   4.895   0.815   4.701  0.2642  0.1835 -1.2576
14595TIP3    H265277   4.770   0.894   4.669 -1.7966 -1.2703  2.7830
14596TIP3   OH265278   5.050   2.496   5.223 -0.0898 -0.3902  0.5489
14596TIP3    H165279   5.086   2.582   5.202 -0.4253  0.1960  2.2609
14596TIP3    H265280   5.076   2.480   5.313  0.6434 -2.4621 -0.0031
14597TIP3   OH265281   5.385   0.899  15.275  0.5465 -0.0544 -0.2263
14597TIP3    H165282   5.433   0.876  15.355  0.5990 -0.6765 -0.4348
14597TIP3    H265283   5.306   0.943  15.306  1.2490  0.9712  0.1204
14598TIP3   OH265284   0.303   3.255   0.448  0.1787  0.0230 -0.4778
14598TIP3    H165285   0.376   3.279   0.505 -1.0076 -0.6208  1.3340
14598TIP3    H265286   0.299   3.327   0.384  0.8691  1.2971  0.8693
14599TIP3   OH265287   2.334   0.477  15.564  0.3765 -0.2600 -0.0960
14599TIP3    H165288   2.298   0.390  15.579  1.4463 -0.3123  2.3720
14599TIP3    H265289   2.407   0.463  15.504  0.2937 -1.0064 -0.0244
14600TIP3   OH265290   2.403   1.065   5.643 -0.0310  0.1320 -0.2817
14600TIP3    H165291   2.426   1.145   5.690 -1.4672 -0.2405  1.1289
14600TIP3    H265292   2.333   1.093   5.584 -0.2631  0.0180 -0.0656
14601TIP3   OH265293   0.990   6.611   5.048  0.1490  0.4739 -0.0535
14601TIP3    H165294   0.934   6.540   5.016  2.1078 -1.7379  1.2773
14601TIP3    H265295   1.055   6.624   4.979  0.9484 -0.3895  0.5187
14602TIP3   OH265296   1.546   6.018   5.561  0.4252  0.6379  0.0829
14602TIP3    H165297   1.628   6.056   5.527 -0.2462  0.3197 -1.9752
14602TIP3    H265298   1.504   6.090   5.607  0.4900  1.6451 -1.3942
14603TIP3   OH265299   3.678   3.641   5.203 -0.2843  0.4057  1.3140
14603TIP3    H165300   3.718   3.722   5.173 -1.1815  1.0984  1.9267
14603TIP3    H265301   3.620   3.614   5.132  2.7762 -1.7354 -0.4629
14604TIP3   OH265302   5.107   0.818  13.508  0.3764  0.1968 -0.4258
14604TIP3    H165303   5.074   0.817  13.418  0.4720  0.6021 -0.4647
14604TIP3    H265304   5.032   0.793  13.561 -0.2094  1.8509 -0.4443
14605TIP3   OH265305   0.014   2.081  11.234 -0.8225 -0.1104  0.2690
14605TIP3    H165306  -0.039   2.018  11.186 -1.4696  2.2260 -2.1840
14605TIP3    H265307   0.104   2.055  11.216 -1.0244  1.2958 -3.1363
14606TIP3   OH265308   6.643   5.957  15.399 -0.1677 -0.1114  0.0069
14606TIP3    H165309   6.660   5.867  15.427 -0.2575  0.3209  1.4698
14606TIP3    H265310   6.560   5.952  15.351  0.5525 -1.0429 -1.1759
14607TIP3   OH265311   6.434   1.442   2.592 -0.0920  0.4014  0.1895
14607TIP3    H165312   6.432   1.415   2.500 -1.8135  0.6839  0.1231
14607TIP3    H265313   6.350   1.486   2.606 -0.0566 -0.0579  2.0165
14608TIP3   OH265314   2.692   4.759   0.725  0.5182  0.2646 -0.0681
14608TIP3    H165315   2.610   4.783   0.767  0.2716 -1.2794  0.3600
14608TIP3    H265316   2.739   4.842   0.715 -1.2915  1.2379 -0.7731
14609TIP3   OH265317   4.055   1.723  16.288 -0.1713  0.0119  0.3075
14609TIP3    H165318   4.043   1.817  16.299 -0.4382  0.0340 -0.1573
14609TIP3    H265319   3.966   1.688  16.289 -0.0971 -0.1818 -0.0084
14610TIP3   OH265320   1.334   3.968  14.827 -0.5084  0.2773 -0.6630
14610TIP3    H165321   1.354   3.876  14.847 -1.3998  0.1614 -0.2823
14610TIP3    H265322   1.420   4.008  14.813 -0.1443 -0.7593 -1.5077
14611TIP3   OH265323   0.579   0.241   6.161  0.0576  0.0307 -0.5880
14611TIP3    H165324   0.625   0.250   6.245 -2.0726 -0.2494  0.6345
14611TIP3    H265325   0.591   0.149   6.138  1.9182  0.4402 -1.3751
14612TIP3   OH265326   0.815   0.917  17.168 -1.0775 -0.2450 -0.5574
14612TIP3    H165327   0.855   0.856  17.107 -1.3045 -1.3131  0.3373
14612TIP3    H265328   0.848   0.891  17.254 -2.5378 -0.2298  0.0311
14613TIP3   OH265329   2.254   2.538  15.470 -0.4308  0.0393  0.3610
14613TIP3    H165330   2.252   2.444  15.453 -0.5552  0.5049 -2.3757
14613TIP3    H265331   2.165   2.559  15.498 -0.4810 -0.6039  0.6894
14614TIP3   OH265332   1.179   5.126   2.222  0.2587 -0.0054  0.2693
14614TIP3    H165333   1.173   5.215   2.186 -0.4995 -0.2092 -0.1236
14614TIP3    H265334   1.109   5.123   2.287  1.5291  0.3142  1.6687
14615TIP3   OH265335   3.097   2.499   0.495  0.0639  0.4435 -0.4332
14615TIP3    H165336   3.130   2.412   0.471  1.3802  0.8865 -0.2972
14615TIP3    H265337   3.035   2.482   0.567 -0.6284 -0.4872 -1.2405
14616TIP3   OH265338   4.185   1.338  14.004  0.4223  0.0382  0.2607
14616TIP3    H165339   4.236   1.373  14.077  0.6313  1.0098 -0.3465
14616TIP3    H265340   4.247   1.282  13.956  0.7311  0.6584 -0.0733
14617TIP3   OH265341   4.666   0.547   3.752  0.0876 -0.6820  0.3103
14617TIP3    H165342   4.594   0.488   3.773 -0.6836 -0.4741 -1.7403
14617TIP3    H265343   4.711   0.506   3.678  1.1747 -0.0386  0.5909
14618TIP3   OH265344   2.384   3.644  11.584  0.2526 -0.0647  0.2735
14618TIP3    H165345   2.374   3.690  11.667 -0.2222 -0.3868  0.3967
14618TIP3    H265346   2.476   3.617  11.582  0.5652  1.0087  0.1363
14619TIP3   OH265347   2.989   3.773  14.312 -0.0543  0.3447  0.3403
14619TIP3    H165348   3.043   3.740  14.383 -0.3758  1.4965  1.1270
14619TIP3    H265349   3.003   3.868  14.313  0.3635  0.3219 -1.4764
14620TIP3   OH265350   0.168   2.971   4.730 -0.0398  0.0085  0.3171
14620TIP3    H165351   0.220   2.963   4.810  0.9607  1.5131 -0.1620
14620TIP3    H265352   0.223   3.024   4.671 -1.3910  0.1651 -0.8149
14621TIP3   OH265353   0.881   4.224   6.563 -0.9389 -0.2960  0.2452
14621TIP3    H165354   0.811   4.239   6.628  0.2488 -0.1075  1.5025
14621TIP3    H265355   0.911   4.135   6.580  0.9739  0.5693  1.5396
14622TIP3   OH265356   0.895   6.728  15.567  0.4268 -0.6777  0.7442
14622TIP3    H165357   0.815   6.775  15.592  1.6492  1.6525  0.3964
14622TIP3    H265358   0.929   6.777  15.492  2.2421 -1.5753  0.9565
14623TIP3   OH265359   0.445   5.699   0.660  0.1687 -0.5624  0.4974
14623TIP3    H165360   0.511   5.638   0.692 -2.4906 -2.4975  2.5199
14623TIP3    H265361   0.434   5.762   0.731 -1.7180 -1.5564  1.1137
14624TIP3   OH265362   1.691   3.902  15.668 -0.4161 -0.5047  0.2766
14624TIP3    H165363   1.772   3.954  15.663  0.6686 -2.0475  1.4376
14624TIP3    H265364   1.675   3.874  15.578 -0.3066  0.7647 -0.1491
14625TIP3   OH265365   1.936   3.242  11.968 -0.3207 -0.4768  0.2195
14625TIP3    H165366   1.981   3.219  11.887 -1.8832 -0.5012 -0.6789
14625TIP3    H265367   1.954   3.335  11.980  1.3971 -0.8782  0.8299
14626TIP3   OH265368   2.373   2.046   2.310  0.5088  0.0112  0.0777
14626TIP3    H165369   2.379   2.128   2.262  1.5718 -1.4866 -2.4463
14626TIP3    H265370   2.318   1.990   2.255 -0.1669 -0.9841  1.7353
14627TIP3   OH265371   4.797   5.652  14.285  0.5788  0.4274 -0.0289
14627TIP3    H165372   4.800   5.564  14.248  0.4259  0.8559 -1.0779
14627TIP3    H265373   4.754   5.641  14.370 -2.8494  0.0391 -1.7567
14628TIP3   OH265374   2.055   6.681  12.907  0.3750  0.0926 -0.0575
14628TIP3    H165375   2.024   6.638  12.827  0.8111  1.2224 -0.8429
14628TIP3    H265376   1.995   6.754  12.920 -1.4030 -1.7011  2.2297
14629TIP3   OH265377   2.501   1.509  13.563  0.3235  0.6262 -0.4313
14629TIP3    H165378   2.508   1.553  13.648 -1.0647 -0.2946  0.1793
14629TIP3    H265379   2.473   1.420  13.585 -0.6102  0.5570 -1.9035
14630TIP3   OH265380   2.817   4.299   4.738  0.3718  0.3183  0.2331
14630TIP3    H165381   2.739   4.280   4.791 -0.3153  2.2143 -0.0630
14630TIP3    H265382   2.857   4.375   4.781  1.8376 -0.3976  0.1440
14631TIP3   OH265383   2.123   3.474   3.658  0.2378 -0.0302  0.1253
14631TIP3    H165384   2.081   3.390   3.680  1.1479 -0.8106 -1.0460
14631TIP3    H265385   2.184   3.489   3.730 -0.7256  0.1865  0.9018
14632TIP3   OH265386   6.313   5.050   3.542  0.1798  0.4130 -0.0618
14632TIP3    H165387   6.291   4.981   3.604  0.7206  0.9180  0.7140
14632TIP3    H265388   6.408   5.059   3.550  0.2757  0.3255 -1.1339
14633TIP3   OH265389   5.702   4.358  12.529 -0.0179  0.3341  0.0623
14633TIP3    H165390   5.613   4.323  12.534 -0.1136  0.4251 -0.8923
14633TIP3    H265391   5.754   4.286  12.494 -0.3643  1.3639 -2.6867
14634TIP3   OH265392   1.179   6.394   1.027  0.0127  0.9451 -0.4218
14634TIP3    H165393   1.161   6.336   1.101  1.6513  0.2204 -0.5673
14634TIP3    H265394   1.169   6.338   0.950  1.0507  0.9653 -0.5889
14635TIP3   OH265395   3.527   1.375  16.875 -0.2013 -0.2216  0.3505
14635TIP3    H165396   3.521   1.299  16.933 -0.2366 -0.2650  0.2908
14635TIP3    H265397   3.602   1.424  16.907  1.6625 -1.8232 -1.4296
14636TIP3   OH265398   4.446   0.366   6.071  0.1068 -0.4489 -0.1491
14636TIP3    H165399   4.388   0.410   6.133  1.2682 -0.3285  0.8914
14636TIP3    H265400   4.534   0.377   6.109  0.7304 -1.1813 -1.3444
14637TIP3   OH265401   2.088   2.851  15.602 -0.1113  0.4470  0.6954
14637TIP3    H165402   2.052   2.770  15.638 -0.0015  0.0234 -0.1226
14637TIP3    H265403   2.064   2.919  15.665 -2.1063  0.1376  0.3044
14638TIP3   OH265404   2.887   6.508  12.597 -0.1547  0.2291 -0.6716
14638TIP3    H165405   2.872   6.568  12.670 -0.1821  0.9468 -1.2605
14638TIP3    H265406   2.974   6.471  12.613 -0.0820  0.5298 -0.3851
14639TIP3   OH265407   6.689   1.120   3.931  0.4811  0.0749 -0.1587
14639TIP3    H165408   6.609   1.070   3.948  0.4775  0.1280 -0.0168
14639TIP3    H265409   6.681   1.149   3.840 -0.0909  0.8765  0.1446
14640TIP3   OH265410   1.730   4.469  16.442  0.1484  0.0133 -0.3190
14640TIP3    H165411   1.754   4.425  16.524 -1.7657 -0.8406 -0.1897
14640TIP3    H265412   1.813   4.503  16.408  1.2379 -1.1933  1.0480
14641TIP3   OH265413   0.020   0.762  12.561 -0.2525  0.0921  0.0646
14641TIP3    H165414   0.036   0.669  12.544 -0.3317  0.3501 -1.4939
14641TIP3    H265415  -0.062   0.763  12.611 -0.0042 -0.7037  0.4892
14642TIP3   OH265416   4.851   4.233   0.571 -0.2853  0.1408  0.2820
14642TIP3    H165417   4.882   4.165   0.631 -1.8032  0.5596  1.5999
14642TIP3    H265418   4.919   4.300   0.573  0.6703 -0.8049 -0.1182
14643TIP3   OH265419   2.924   6.144   4.275 -0.4148  0.0885 -0.0752
14643TIP3    H165420   2.972   6.100   4.346 -1.2954 -0.6034  0.1084
14643TIP3    H265421   2.983   6.213   4.245  0.9309 -1.1370 -0.2653
14644TIP3   OH265422   5.159   0.849  17.048 -0.0666 -0.0566  0.4036
14644TIP3    H165423   5.207   0.878  17.125  1.0320  2.1006 -1.0492
14644TIP3    H265424   5.156   0.926  16.991  0.3346 -1.9879 -2.2991
14645TIP3   OH265425   6.113   5.595   4.720  0.1765 -0.0300 -0.3609
14645TIP3    H165426   6.036   5.648   4.700  1.3745  2.0856  0.5001
14645TIP3    H265427   6.099   5.566   4.810 -0.8665 -1.9170 -1.1000
14646TIP3   OH265428   6.536   2.737   0.895 -0.4276 -0.5484 -0.5851
14646TIP3    H165429   6.460   2.746   0.952 -0.7229  0.7840 -1.1694
14646TIP3    H265430   6.528   2.809   0.833 -0.3095 -2.1643 -2.5365
14647TIP3   OH265431   1.870   6.803   4.557  0.5704 -0.2728 -0.6368
14647TIP3    H165432   1.893   6.720   4.515 -0.6887 -0.9364 -0.0471
14647TIP3    H265433   1.782   6.823   4.526  0.6965  0.6108 -0.4309
14648TIP3   OH265434   0.219   5.962   0.598 -0.4543 -0.1765 -0.0715
14648TIP3    H165435   0.211   5.874   0.561  1.2054  0.1070 -1.1670
14648TIP3    H265436   0.282   5.953   0.670 -2.0126 -0.3040  1.3021
14649TIP3   OH265437   3.024   3.028  16.138 -0.0232  0.0885 -0.0557
14649TIP3    H165438   3.075   3.012  16.059  0.1338 -0.0996  0.0860
14649TIP3    H265439   3.016   2.942  16.179 -1.5060 -0.1095 -0.7204
14650TIP3   OH265440   1.575   5.306  14.513 -0.1162  0.3566  0.9808
14650TIP3    H165441   1.602   5.285  14.424  0.4652 -0.4012  1.3364
14650TIP3    H265442   1.602   5.231  14.565 -1.2872  0.3800  1.6479
14651TIP3   OH265443   4.660   5.549  12.259  0.5023  0.0950 -0.8024
14651TIP3    H165444   4.624   5.463  12.239 -0.6146  0.1534  0.9009
14651TIP3    H265445   4.741   5.531  12.307 -0.5414  0.0017  0.9275
14652TIP3   OH265446   4.108   4.886   2.845  0.2806  0.5046  0.0184
14652TIP3    H165447   4.062   4.839   2.775  0.7082  0.3282 -0.1435
14652TIP3    H265448   4.156   4.955   2.798  0.3712  0.5392  0.1651
14653TIP3   OH265449   3.355   2.361  15.952  0.5361 -0.0171  0.0651
14653TIP3    H165450   3.408   2.304  16.008 -0.2053 -1.4758 -0.6882
14653TIP3    H265451   3.376   2.332  15.863 -1.3418 -0.4387 -0.2468
14654TIP3   OH265452   3.741   2.112  17.235  0.5999 -0.2454  0.1160
14654TIP3    H165453   3.695   2.146  17.158  1.6803  1.3888  0.1636
14654TIP3    H265454   3.672   2.077  17.292 -0.2086 -1.5373 -1.5972
14655TIP3   OH265455   6.508   1.594  12.139 -0.3525 -0.0590 -0.3684
14655TIP3    H165456   6.457   1.570  12.062 -0.4115 -2.8555  0.4813
14655TIP3    H265457   6.597   1.563  12.120  0.1997  1.4195 -0.2878
14656TIP3   OH265458   3.283   4.101  10.690  0.0548 -0.3736  0.0037
14656TIP3    H165459   3.244   4.015  10.674 -1.4058  0.4865 -1.1910
14656TIP3    H265460   3.315   4.129  10.604 -0.1702  0.6084  0.2357
14657TIP3   OH265461   2.741   2.271  12.295  0.2207  0.1801  0.4164
14657TIP3    H165462   2.799   2.345  12.313  0.0142 -0.1956  2.7422
14657TIP3    H265463   2.771   2.202  12.354 -0.8615 -0.9359 -0.3158
14658TIP3   OH265464   0.425   3.562  16.038 -0.4317 -0.0513 -0.6434
14658TIP3    H165465   0.498   3.602  16.086 -1.1471 -0.3859  0.7375
14658TIP3    H265466   0.392   3.632  15.983 -0.3003  0.6598  0.1656
14659TIP3   OH265467   0.438   6.091   3.530 -0.3129 -0.5016  0.1852
14659TIP3    H165468   0.464   6.178   3.499  1.4832 -0.5400  1.5429
14659TIP3    H265469   0.477   6.031   3.466  1.6770 -0.4767  1.3366
14660TIP3   OH265470   4.328   3.325  11.275  0.3818  0.3628 -0.0608
14660TIP3    H165471   4.338   3.350  11.183 -0.4078 -0.4784 -0.3863
14660TIP3    H265472   4.391   3.381  11.322  2.2348 -0.5843 -1.3300
14661TIP3   OH265473   1.847   5.303  13.625  0.3632  0.1307  0.1320
14661TIP3    H165474   1.936   5.334  13.641 -0.4040  2.3349  0.3700
14661TIP3    H265475   1.836   5.229  13.685  2.0500 -0.2172  0.0339
14662TIP3   OH265476   5.111   5.189   1.555  0.4046 -0.0545 -0.1931
14662TIP3    H165477   5.035   5.240   1.525  0.1318 -0.5276 -0.3223
14662TIP3    H265478   5.186   5.245   1.537  0.1884 -0.0797 -1.2272
14663TIP3   OH265479   4.139   6.250  13.485  0.1286  0.6404 -0.2737
14663TIP3    H165480   4.203   6.318  13.504  0.1032  0.6478 -0.2131
14663TIP3    H265481   4.063   6.273  13.539 -0.2596  1.1379 -1.0109
14664TIP3   OH265482   5.405   3.413  14.198  0.3791 -0.0977  0.0045
14664TIP3    H165483   5.377   3.360  14.272  1.3643  0.4787  0.7962
14664TIP3    H265484   5.440   3.350  14.135 -1.2104 -0.6718 -0.3305
14665TIP3   OH265485   5.489   3.926  15.461  0.2070  0.4813  0.4959
14665TIP3    H165486   5.528   4.014  15.453 -0.8968  0.9456  0.1505
14665TIP3    H265487   5.398   3.943  15.488 -0.7002 -0.4527 -1.8781
14666TIP3   OH265488   0.504   4.974   4.468  0.1367  0.1773 -0.7990
14666TIP3    H165489   0.528   4.940   4.554  0.4637  0.1173 -0.9108
14666TIP3    H265490   0.409   4.982   4.470  0.0557 -0.7239 -0.7639
14667TIP3   OH265491   3.532   3.427  16.526 -0.3457 -0.0886  0.2419
14667TIP3    H165492   3.487   3.367  16.585  0.4317  1.7920  2.8285
14667TIP3    H265493   3.615   3.384  16.506 -0.8504 -0.9844  0.0460
14668TIP3   OH265494   1.116   0.476  16.851  0.0936 -0.3517 -0.2776
14668TIP3    H165495   1.113   0.490  16.946 -1.0955  1.2588 -0.5283
14668TIP3    H265496   1.151   0.387  16.841  1.0682 -0.2126  1.6359
14669TIP3   OH265497   4.618   2.510   3.377 -0.0680  0.1849  0.7108
14669TIP3    H165498   4.588   2.420   3.390 -0.6066  0.0740 -1.1563
14669TIP3    H265499   4.539   2.558   3.353  0.5299  0.7664 -0.1074
14670TIP3   OH265500   1.451   4.437   6.650 -0.7811 -0.0702 -0.1140
14670TIP3    H165501   1.466   4.437   6.555  0.0692 -2.9304 -0.0073
14670TIP3    H265502   1.534   4.464   6.687 -0.5063 -0.9369 -0.1021
14671TIP3   OH265503   0.867   5.844  11.656 -0.6245  0.5656  0.2928
14671TIP3    H165504   0.776   5.872  11.667 -0.9650 -0.6593  0.6136
14671TIP3    H265505   0.865   5.788  11.578 -0.5350 -1.1726  1.5206
14672TIP3   OH265506   1.190   4.853  14.927 -0.1296  0.8643 -0.5925
14672TIP3    H165507   1.189   4.808  15.012  2.4274 -1.3701 -1.6891
14672TIP3    H265508   1.098   4.856  14.902 -0.8103  0.4193  1.6778
14673TIP3   OH265509   1.384   2.801   2.992 -0.0334  0.4306 -0.5238
14673TIP3    H165510   1.462   2.759   3.027  0.3078  2.2478  0.9783
14673TIP3    H265511   1.314   2.737   3.005  0.2478  0.7449  2.7646
14674TIP3   OH265512   4.382   2.146  14.259 -0.0095  0.2435  0.2998
14674TIP3    H165513   4.386   2.129  14.354  1.3517  1.3711  0.4693
14674TIP3    H265514   4.472   2.170  14.236 -0.3899  0.2237 -1.2397
14675TIP3   OH265515   3.450   0.596   0.924  0.4210 -0.2465  0.1497
14675TIP3    H165516   3.371   0.543   0.910  1.1710 -0.9359 -1.6595
14675TIP3    H265517   3.521   0.541   0.892  1.2532  1.7379 -1.5533
14676TIP3   OH265518   2.944   1.680  11.997  0.3840 -0.1773  0.3322
14676TIP3    H165519   3.005   1.689  12.070 -1.0834 -0.9641  1.7046
14676TIP3    H265520   2.878   1.748  12.013  0.9540  0.7530 -1.2000
14677TIP3   OH265521   5.409   2.008  16.934 -0.0053  0.1404 -0.4229
14677TIP3    H165522   5.457   2.085  16.902  1.7735 -1.2459 -1.1943
14677TIP3    H265523   5.475   1.957  16.981 -1.2151 -0.8001  0.2660
14678TIP3   OH265524   0.352   3.828  12.354  0.2014 -0.5006  0.8133
14678TIP3    H165525   0.365   3.905  12.298 -0.0580 -0.0083  1.4204
14678TIP3    H265526   0.331   3.758  12.293 -1.6006  0.3775  0.3781
14679TIP3   OH265527   2.372   2.885  15.648  0.1245  0.0782  0.2166
14679TIP3    H165528   2.284   2.851  15.631  0.8366 -0.5448 -2.4301
14679TIP3    H265529   2.357   2.974  15.681 -1.6168 -1.5183  4.1076
14680TIP3   OH265530   3.372   2.436  11.203 -0.1177 -0.2244  0.4852
14680TIP3    H165531   3.368   2.447  11.298  0.9293 -0.2014  0.5340
14680TIP3    H265532   3.395   2.522  11.170 -0.2574 -0.2862  0.2268
14681TIP3   OH265533   1.586   1.347  15.998  0.1887  0.4814 -0.0265
14681TIP3    H165534   1.535   1.301  16.064 -0.3994  1.5697  0.2921
14681TIP3    H265535   1.629   1.417  16.046 -1.1844  2.0246 -0.9962
14682TIP3   OH265536   2.449   2.881   4.687 -0.1024  0.3765 -0.6442
14682TIP3    H165537   2.516   2.937   4.726  0.7949 -1.3153  0.3200
14682TIP3    H265538   2.367   2.930   4.697  0.9314  2.3032 -1.5123
14683TIP3   OH265539   6.489   1.437   1.712  0.2072  1.2452  0.1506
14683TIP3    H165540   6.453   1.375   1.648  1.2689  0.7355  0.0350
14683TIP3    H265541   6.507   1.516   1.661  1.3984  0.7149 -0.2850
14684TIP3   OH265542   1.467   1.656   3.228 -0.1996  0.1975  0.2545
14684TIP3    H165543   1.545   1.612   3.194 -0.4276  0.0645 -0.0885
14684TIP3    H265544   1.407   1.585   3.248 -0.6405  0.3660 -0.4752
14685TIP3   OH265545   0.142   2.525   5.640  0.0742  0.2521  0.4272
14685TIP3    H165546   0.157   2.503   5.548 -2.3451  2.9240 -0.6767
14685TIP3    H265547   0.047   2.538   5.647  0.4447  2.1177  2.7949
14686TIP3   OH265548   2.406   4.099  11.558 -0.0625 -0.2380 -0.0124
14686TIP3    H165549   2.470   4.164  11.530 -0.8130  0.4447 -0.1638
14686TIP3    H265550   2.345   4.092  11.485  0.2844 -1.4842 -0.2018
14687TIP3   OH265551   0.134   4.012  15.928 -0.5567 -0.2922 -0.2852
14687TIP3    H165552   0.227   3.996  15.912 -0.6142  1.0329 -2.1829
14687TIP3    H265553   0.133   4.084  15.991 -0.3341 -2.2097  1.9972
14688TIP3   OH265554   1.223   2.035   5.914  0.1923  0.7409 -0.4310
14688TIP3    H165555   1.159   1.999   5.852 -1.7438  1.7610  0.9072
14688TIP3    H265556   1.290   2.075   5.860 -1.2544  1.2426 -1.8591
14689TIP3   OH265557   5.586   5.481  16.087  0.1046  0.8973 -0.7495
14689TIP3    H165558   5.559   5.495  16.177  1.3990  1.4762 -0.4407
14689TIP3    H265559   5.509   5.503  16.035 -0.1405  2.1422  0.1276
14690TIP3   OH265560   0.343   3.186   4.441  0.2323 -0.0162  0.2704
14690TIP3    H165561   0.351   3.167   4.347 -0.8533  1.3295 -0.1146
14690TIP3    H265562   0.419   3.242   4.460  0.6775 -0.6214  0.2924
14691TIP3   OH265563   4.287   6.644  11.024  0.3519  0.1243 -0.1321
14691TIP3    H165564   4.323   6.731  11.038  0.7193  0.0616 -0.6959
14691TIP3    H265565   4.251   6.646  10.935  0.8948 -0.4805 -0.3674
14692TIP3   OH265566   6.277   0.024   4.427 -0.2176 -0.3651 -0.6006
14692TIP3    H165567   6.254   0.067   4.510 -0.6864  0.3578 -1.0975
14692TIP3    H265568   6.283   0.096   4.364  1.4867 -0.7677 -0.9094
14693TIP3   OH265569   5.906   5.374  15.210 -0.1765  0.1038  0.1168
14693TIP3    H165570   5.848   5.436  15.166 -1.6844 -3.0824 -2.6851
14693TIP3    H265571   5.993   5.393  15.174 -0.6427  0.5430 -0.7923
14694TIP3   OH265572   1.598   0.790   1.200  0.1765 -0.3044  0.3842
14694TIP3    H165573   1.551   0.873   1.193  1.7925  0.6630  0.7260
14694TIP3    H265574   1.621   0.783   1.293  0.4024 -0.9327  0.2825
14695TIP3   OH265575   3.305   2.153   3.202 -0.1777  0.1316 -0.0684
14695TIP3    H165576   3.299   2.103   3.283 -0.0291  0.6446  0.2638
14695TIP3    H265577   3.331   2.241   3.230 -0.1129  0.3078 -0.6719
14696TIP3   OH265578   5.104   2.469   1.468 -0.4171 -0.5658  0.4054
14696TIP3    H165579   5.113   2.551   1.517  1.3191 -0.9247  0.7178
14696TIP3    H265580   5.119   2.494   1.377  1.0531 -0.6684  0.6016
14697TIP3   OH265581   1.573   1.042   0.684 -0.2778 -0.7834  0.2246
14697TIP3    H165582   1.486   1.062   0.648  0.1063 -0.0425 -0.3134
14697TIP3    H265583   1.590   1.113   0.745 -0.2105 -1.1365  0.6156
14698TIP3   OH265584   5.428   5.850  14.746  0.2473  0.1487 -0.7542
14698TIP3    H165585   5.481   5.810  14.816  1.0241  0.2447 -1.2770
14698TIP3    H265586   5.411   5.778  14.685 -0.5602  0.0309 -0.3894
14699TIP3   OH265587   1.762   0.447   5.896 -0.2135  0.5994  0.2238
14699TIP3    H165588   1.757   0.526   5.842  2.0295  0.1292 -0.7278
14699TIP3    H265589   1.845   0.455   5.943 -1.2873  0.1332  2.2899
14700TIP3   OH265590   3.657   2.467  17.149 -0.4341  0.0355 -0.0229
14700TIP3    H165591   3.575   2.428  17.117  0.0731 -0.6606 -0.4931
14700TIP3    H265592   3.672   2.425  17.233 -0.8320  0.5545  0.3093
14701TIP3   OH265593   1.878   4.627   0.502 -0.3038 -0.1031 -0.1474
14701TIP3    H165594   1.818   4.698   0.523  0.3409  0.6065 -0.6815
14701TIP3    H265595   1.965   4.661   0.525 -0.2210 -1.6745  2.1081
14702TIP3   OH265596   5.074   5.655   5.774 -0.3578  0.0422  0.5549
14702TIP3    H165597   5.121   5.627   5.852  1.6202  0.2763 -0.5048
14702TIP3    H265598   5.101   5.747   5.762 -1.1278  0.1907 -0.0405
14703TIP3   OH265599   3.230   5.007   0.572  0.2388 -0.1259  0.3815
14703TIP3    H165600   3.277   5.068   0.629  0.0061  0.6316 -0.2291
14703TIP3    H265601   3.298   4.948   0.538  0.6250  0.4743  0.1173
14704TIP3   OH265602   1.629   4.679   4.157 -0.1617 -0.2254  0.1548
14704TIP3    H165603   1.704   4.733   4.182 -0.3910  1.1197 -1.8193
14704TIP3    H265604   1.553   4.730   4.185 -0.3586  0.0169 -0.7675
14705TIP3   OH265605   4.008   0.552  11.549  0.7287 -0.1779 -0.2830
14705TIP3    H165606   4.038   0.463  11.531  1.9690  0.3878 -1.0352
14705TIP3    H265607   4.087   0.606  11.547 -0.0170  0.9618  0.1021
14706TIP3   OH265608   1.343   1.859  11.029 -0.4232 -0.1289  0.1838
14706TIP3    H165609   1.369   1.787  10.971 -1.4281 -0.4040  0.0609
14706TIP3    H265610   1.398   1.933  11.001  2.2445 -1.4396  1.8441
14707TIP3   OH265611   1.959   0.114  11.518  0.1931  0.4670  0.1833
14707TIP3    H165612   1.881   0.108  11.463  0.7345 -1.6000 -0.3847
14707TIP3    H265613   1.940   0.059  11.594  1.7674 -1.4453 -0.7910
14708TIP3   OH265614   0.696   3.417   2.696 -0.3092 -0.0927 -0.1305
14708TIP3    H165615   0.607   3.453   2.699  0.2546  1.6629 -2.6885
14708TIP3    H265616   0.713   3.405   2.602  3.1513  2.1539  0.1374
14709TIP3   OH265617   4.068   5.161  14.368 -0.0206  0.2331 -0.6632
14709TIP3    H165618   3.988   5.128  14.409  0.9668 -0.4453  0.7930
14709TIP3    H265619   4.138   5.114  14.413  1.2075  1.0215 -1.7299
14710TIP3   OH265620   1.793   3.492   2.842 -0.3682  0.1402 -0.0736
14710TIP3    H165621   1.793   3.404   2.805 -0.4700  0.2683 -0.3859
14710TIP3    H265622   1.875   3.531   2.811  0.0094 -0.0840  0.6471
14711TIP3   OH265623   5.143   3.798  14.818 -0.2010  0.3187 -0.0983
14711TIP3    H165624   5.146   3.813  14.724 -1.1228  2.6365  0.2024
14711TIP3    H265625   5.116   3.882  14.855  2.2761  0.0687  2.4182
14712TIP3   OH265626   5.092   6.792  15.003 -0.0670  0.1281  0.0677
14712TIP3    H165627   5.122   6.830  15.086  0.7012 -1.0086  0.3214
14712TIP3    H265628   5.002   6.766  15.020 -0.8705  2.4783 -0.3361
14713TIP3   OH265629   3.801   3.815   1.097  0.0393  0.1369  0.4866
14713TIP3    H165630   3.707   3.827   1.108  0.0208 -0.0386  0.5104
14713TIP3    H265631   3.810   3.745   1.033  0.1527  0.3675  0.2446
14714TIP3   OH265632   3.486   6.506   6.345 -0.0472  0.6835 -0.0450
14714TIP3    H165633   3.576   6.506   6.312  0.1091  1.4490  0.3544
14714TIP3    H265634   3.471   6.417   6.376 -0.2254 -0.0799 -2.2637
14715TIP3   OH265635   1.690   4.157  12.355  0.0896  0.2241 -0.5963
14715TIP3    H165636   1.697   4.065  12.329  0.0111  0.2747 -0.8006
14715TIP3    H265637   1.768   4.199  12.316  0.0709  0.2640 -0.5903
14716TIP3   OH265638   4.923   5.123  15.909 -0.1067 -0.4571 -0.1071
14716TIP3    H165639   4.848   5.178  15.887  0.0118  0.1229  0.8872
14716TIP3    H265640   4.897   5.034  15.885 -2.1159 -0.6485  2.6340
14717TIP3   OH265641   1.213   5.774  16.433  0.5147  0.0588  0.5376
14717TIP3    H165642   1.124   5.745  16.456 -0.6731  0.7942 -2.8650
14717TIP3    H265643   1.219   5.862  16.470 -0.0498 -0.0992  1.0270
14718TIP3   OH265644   2.284   3.728  13.525 -0.1445  0.5454 -0.0990
14718TIP3    H165645   2.306   3.641  13.490 -1.6073  0.4556 -0.8382
14718TIP3    H265646   2.366   3.776  13.523  0.6320 -0.7604  0.0943
14719TIP3   OH265647   1.816   4.829  16.525 -0.1128  0.1398 -0.0819
14719TIP3    H165648   1.840   4.803  16.436  0.0251 -0.0815  0.0168
14719TIP3    H265649   1.893   4.808  16.577  0.0728  0.9272 -0.0275
14720TIP3   OH265650   6.675   3.158  13.769  0.4558  0.0937  0.0850
14720TIP3    H165651   6.738   3.117  13.710  2.8337  2.0199  1.1922
14720TIP3    H265652   6.710   3.141  13.857 -1.2668  0.0931  0.7942
14721TIP3   OH265653   1.142   1.792   3.467  0.3532  0.3580  0.0700
14721TIP3    H165654   1.093   1.710   3.460  1.6333 -0.4715  0.5839
14721TIP3    H265655   1.079   1.855   3.501 -0.6641 -0.3970 -0.3789
14722TIP3   OH265656   1.620   1.241   5.982  0.1846  0.5759  0.0732
14722TIP3    H165657   1.555   1.292   5.934 -0.5806 -0.8658 -0.4670
14722TIP3    H265658   1.678   1.306   6.021 -0.5945  1.8386 -0.8351
14723TIP3   OH265659   4.640   5.362  16.204 -0.0325  0.3010 -0.4024
14723TIP3    H165660   4.637   5.268  16.217 -1.5382  0.3165 -0.5156
14723TIP3    H265661   4.570   5.396  16.261  0.3203  1.3170 -0.5668
14724TIP3   OH265662   6.546   5.449  15.833 -0.1082 -0.4550 -0.0923
14724TIP3    H165663   6.584   5.417  15.752  0.0462  0.2843 -0.3183
14724TIP3    H265664   6.452   5.454  15.815 -0.0447 -0.0423 -0.3125
14725TIP3   OH265665   5.572   6.115  14.941 -0.7408  0.0527 -0.3728
14725TIP3    H165666   5.585   6.021  14.931 -0.9274 -0.0746  0.5537
14725TIP3    H265667   5.623   6.154  14.870 -1.4397 -0.7828 -1.3580
14726TIP3   OH265668   0.223   1.001  14.695  0.0616  0.2445 -0.0549
14726TIP3    H165669   0.276   0.927  14.726  0.5034  0.7466  0.4002
14726TIP3    H265670   0.144   0.998  14.749 -0.1627 -0.2246 -0.4104
14727TIP3   OH265671   3.252   4.271   2.212  0.1849  0.1637 -0.5680
14727TIP3    H165672   3.201   4.210   2.266 -0.8625  1.3575 -0.2008
14727TIP3    H265673   3.194   4.290   2.138  1.0382 -0.3186 -1.3664
14728TIP3   OH265674   3.532   2.626   4.315  0.0696 -0.1619 -0.5859
14728TIP3    H165675   3.582   2.555   4.274  0.3219  0.2236 -0.9489
14728TIP3    H265676   3.562   2.705   4.270  1.2288  0.4168  1.1345
14729TIP3   OH265677   1.995   5.730  11.099  0.1607 -0.2201  0.1449
14729TIP3    H165678   2.058   5.724  11.027 -0.0864 -2.4257  0.0701
14729TIP3    H265679   1.918   5.684  11.066 -0.0329 -1.0419  1.7470
14730TIP3   OH265680   4.092   0.177  11.135 -0.9865 -0.1012  0.4239
14730TIP3    H165681   4.141   0.154  11.214 -1.5746 -0.2041  0.7632
14730TIP3    H265682   4.003   0.195  11.166 -1.0112  0.7336 -0.0930
14731TIP3   OH265683   5.351   1.871   4.505 -0.0978  0.2721  0.8328
14731TIP3    H165684   5.388   1.806   4.564 -1.0207 -1.2299 -0.2228
14731TIP3    H265685   5.427   1.907   4.458  0.4322  0.1553  1.5902
14732TIP3   OH265686   1.605   2.408  15.162  0.3181  0.5228 -0.4650
14732TIP3    H165687   1.537   2.460  15.119 -1.2002 -1.5226 -0.5895
14732TIP3    H265688   1.567   2.384  15.246  0.4872 -1.3904 -0.9055
14733TIP3   OH265689   5.062   6.583  14.239 -0.5001  0.5994 -0.2732
14733TIP3    H165690   4.997   6.548  14.300  1.2383  0.0326  1.3234
14733TIP3    H265691   5.037   6.674  14.227 -1.3266  0.5084  0.6854
14734TIP3   OH265692   5.655   1.814   5.568 -0.0254  0.0708  0.2518
14734TIP3    H165693   5.590   1.763   5.617 -0.9972  0.1440 -0.9146
14734TIP3    H265694   5.736   1.763   5.575  0.1075  0.5541  2.6817
14735TIP3   OH265695   4.002   6.578  16.001 -0.5609  0.5768  0.1692
14735TIP3    H165696   3.908   6.597  16.012 -0.1765  2.2465  0.7552
14735TIP3    H265697   4.043   6.664  15.995  0.9760 -0.1367  0.2321
14736TIP3   OH265698   5.263   3.262   0.862  0.0690 -0.1379  0.4941
14736TIP3    H165699   5.251   3.322   0.788 -0.7312  0.8390  1.3928
14736TIP3    H265700   5.177   3.220   0.872  0.5283 -1.1773  0.0921
14737TIP3   OH265701   1.418   6.238   0.691 -0.1144  0.5736  0.1466
14737TIP3    H165702   1.411   6.151   0.730 -1.0448  0.6874  0.2551
14737TIP3    H265703   1.336   6.281   0.716 -0.2751  0.9961 -1.0727
14738TIP3   OH265704   3.571   4.785  14.914  0.4050 -0.6421 -0.7389
14738TIP3    H165705   3.652   4.790  14.964  0.5605  0.6579 -1.1035
14738TIP3    H265706   3.507   4.747  14.974  1.6610 -3.1308 -0.9402
14739TIP3   OH265707   5.814   0.998   5.122 -1.3147  0.4463  0.6521
14739TIP3    H165708   5.876   1.031   5.187  0.6528  1.8317 -1.8443
14739TIP3    H265709   5.799   1.071   5.063  0.4122 -1.9721 -2.9863
14740TIP3   OH265710   0.280   1.503   0.640 -0.7858  0.2981  0.1862
14740TIP3    H165711   0.238   1.450   0.572  1.8399  1.7012 -2.6746
14740TIP3    H265712   0.223   1.580   0.649 -1.1749  0.0834 -0.4184
14741TIP3   OH265713   3.923   3.899  15.253 -0.3583  0.1363  0.1215
14741TIP3    H165714   3.857   3.944  15.200  0.1999 -1.1005 -1.6753
14741TIP3    H265715   4.002   3.953  15.243 -0.2964 -0.0096 -0.1838
14742TIP3   OH265716   2.783   1.659   5.790  0.2524  0.1105 -0.7447
14742TIP3    H165717   2.750   1.570   5.787  0.7197 -0.0306 -2.5043
14742TIP3    H265718   2.839   1.662   5.867 -0.7525 -0.7445  0.0344
14743TIP3   OH265719   6.527   1.720  16.860  0.6303  0.0085 -0.0271
14743TIP3    H165720   6.449   1.740  16.912 -0.0358 -2.2173 -0.1340
14743TIP3    H265721   6.518   1.774  16.781 -1.8091 -1.6562 -0.9282
14744TIP3   OH265722   3.077   4.669  10.845  0.2515  0.1292 -0.3949
14744TIP3    H165723   3.160   4.701  10.808  1.3198 -1.7390  0.3234
14744TIP3    H265724   3.053   4.594  10.790  0.8526 -1.4679  1.4845
14745TIP3   OH265725   4.859   1.448   1.647 -0.3762  0.1237 -0.4043
14745TIP3    H165726   4.829   1.443   1.738  1.2452 -0.8861  0.0870
14745TIP3    H265727   4.890   1.360   1.627  1.6548  0.9670 -1.0855
14746TIP3   OH265728   3.803   4.761  15.088  0.3535  0.2689  0.8174
14746TIP3    H165729   3.887   4.754  15.134  0.6959 -0.1229  0.1400
14746TIP3    H265730   3.803   4.849  15.052  1.1503 -0.2620 -0.4836
14747TIP3   OH265731   3.804   2.550  11.544 -0.1292 -0.5951 -0.0398
14747TIP3    H165732   3.718   2.510  11.529  0.7587 -1.8007 -2.0584
14747TIP3    H265733   3.803   2.629  11.491 -0.0641 -0.4910  0.1138
14748TIP3   OH265734   5.205   4.915   3.718  0.0482 -0.0889  0.1468
14748TIP3    H165735   5.267   4.960   3.775 -2.3706  1.6786  1.5074
14748TIP3    H265736   5.189   4.976   3.646 -0.2565 -0.4390 -0.0849
14749TIP3   OH265737   0.893   3.195  15.152  0.3509  0.0009  0.3890
14749TIP3    H165738   0.916   3.242  15.233 -1.0550  1.3496  0.0194
14749TIP3    H265739   0.798   3.196  15.150  0.3756  1.5561 -2.1955
14750TIP3   OH265740   5.266   1.824  14.708 -0.1765  0.9292  0.1539
14750TIP3    H165741   5.292   1.764  14.779  1.3087  1.0479 -0.2633
14750TIP3    H265742   5.348   1.868  14.684 -0.7199  1.0782 -1.4579
14751TIP3   OH265743   2.425   4.433  11.278 -0.2249 -0.2175  0.0891
14751TIP3    H165744   2.406   4.465  11.190  0.9702 -1.4682 -0.6469
14751TIP3    H265745   2.493   4.367  11.265  0.1724 -0.2048  1.9878
14752TIP3   OH265746   1.148   0.448   0.644  0.5962 -0.5086 -0.1425
14752TIP3    H165747   1.213   0.458   0.714  1.0784 -0.4961 -0.5892
14752TIP3    H265748   1.094   0.526   0.651 -0.7125 -1.5277  1.6111
14753TIP3   OH265749   2.367   0.120  13.667  0.3469  0.1200  0.3758
14753TIP3    H165750   2.364   0.038  13.716 -1.0815 -0.2650 -0.3261
14753TIP3    H265751   2.278   0.156  13.677  0.5021  0.7915 -0.6438
14754TIP3   OH265752   4.342   0.860  15.804 -0.1148 -1.0692  0.0453
14754TIP3    H165753   4.356   0.888  15.894  1.5922  0.7215 -0.7215
14754TIP3    H265754   4.295   0.933  15.763  0.8977 -0.9710 -0.9926
14755TIP3   OH265755   4.155   0.372  14.149 -0.1147 -0.6274  0.1616
14755TIP3    H165756   4.134   0.336  14.236  0.1595  1.1672  0.9983
14755TIP3    H265757   4.097   0.447  14.140 -0.3043 -0.9521 -1.3260
14756TIP3   OH265758   0.297   1.039  15.209 -0.4428 -0.4607  0.2504
14756TIP3    H165759   0.268   1.050  15.118 -0.9289 -1.1509  0.3155
14756TIP3    H265760   0.378   1.091  15.215  0.6006 -1.8882 -1.0818
14757TIP3   OH265761   5.082   0.915   2.031 -0.7166 -0.0329  0.6823
14757TIP3    H165762   5.079   0.923   1.936  0.3413  2.2030  0.7925
14757TIP3    H265763   5.173   0.897   2.052 -1.2943 -2.6001  1.1832
14758TIP3   OH265764   5.283   1.392   1.827 -0.1842 -0.5536 -0.0853
14758TIP3    H165765   5.355   1.422   1.771  1.0263 -1.1130  1.1642
14758TIP3    H265766   5.242   1.473   1.858  2.3593 -0.1329  2.3513
14759TIP3   OH265767   2.726   4.393  16.923  0.0629  0.1195  0.1886
14759TIP3    H165768   2.646   4.341  16.928  0.7489 -0.9779  0.1204
14759TIP3    H265769   2.779   4.361  16.996  0.3219  1.0308  0.3965
14760TIP3   OH265770   4.631   6.539   4.631  0.3490 -0.0936 -0.0174
14760TIP3    H165771   4.671   6.474   4.689  0.1712  0.6509  0.9470
14760TIP3    H265772   4.537   6.531   4.646  0.3105  0.2017 -0.0961
14761TIP3   OH265773   4.981   4.915  10.417  0.5129  0.2934  0.0431
14761TIP3    H165774   4.901   4.931  10.366  1.0159 -0.6419 -1.0661
14761TIP3    H265775   5.051   4.956  10.366  0.9647 -0.2654  0.2078
14762TIP3   OH265776   5.269   0.778  11.246 -0.1550  0.6064  0.1323
14762TIP3    H165777   5.363   0.790  11.256 -0.1214  0.2761  0.2107
14762TIP3    H265778   5.254   0.781  11.152 -0.1548  1.3164  0.1479
14763TIP3   OH265779   6.396   2.268  11.845 -0.4887  0.1659 -0.1652
14763TIP3    H165780   6.472   2.278  11.788 -0.8817 -0.7030 -0.8655
14763TIP3    H265781   6.406   2.336  11.911  1.1594 -0.2590  0.0476
14764TIP3   OH265782   3.790   1.991  14.134 -0.7739  0.7052 -0.4541
14764TIP3    H165783   3.769   2.030  14.049  0.4289  2.9086  0.2387
14764TIP3    H265784   3.749   2.048  14.198 -1.2961 -0.6979  0.4913
14765TIP3   OH265785   5.743   2.067   0.928 -0.5633  0.1937  0.5453
14765TIP3    H165786   5.826   2.095   0.967  1.1638  0.1541 -2.8101
14765TIP3    H265787   5.719   2.139   0.869 -2.0749 -0.4887  0.3043
14766TIP3   OH265788   0.453   0.020   3.848 -0.4938  0.4883  0.9533
14766TIP3    H165789   0.470  -0.032   3.926  0.2603 -1.9526 -0.7763
14766TIP3    H265790   0.539   0.053   3.822 -0.5661  0.2905  0.4658
14767TIP3   OH265791   0.968   0.470  15.922  0.2675 -0.3605  0.2005
14767TIP3    H165792   0.997   0.408  15.855 -0.2590  0.4084 -0.7512
14767TIP3    H265793   1.044   0.481  15.980  1.2663  0.2180 -1.2083
14768TIP3   OH265794   5.033   0.090  12.224 -0.1165  0.0127 -0.1139
14768TIP3    H165795   5.082   0.065  12.302  1.0953 -0.0543 -0.8839
14768TIP3    H265796   5.099   0.122  12.163 -1.0138 -0.2465 -1.2403
14769TIP3   OH265797   5.460   4.195   1.790 -0.0941  0.4915  0.1535
14769TIP3    H165798   5.392   4.173   1.726 -0.3934  0.6221  0.4256
14769TIP3    H265799   5.531   4.132   1.773  0.1266  0.9788 -0.7799
14770TIP3   OH265800   6.297   5.669   0.892  0.3540  0.1142  0.2094
14770TIP3    H165801   6.286   5.679   0.987  0.2949 -0.3501  0.2500
14770TIP3    H265802   6.376   5.616   0.883 -1.0203 -1.9461  0.0539
14771TIP3   OH265803   6.161   2.821  17.033  0.5865 -0.2287 -0.2440
14771TIP3    H165804   6.189   2.731  17.050  0.7840 -0.5651 -2.2351
14771TIP3    H265805   6.067   2.814  17.016  0.5471 -0.0208 -0.1024
14772TIP3   OH265806   2.355   0.589   2.920 -0.2489  0.2775 -0.1508
14772TIP3    H165807   2.323   0.626   3.002  1.9435 -0.3451  1.0156
14772TIP3    H265808   2.283   0.604   2.858 -2.5193 -0.4960  2.1887
14773TIP3   OH265809   4.010   3.083  11.545 -0.2614 -0.0423 -0.0850
14773TIP3    H165810   4.069   3.158  11.549  0.6630 -0.7615 -0.0756
14773TIP3    H265811   3.965   3.084  11.629 -0.6582  0.8308 -0.3060
14774TIP3   OH265812   5.717   0.499   0.783  0.0399  0.6200  0.4519
14774TIP3    H165813   5.637   0.472   0.827  0.8798  0.6022  2.0024
14774TIP3    H265814   5.787   0.457   0.832  0.9464 -0.5152 -1.7507
14775TIP3   OH265815   5.668   2.355  11.465 -0.3954 -0.0444 -0.5012
14775TIP3    H165816   5.603   2.376  11.398 -1.0683 -0.2479  0.0758
14775TIP3    H265817   5.710   2.275  11.434 -1.3121 -0.6254 -0.2539
14776TIP3   OH265818   4.293   5.455   3.738  0.1447  0.4063 -0.0870
14776TIP3    H165819   4.320   5.455   3.829 -1.7530  1.3160  0.4913
14776TIP3    H265820   4.329   5.373   3.703  0.6746 -0.0718  1.5302
14777TIP3   OH265821   4.345   2.303   6.112  0.2460  0.2093  0.2140
14777TIP3    H165822   4.416   2.368   6.111 -0.0955  0.5775 -0.3184
14777TIP3    H265823   4.334   2.278   6.021  1.5179 -1.8588  0.5955
14778TIP3   OH265824   5.305   3.947   1.100 -0.5757  0.6523  0.0939
14778TIP3    H165825   5.240   3.979   1.163 -1.7274  1.1909 -1.3246
14778TIP3    H265826   5.356   4.024   1.077 -0.2318  0.4807  0.2842
14779TIP3   OH265827   1.960   6.314  11.056  0.1477 -0.4596  0.0630
14779TIP3    H165828   1.896   6.249  11.083 -0.6311 -0.0764 -0.8490
14779TIP3    H265829   2.008   6.272  10.984  0.8756 -0.7102  0.6787
14780TIP3   OH265830   1.129   6.351   4.934  0.6081  0.1306 -0.7318
14780TIP3    H165831   1.162   6.422   4.880  0.4466  0.4235 -0.4520
14780TIP3    H265832   1.035   6.368   4.942  1.0492  1.6372  1.8754
14781TIP3   OH265833   3.278   1.898  11.512  0.5050 -0.3460  0.5052
14781TIP3    H165834   3.346   1.832  11.496 -0.1233 -0.5801 -1.2652
14781TIP3    H265835   3.261   1.893  11.606  1.8819 -1.3131  0.7145
14782TIP3   OH265836   3.503   6.535  11.295  0.2814 -0.2588  0.2493
14782TIP3    H165837   3.587   6.576  11.274  0.7799 -0.3229  2.0248
14782TIP3    H265838   3.526   6.461  11.351 -0.9241 -0.5859  0.3091
14783TIP3   OH265839   3.185   5.476   3.228 -0.1100 -0.0465 -0.0414
14783TIP3    H165840   3.172   5.412   3.158 -1.3409  0.4359 -0.2541
14783TIP3    H265841   3.278   5.467   3.251  0.4479  0.1689 -2.0984
14784TIP3   OH265842   4.686   6.222  12.170  0.2800  0.1163 -0.0306
14784TIP3    H165843   4.733   6.281  12.111 -0.3990 -0.8891 -1.6078
14784TIP3    H265844   4.628   6.171  12.113 -0.9620 -0.3502  1.5959
14785TIP3   OH265845   3.621   5.347   0.654 -0.6434 -0.9841  0.0024
14785TIP3    H165846   3.646   5.336   0.562  1.7904  0.6314  0.4101
14785TIP3    H265847   3.693   5.308   0.703 -1.4054 -0.8726  1.2134
14786TIP3   OH265848   6.775   2.331  16.072 -0.0708  0.8357  0.2571
14786TIP3    H165849   6.795   2.304  16.161  1.8099  2.2280  0.3091
14786TIP3    H265850   6.774   2.427  16.076  2.0671  0.9794 -1.5787
14787TIP3   OH265851   5.811   2.550  16.173  0.1797  0.3819  0.1862
14787TIP3    H165852   5.723   2.514  16.163  0.9661 -1.6968  0.3758
14787TIP3    H265853   5.823   2.607  16.097 -0.5844 -0.9346 -0.9502
14788TIP3   OH265854   4.656   5.433  13.861  0.9786 -0.0624 -0.4696
14788TIP3    H165855   4.570   5.476  13.868 -0.2498 -2.1187 -2.1590
14788TIP3    H265856   4.648   5.356  13.917  2.5124  0.8407  1.0553
14789TIP3   OH265857   1.525   1.934  13.584  0.2799 -0.0658  0.3281
14789TIP3    H165858   1.598   1.935  13.647 -0.8855 -0.8999  1.7217
14789TIP3    H265859   1.517   2.025  13.555  0.1750  0.5366  2.1720
14790TIP3   OH265860   1.807   4.957   2.588  1.0662  0.4205 -0.4514
14790TIP3    H165861   1.825   4.954   2.682 -1.1226  1.7967  0.0739
14790TIP3    H265862   1.881   5.005   2.550  1.4297  0.8101  0.7348
14791TIP3   OH265863   0.424   2.609  13.904  0.4360  0.4106  0.2027
14791TIP3    H165864   0.402   2.642  13.818 -0.5755  0.0447  0.3171
14791TIP3    H265865   0.361   2.538  13.920  1.5399 -0.5014  0.6234
14792TIP3   OH265866   1.243   3.133  12.645 -0.6148 -0.3178 -0.3560
14792TIP3    H165867   1.169   3.149  12.704  0.0634  0.5736  0.2630
14792TIP3    H265868   1.219   3.178  12.564 -1.2088 -0.9092 -0.5205
14793TIP3   OH265869   6.022   3.082  16.211 -0.0279  0.2505 -0.0137
14793TIP3    H165870   6.048   3.110  16.123 -2.4425  0.6508 -0.6321
14793TIP3    H265871   6.054   3.151  16.269  1.6052 -0.0313 -0.5566
14794TIP3   OH265872   6.739   6.242  15.111  0.0109  0.3931  0.4954
14794TIP3    H165873   6.765   6.264  15.201 -0.3907 -0.6403  0.8754
14794TIP3    H265874   6.643   6.238  15.114 -0.0234  0.7607 -0.0789
14795TIP3   OH265875   1.327   5.303   0.445  0.1109 -0.1548  0.6385
14795TIP3    H165876   1.360   5.373   0.389  1.6589 -1.9759 -0.7991
14795TIP3    H265877   1.240   5.283   0.410  0.2847  0.0175  0.1134
14796TIP3   OH265878   2.338   3.798  16.005  0.0500  0.0439  0.0643
14796TIP3    H165879   2.290   3.717  16.021  0.3641 -0.2677 -0.5495
14796TIP3    H265880   2.273   3.868  16.015 -0.6136 -0.3992 -1.1252
14797TIP3   OH265881   4.602   2.398   5.969  0.1375 -0.0236 -0.0722
14797TIP3    H165882   4.679   2.421   6.021  1.3109 -0.9444 -1.3644
14797TIP3    H265883   4.637   2.349   5.894 -1.8627 -1.8730  0.1566
14798TIP3   OH265884   1.195   6.382  12.241  0.6803 -0.0021  0.6347
14798TIP3    H165885   1.104   6.353  12.228  0.8687 -0.7809  1.0017
14798TIP3    H265886   1.248   6.315  12.197  1.0023  1.7477 -1.7364
14799TIP3   OH265887   3.307   3.550   3.542  0.2452 -0.2024  0.4985
14799TIP3    H165888   3.328   3.458   3.560 -0.3801 -0.1746  1.3842
14799TIP3    H265889   3.334   3.597   3.621  0.3617  0.3495  0.1355
14800TIP3   OH265890   4.898   5.604  15.295 -0.9861  0.3770 -0.0144
14800TIP3    H165891   4.839   5.639  15.228  0.6104  1.7391 -0.7169
14800TIP3    H265892   4.872   5.512  15.303 -1.8280  0.4403 -1.7989
14801TIP3   OH265893   3.410   4.661  15.100 -0.1103 -0.0212  0.0809
14801TIP3    H165894   3.472   4.599  15.139  0.1232 -0.4806 -1.0015
14801TIP3    H265895   3.335   4.606  15.075  0.5904 -0.0825 -1.9699
14802TIP3   OH265896   3.288   5.278   1.265 -0.0443  0.4115  0.1657
14802TIP3    H165897   3.293   5.229   1.183  0.5372 -1.9962  1.5920
14802TIP3    H265898   3.333   5.360   1.247 -1.0089  0.4370 -2.2755
14803TIP3   OH265899   0.541   4.907  15.465 -0.0274 -0.0619 -0.5162
14803TIP3    H165900   0.500   4.824  15.441 -1.3811  0.2458  0.6261
14803TIP3    H265901   0.474   4.973  15.446  0.5357  0.6281 -0.1320
14804TIP3   OH265902   1.292   0.542  15.774 -0.2696  0.2247 -0.4833
14804TIP3    H165903   1.380   0.511  15.796 -0.4364 -0.4163 -0.7200
14804TIP3    H265904   1.299   0.637  15.779  0.8230  0.2458 -1.8724
14805TIP3   OH265905   6.587   3.014   5.440 -0.0580  0.2521 -0.3506
14805TIP3    H165906   6.640   2.934   5.443  1.9769  1.5888  0.6450
14805TIP3    H265907   6.500   2.987   5.467  0.5394 -1.6886 -0.3319
14806TIP3   OH265908   6.617   5.495  11.859 -0.1623 -0.8384  0.6849
14806TIP3    H165909   6.705   5.478  11.825 -0.1874  0.4958 -0.0950
14806TIP3    H265910   6.631   5.539  11.942 -0.0265  2.0931 -0.8113
14807TIP3   OH265911   5.355   4.670   4.110  0.2687 -0.3403 -0.7339
14807TIP3    H165912   5.273   4.654   4.063  0.2088  0.4086 -0.8886
14807TIP3    H265913   5.418   4.611   4.070 -0.4061 -1.5801 -0.0135
14808TIP3   OH265914   5.400   5.816   0.908 -0.0476  0.1770 -0.4091
14808TIP3    H165915   5.416   5.866   0.828 -1.9165  0.2022 -0.7810
14808TIP3    H265916   5.325   5.761   0.888  0.3442 -0.8536  0.8795
14809TIP3   OH265917   0.816   0.934   5.419  0.0310 -0.5962  0.1393
14809TIP3    H165918   0.881   0.883   5.371 -0.1547 -0.2145 -0.5157
14809TIP3    H265919   0.770   0.870   5.473  0.0774 -1.0656 -0.3764
14810TIP3   OH265920   1.407   2.115  17.231 -0.4407  0.2145  0.0974
14810TIP3    H165921   1.329   2.167  17.212  0.0309  0.7955 -0.2534
14810TIP3    H265922   1.478   2.161  17.186  0.2022  0.0128  0.9001
14811TIP3   OH265923   4.133   2.119   0.319 -0.8593  0.3159  0.3934
14811TIP3    H165924   4.119   2.152   0.408 -1.3337 -1.4057  0.9707
14811TIP3    H265925   4.212   2.164   0.290  1.3389 -1.6752  3.0025
14812TIP3   OH265926   5.485   3.609   5.173  0.0854 -0.0998 -0.4764
14812TIP3    H165927   5.437   3.557   5.109 -1.7269  0.0915  0.6888
14812TIP3    H265928   5.420   3.669   5.209  0.8116 -0.8204  2.1666
14813TIP3   OH265929   6.508   1.180   5.799  0.3861  0.3562  0.1174
14813TIP3    H165930   6.416   1.189   5.824 -0.6669 -0.8556 -3.0365
14813TIP3    H265931   6.532   1.091   5.827  0.6979  0.7824  1.2132
14814TIP3   OH265932   4.559   3.346   1.502  0.7682  0.4176  0.2791
14814TIP3    H165933   4.624   3.348   1.573  0.0786 -1.1183  0.9655
14814TIP3    H265934   4.563   3.434   1.465  1.1863  1.2419  2.1777
14815TIP3   OH265935   3.295   0.248   1.865 -1.0926  0.3771  0.1554
14815TIP3    H165936   3.336   0.309   1.926 -1.7160  0.6570  0.3031
14815TIP3    H265937   3.354   0.172   1.863  1.3055  2.1932 -2.3712
14816TIP3   OH265938   5.449   2.597   3.375  0.5395  0.1545 -0.6447
14816TIP3    H165939   5.539   2.611   3.344  0.7675 -2.6213 -1.3379
14816TIP3    H265940   5.398   2.664   3.331  2.3505  2.2366  0.2961
14817TIP3   OH265941   3.166   5.940   6.022 -0.0466 -0.7941 -0.2623
14817TIP3    H165942   3.198   5.909   6.107 -1.6510  0.8276  0.9983
14817TIP3    H265943   3.102   6.007   6.045  1.3117  1.4534 -2.8298
14818TIP3   OH265944   4.319   3.327  17.077 -0.0772 -0.2187 -0.0184
14818TIP3    H165945   4.264   3.275  17.136  0.5417 -1.1252 -0.2325
14818TIP3    H265946   4.323   3.275  16.996 -0.5152  0.7796 -0.6936
14819TIP3   OH265947   3.957   4.393  13.555  0.4380 -0.1108  0.2079
14819TIP3    H165948   3.913   4.337  13.492 -1.9455  0.5485  1.2507
14819TIP3    H265949   4.040   4.416  13.513  0.2428 -2.1994 -1.3464
14820TIP3   OH265950   5.097   3.256   4.128  0.9981  0.2225  0.0360
14820TIP3    H165951   5.158   3.213   4.068  0.8114 -0.2266  0.1627
14820TIP3    H265952   5.016   3.205   4.121  1.1444 -0.1773  1.0698
14821TIP3   OH265953   5.891   1.633  12.161  0.2276  0.0363 -0.2920
14821TIP3    H165954   5.891   1.727  12.177 -1.6937  0.3826 -2.0996
14821TIP3    H265955   5.832   1.597  12.228  0.1220  0.2618 -0.2629
14822TIP3   OH265956   1.876   2.983   0.197 -0.1823  0.0416 -0.1799
14822TIP3    H165957   1.864   2.971   0.102  2.1207  0.4913 -0.5422
14822TIP3    H265958   1.849   2.900   0.235 -3.2307  0.5516 -1.0046
14823TIP3   OH265959   6.373   0.638  14.044  0.1286 -0.1759 -1.1465
14823TIP3    H165960   6.305   0.644  13.978 -1.1064 -3.3140 -0.2313
14823TIP3    H265961   6.330   0.664  14.126  0.2719 -1.1970 -0.7343
14824TIP3   OH265962   0.382   1.440  16.645  0.3537  0.3896  0.3193
14824TIP3    H165963   0.287   1.429  16.633  0.7037 -2.5644 -0.0779
14824TIP3    H265964   0.393   1.533  16.664 -2.4380  1.1408 -1.5034
14825TIP3   OH265965   0.491   6.168  14.572  0.2226  0.5697  0.9337
14825TIP3    H165966   0.488   6.075  14.550 -0.5538  0.7293  0.3465
14825TIP3    H265967   0.406   6.185  14.614 -1.1116  1.7932 -2.1296
14826TIP3   OH265968   0.029   1.459  13.946  0.2955 -0.0172 -0.2252
14826TIP3    H165969  -0.007   1.385  13.897 -0.1263  0.3463 -0.4705
14826TIP3    H265970   0.113   1.478  13.903 -0.2469  0.5414 -1.0541
14827TIP3   OH265971   5.524   1.163  15.953  0.5238  0.5194  0.5711
14827TIP3    H165972   5.586   1.165  15.881 -0.5833 -0.6015 -0.4460
14827TIP3    H265973   5.477   1.246  15.947  0.3882  0.4006 -0.0472
14828TIP3   OH265974   2.005   1.090  16.842  0.0822 -0.0104 -0.3909
14828TIP3    H165975   2.041   1.177  16.824 -2.7880  1.4166  0.5236
14828TIP3    H265976   1.934   1.080  16.779 -2.9238  0.5028  2.7544
14829TIP3   OH265977   2.241   1.648   1.491 -0.3359  0.6741  0.7394
14829TIP3    H165978   2.247   1.555   1.471 -0.3322  0.9867 -0.8410
14829TIP3    H265979   2.309   1.664   1.556 -1.4113 -0.7311  2.2338
14830TIP3   OH265980   5.656   6.790  13.395 -0.4135  0.4007  0.2173
14830TIP3    H165981   5.733   6.734  13.386 -1.1696 -1.0988  2.5701
14830TIP3    H265982   5.677   6.847  13.468 -1.4785  0.0582  0.7975
14831TIP3   OH265983   0.203   2.777  16.741 -0.0191 -0.3173 -0.8090
14831TIP3    H165984   0.151   2.769  16.662 -0.7903  2.5311 -0.6383
14831TIP3    H265985   0.259   2.853  16.726  1.3941 -1.0467  0.5408
14832TIP3   OH265986   3.487   3.687  11.961  0.1082  0.1181 -0.2720
14832TIP3    H165987   3.528   3.608  11.924 -0.0056  0.9080 -2.1259
14832TIP3    H265988   3.561   3.742  11.989  0.2684  0.6053 -1.6360
14833TIP3   OH265989   3.291   1.034   3.944  0.0183  0.3289 -0.5386
14833TIP3    H165990   3.293   1.128   3.965 -0.0346 -0.2572  2.2753
14833TIP3    H265991   3.318   0.991   4.025 -1.1831 -2.1612 -1.4185
14834TIP3   OH265992   3.831   4.236   0.811  0.3405 -0.0918  0.1241
14834TIP3    H165993   3.887   4.213   0.885 -1.8141 -1.2860  1.4366
14834TIP3    H265994   3.749   4.266   0.851 -0.0068  1.5822 -1.7432
14835TIP3   OH265995   1.799   3.145  13.113 -0.3697 -0.7521 -0.3940
14835TIP3    H165996   1.703   3.141  13.116 -0.4579 -0.2240 -1.9765
14835TIP3    H265997   1.827   3.054  13.114 -0.9116 -0.9187 -0.2847
14836TIP3   OH265998   0.508   0.001   2.666 -0.2867  0.0425  0.2586
14836TIP3    H165999   0.510   0.041   2.580 -0.7647 -0.4610  0.0085
14836TIP3    H266000   0.508   0.075   2.727  0.5787  0.3896 -0.1565
14837TIP3   OH266001   4.203   5.726   1.443  0.0650 -0.1713 -0.4825
14837TIP3    H166002   4.150   5.796   1.480  0.2212 -0.9326  1.1995
14837TIP3    H266003   4.163   5.645   1.475  0.4682 -0.8415 -1.6083
14838TIP3   OH266004   5.102   6.459   3.045 -0.0920  0.0018 -0.4702
14838TIP3    H166005   5.033   6.397   3.020 -0.1490 -1.2371  2.5955
14838TIP3    H266006   5.176   6.405   3.070  0.5835  1.2364  0.2561
14839TIP3   OH266007   4.735   0.087   0.337 -0.3033 -0.3662  0.0967
14839TIP3    H166008   4.829   0.068   0.337 -0.1814  0.1832  1.4222
14839TIP3    H266009   4.693   0.001   0.344  0.0985 -0.5950 -0.3058
14840TIP3   OH266010   5.516   3.645   4.466  0.9776 -0.2980  0.8467
14840TIP3    H166011   5.546   3.728   4.429  0.0811 -0.2777  0.1545
14840TIP3    H266012   5.587   3.618   4.525  2.1095  0.0056 -0.3481
14841TIP3   OH266013   2.350   2.394   2.527 -0.0627  0.3180 -0.6295
14841TIP3    H166014   2.366   2.448   2.604  1.5152 -0.7227 -0.2028
14841TIP3    H266015   2.257   2.408   2.507 -0.4709  0.6845  1.3768
14842TIP3   OH266016   5.594   6.354   1.579 -0.2856 -0.2708  0.5597
14842TIP3    H166017   5.562   6.267   1.553  1.8499 -0.2719 -2.2351
14842TIP3    H266018   5.540   6.415   1.530  1.2050 -0.1651 -0.9738
14843TIP3   OH266019   0.253   5.034   4.966 -0.2178 -0.2104  0.4085
14843TIP3    H166020   0.304   5.028   5.047  0.0159 -2.6540  0.1402
14843TIP3    H266021   0.182   4.971   4.978  0.1308 -1.0036 -1.4718
14844TIP3   OH266022   2.453   3.197   5.225 -0.3205 -0.3611 -0.0436
14844TIP3    H166023   2.381   3.246   5.186  0.1371  1.0002  0.7760
14844TIP3    H266024   2.502   3.262   5.276  0.4582 -1.6161  0.8574
14845TIP3   OH266025   0.834   6.785  11.777 -0.0752 -0.2194  0.1894
14845TIP3    H166026   0.821   6.792  11.682  1.3950  0.8819  0.0352
14845TIP3    H266027   0.748   6.801  11.815 -0.6898 -0.7445 -0.9751
14846TIP3   OH266028   0.945   2.996  16.918  0.7855 -0.1124  0.1175
14846TIP3    H166029   0.853   3.005  16.942  0.9509 -0.5283  0.9348
14846TIP3    H266030   0.991   3.059  16.974  0.9280  0.6304 -0.8169
14847TIP3   OH266031   6.490   1.421   3.209  0.1316 -0.6894 -0.3296
14847TIP3    H166032   6.454   1.340   3.172  0.6484 -0.7491 -0.7056
14847TIP3    H266033   6.521   1.470   3.133 -0.0165 -0.2201 -0.0844
14848TIP3   OH266034   3.448   3.858  11.205 -0.2081  0.0576  0.1243
14848TIP3    H166035   3.407   3.871  11.119 -0.6942  0.7552  0.4540
14848TIP3    H266036   3.386   3.804  11.253 -0.5857  0.8287  0.5088
14849TIP3   OH266037   4.405   2.905   4.643 -0.0894  1.0858 -0.1115
14849TIP3    H166038   4.497   2.929   4.633  0.4804 -1.4247 -1.1300
14849TIP3    H266039   4.362   2.987   4.669  2.0832  2.7644 -1.6165
14850TIP3   OH266040   3.375   1.472   4.532  0.2624 -0.0508  0.0872
14850TIP3    H166041   3.403   1.478   4.624 -2.0618  1.6134  0.7617
14850TIP3    H266042   3.405   1.555   4.493  2.1343 -1.1915 -0.9509
14851TIP3   OH266043   0.268   2.773   1.979  0.4238  0.1647  0.5501
14851TIP3    H166044   0.335   2.717   1.939 -2.1855 -1.1696 -2.0711
14851TIP3    H266045   0.303   2.862   1.969  1.8653 -0.5033 -0.6662
14852TIP3   OH266046   1.412   3.533  16.575  0.1137  0.7583 -0.0674
14852TIP3    H166047   1.379   3.554  16.487 -0.6203  0.4641  0.1340
14852TIP3    H266048   1.475   3.603  16.593 -0.2497  1.2259 -0.5417
14853TIP3   OH266049   5.235   2.104  12.742  0.3475  0.4712 -0.9046
14853TIP3    H166050   5.289   2.127  12.667  0.3704 -0.5109 -1.2022
14853TIP3    H266051   5.290   2.043  12.793 -1.0085 -1.7178 -1.9920
14854TIP3   OH266052   2.450   6.006  11.376 -0.4549  0.0279  0.8129
14854TIP3    H166053   2.405   5.927  11.344 -0.1454  0.4883 -0.8332
14854TIP3    H266054   2.542   5.980  11.381 -0.3119  0.3609 -0.0152
14855TIP3   OH266055   5.483   4.154   5.956  0.7778 -0.7374 -0.9698
14855TIP3    H166056   5.498   4.202   6.037  0.1505  1.0696 -1.8756
14855TIP3    H266057   5.425   4.212   5.905  1.7382 -1.5104 -2.9801
14856TIP3   OH266058   6.484   6.586   5.552  0.1772 -0.3178 -0.7123
14856TIP3    H166059   6.495   6.659   5.611 -2.4129 -0.1676 -0.3566
14856TIP3    H266060   6.528   6.513   5.595 -1.0843 -0.0433  1.0805
14857TIP3   OH266061   5.642   1.395  13.872  0.9824 -0.3255  0.3999
14857TIP3    H166062   5.726   1.426  13.908  2.0528 -1.7476 -0.8469
14857TIP3    H266063   5.660   1.307  13.839 -0.8038 -0.3313 -0.6437
14858TIP3   OH266064   4.454   6.637  14.406  0.2327 -0.1301  0.4111
14858TIP3    H166065   4.463   6.678  14.320 -1.2673  3.3625  1.8676
14858TIP3    H266066   4.366   6.598  14.405  0.1357  0.0918  0.4676
14859TIP3   OH266067   5.869   0.602   1.392 -0.7649 -0.5218 -0.4166
14859TIP3    H166068   5.842   0.519   1.431 -2.6745  0.1387 -0.3027
14859TIP3    H266069   5.960   0.613   1.419 -1.3637 -1.1955  1.9495
14860TIP3   OH266070   6.633   5.447   2.947 -0.2050  0.9575 -0.0496
14860TIP3    H166071   6.603   5.442   2.856 -0.2144  0.1914 -0.0124
14860TIP3    H266072   6.594   5.528   2.981 -1.3125  0.5561 -0.3331
14861TIP3   OH266073   6.430   5.561  12.810  0.6741  0.0126 -0.1656
14861TIP3    H166074   6.366   5.548  12.880  0.5750  2.7432  0.3108
14861TIP3    H266075   6.394   5.634  12.758  2.3681  0.1968 -1.1179
14862TIP3   OH266076   3.509   5.212  15.468  0.3020  0.9813 -0.0152
14862TIP3    H166077   3.534   5.288  15.520  1.8018  0.7775 -0.4187
14862TIP3    H266078   3.454   5.160  15.526  1.3095  1.1519  1.1025
14863TIP3   OH266079   5.082   5.697  14.641  0.8672  0.0552  0.9043
14863TIP3    H166080   5.064   5.755  14.567 -0.0406 -0.8446  0.4143
14863TIP3    H266081   5.177   5.685  14.639  0.8874  0.3222  0.1124
14864TIP3   OH266082   6.230   3.240   4.503  0.0048 -0.1517  0.4492
14864TIP3    H166083   6.246   3.331   4.479  0.8261 -0.4810 -0.2683
14864TIP3    H266084   6.313   3.195   4.486  0.0872 -0.7320  2.2933
14865TIP3   OH266085   2.586   3.292  14.566  0.2090  0.3834 -0.0676
14865TIP3    H166086   2.516   3.356  14.579 -0.3971 -0.5567  1.3409
14865TIP3    H266087   2.621   3.313  14.479 -0.8978  1.7328 -0.2129
14866TIP3   OH266088   5.322   4.407   3.580  0.1299  0.5415 -0.4152
14866TIP3    H166089   5.309   4.430   3.672 -0.1230  0.3575 -0.4025
14866TIP3    H266090   5.250   4.347   3.561 -0.2792  1.1896 -0.9442
14867TIP3   OH266091   6.002   3.364   2.119 -0.2255 -0.2476  0.4195
14867TIP3    H166092   6.045   3.300   2.061 -0.2108 -2.0316  2.3265
14867TIP3    H266093   6.062   3.438   2.121  0.5793 -0.8526 -0.5239
14868TIP3   OH266094   3.677   2.230   5.247 -0.5470  0.1660 -0.0678
14868TIP3    H166095   3.728   2.186   5.316 -1.7920 -2.6580 -0.8747
14868TIP3    H266096   3.586   2.205   5.264 -1.1128  1.1877 -1.4736
14869TIP3   OH266097   0.637   3.312   1.611 -0.2918  0.0789  0.3982
14869TIP3    H166098   0.545   3.310   1.638 -0.7694  0.5999 -1.1584
14869TIP3    H266099   0.684   3.274   1.685 -2.1017 -3.7465 -0.2898
14870TIP3   OH266100   5.805   1.400   6.922  0.8605 -0.1886  0.0158
14870TIP3    H166101   5.749   1.357   6.858 -0.9357  1.2527  0.5644
14870TIP3    H266102   5.810   1.491   6.893  1.9593 -0.0344  0.6336
14871TIP3   OH266103   1.228   1.946   0.894  0.3478  0.5673  0.3674
14871TIP3    H166104   1.154   1.902   0.852  1.6484 -2.5506  1.1997
14871TIP3    H266105   1.239   1.900   0.978  0.0294  4.3502  2.6048
14872TIP3   OH266106   2.086   2.721  11.539 -0.1143 -0.4926  0.0433
14872TIP3    H166107   2.166   2.774  11.538  0.2413 -1.0149 -1.7857
14872TIP3    H266108   2.038   2.750  11.462 -1.4801 -0.5140  0.8770
14873TIP3   OH266109   6.060   1.875   2.620 -0.1457 -0.2765 -0.2674
14873TIP3    H166110   6.121   1.802   2.630 -0.6504 -0.9891 -2.3008
14873TIP3    H266111   5.974   1.834   2.614 -0.5399  0.5588 -0.4026
14874TIP3   OH266112   6.107   0.162  15.162 -0.2136 -0.3383 -0.1893
14874TIP3    H166113   6.180   0.109  15.194  0.4521 -0.2944 -1.5852
14874TIP3    H266114   6.093   0.132  15.072 -0.3095  1.3294 -0.7555
14875TIP3   OH266115   1.473   3.797   2.522 -0.7573  0.1027  0.5306
14875TIP3    H166116   1.491   3.802   2.429 -2.8567  0.9082  0.1309
14875TIP3    H266117   1.483   3.704   2.544 -1.2880 -0.2644 -0.7251
14876TIP3   OH266118   6.048   3.334  15.705  0.2502 -0.2547  0.3395
14876TIP3    H166119   6.105   3.378  15.642  0.3538  0.4736  0.9379
14876TIP3    H266120   6.046   3.243  15.675  3.4865 -0.8015  1.5493
14877TIP3   OH266121   4.834   1.855  16.956  0.5723 -0.1943  0.3466
14877TIP3    H166122   4.900   1.790  16.932  0.5943 -0.8076  1.9767
14877TIP3    H266123   4.872   1.902  17.031 -1.3705 -1.4899  2.2195
14878TIP3   OH266124   2.823   5.816  15.522 -0.4704 -0.0008  0.7686
14878TIP3    H166125   2.807   5.727  15.553  3.2731 -1.1668 -0.3929
14878TIP3    H266126   2.822   5.809  15.427  2.4159  0.5739  0.6325
14879TIP3   OH266127   5.152   6.651   1.774  0.1301  0.3744  0.5950
14879TIP3    H166128   5.213   6.707   1.726 -0.6733  1.7499  1.1405
14879TIP3    H266129   5.074   6.646   1.719  0.3009 -0.4566  0.4192
14880TIP3   OH266130   4.725   0.214  14.776  0.0083  0.2947 -0.4961
14880TIP3    H166131   4.782   0.138  14.765 -2.6943 -1.4940 -2.8071
14880TIP3    H266132   4.663   0.188  14.844 -2.0861 -0.3426 -2.6011
14881TIP3   OH266133   3.704   5.746   2.071 -0.3537 -0.8293  0.0599
14881TIP3    H166134   3.746   5.813   2.125 -0.6386 -1.2282  0.7850
14881TIP3    H266135   3.774   5.712   2.016  0.0276 -0.7188  0.4781
14882TIP3   OH266136   6.780   4.762  14.541 -0.1419  0.7009  0.1476
14882TIP3    H166137   6.869   4.728  14.554 -0.1907  1.1176  1.6724
14882TIP3    H266138   6.759   4.739  14.451  1.7914  1.2280 -0.4648
14883TIP3   OH266139   3.517   3.378   1.714  0.0198 -0.5422 -1.0429
14883TIP3    H166140   3.526   3.443   1.644  1.2094 -0.1432 -0.5294
14883TIP3    H266141   3.597   3.327   1.710  0.2496 -0.3033  0.2413
14884TIP3   OH266142   6.467   4.998  12.549 -0.1947  0.3296 -0.2690
14884TIP3    H166143   6.488   4.966  12.461  0.9444  0.2967  0.0012
14884TIP3    H266144   6.409   5.072  12.534 -0.6714 -0.1839 -1.0153
14885TIP3   OH266145   1.526   2.810  13.256 -0.5125 -0.1588 -0.2216
14885TIP3    H166146   1.590   2.879  13.274 -0.4273 -0.0421 -0.9704
14885TIP3    H266147   1.563   2.732  13.299 -0.1497  0.0401 -0.1688
14886TIP3   OH266148   4.705   3.658  15.205 -0.1492 -0.3196  0.5633
14886TIP3    H166149   4.771   3.629  15.142  0.9690  1.7130  0.7786
14886TIP3    H266150   4.695   3.585  15.265  1.6924 -0.7574  0.3571
14887TIP3   OH266151   5.412   0.255  13.573 -0.1984  0.6286  0.2782
14887TIP3    H166152   5.345   0.204  13.619  0.3256  0.6199  1.0589
14887TIP3    H266153   5.382   0.346  13.580 -0.4426  0.5648  0.0778
14888TIP3   OH266154   3.940   6.767   2.369 -0.4582 -0.4107  0.3924
14888TIP3    H166155   3.983   6.852   2.370 -0.3950 -0.4362 -0.2366
14888TIP3    H266156   3.888   6.766   2.450  1.8218 -0.9493  1.9028
14889TIP3   OH266157   4.188   1.795  16.024  0.4355 -1.0358  0.3759
14889TIP3    H166158   4.180   1.709  16.066 -1.3789 -0.6394  0.8727
14889TIP3    H266159   4.211   1.854  16.095 -3.6604 -0.1748  1.1222
14890TIP3   OH266160   1.833   5.505  13.946 -0.2359  0.1289 -0.5441
14890TIP3    H166161   1.823   5.541  13.858 -0.5232  0.9315 -0.1879
14890TIP3    H266162   1.789   5.569  14.003 -1.6967 -1.3026 -0.0152
14891TIP3   OH266163   6.091   3.369  12.154 -0.5727 -0.1202 -0.0855
14891TIP3    H166164   6.075   3.280  12.122  0.5423 -0.6925  0.9087
14891TIP3    H266165   6.064   3.425  12.082  0.4619 -1.3366 -1.4612
14892TIP3   OH266166   6.032   4.102   3.715  0.3085 -0.5316  0.2758
14892TIP3    H166167   6.068   4.166   3.776  1.1354 -1.0901  0.3755
14892TIP3    H266168   6.044   4.142   3.629 -0.9448  0.2968  0.4630
14893TIP3   OH266169   2.053   1.532   5.916 -0.1481  0.6074  0.0857
14893TIP3    H166170   2.141   1.553   5.884  0.3911 -1.9676 -0.2332
14893TIP3    H266171   2.062   1.534   6.011  0.8586 -1.8060  0.0806
14894TIP3   OH266172   0.721   5.087  13.968  0.1110 -0.0263  0.2944
14894TIP3    H166173   0.735   5.013  13.909 -0.3658 -0.4679  0.7250
14894TIP3    H266174   0.807   5.125  13.980  0.6599 -1.5230  1.3825
14895TIP3   OH266175   6.055   3.607   5.860  0.1474  0.3434  0.4690
14895TIP3    H166176   6.077   3.547   5.788  0.8634 -1.9402  2.5175
14895TIP3    H266177   5.960   3.599   5.870  0.0770  0.4931 -0.0685
14896TIP3   OH266178   2.084   3.903  14.778 -0.2979  0.1886 -0.1142
14896TIP3    H166179   2.126   3.965  14.838  0.6904  0.3070 -0.9153
14896TIP3    H266180   2.154   3.876  14.719 -0.6295 -1.9715  0.4489
14897TIP3   OH266181   3.123   1.143   2.853  0.2402 -0.1939  0.0658
14897TIP3    H166182   3.078   1.195   2.919  0.9770 -0.9247  1.1636
14897TIP3    H266183   3.134   1.057   2.894  0.2286 -0.8065 -1.2100
14898TIP3   OH266184   0.744   3.743  11.731 -0.1901 -0.3593 -0.2282
14898TIP3    H166185   0.747   3.659  11.685 -1.6403 -0.6889  0.2775
14898TIP3    H266186   0.663   3.741  11.781  0.1567  1.0228  0.4193
14899TIP3   OH266187   1.855   3.685   3.154  0.2077 -0.4310  0.6197
14899TIP3    H166188   1.805   3.692   3.235 -0.3358 -0.1045  0.2560
14899TIP3    H266189   1.873   3.592   3.144  0.2791 -0.4701  1.1145
14900TIP3   OH266190   5.037   6.037  14.766  0.0785 -0.2997  0.0256
14900TIP3    H166191   5.074   6.121  14.793  1.1765 -1.1869  1.4094
14900TIP3    H266192   5.111   5.976  14.771 -1.3869 -2.0207  2.3303
14901TIP3   OH266193   6.722   5.691  15.841 -0.6056  0.2432 -0.1699
14901TIP3    H166194   6.648   5.634  15.821 -0.0023 -1.0102  1.0783
14901TIP3    H266195   6.799   5.644  15.808 -0.1814  0.7234  0.1217
14902TIP3   OH266196   0.130   2.329  14.420 -0.2782 -0.4857  1.1855
14902TIP3    H166197   0.068   2.283  14.477 -1.4353 -1.2568 -0.6783
14902TIP3    H266198   0.145   2.268  14.347 -0.6822  1.4811 -0.5717
14903TIP3   OH266199   4.599   3.729   4.129  0.1072  0.0831  0.4595
14903TIP3    H166200   4.641   3.651   4.166 -1.1178 -1.7609 -1.8942
14903TIP3    H266201   4.672   3.785   4.102  1.0113 -1.0258  0.5711
14904TIP3   OH266202   1.727   3.652   0.978 -0.6095  0.0613 -0.7956
14904TIP3    H166203   1.757   3.575   0.929  1.3842  0.1036  0.3015
14904TIP3    H266204   1.645   3.678   0.935 -0.5033 -1.7415 -2.1386
14905TIP3   OH266205   1.475   3.249   6.238  0.8471  0.1923  0.2453
14905TIP3    H166206   1.417   3.309   6.285 -1.2090 -1.1368 -0.5466
14905TIP3    H266207   1.551   3.240   6.295  0.0247  1.5019  1.5897
14906TIP3   OH266208   2.729   2.044  13.371 -0.2417  0.1852  0.4492
14906TIP3    H166209   2.637   2.069  13.377 -0.4087  0.2131 -2.0186
14906TIP3    H266210   2.774   2.123  13.341  0.1160 -0.6775 -1.3534
14907TIP3   OH266211   0.506   5.454   4.729 -0.0121  0.0988 -0.3625
14907TIP3    H166212   0.560   5.379   4.703  0.9582  0.5353  0.3248
14907TIP3    H266213   0.481   5.496   4.647 -0.7491 -1.0983 -0.7638
14908TIP3   OH266214   4.667   3.859  16.971 -0.3158 -0.5701  0.3666
14908TIP3    H166215   4.588   3.866  16.918  0.1280 -0.6946 -0.3237
14908TIP3    H266216   4.639   3.815  17.051 -1.6135  2.2732  1.5607
14909TIP3   OH266217   1.585   2.684  11.006 -0.1392 -0.1243  0.1713
14909TIP3    H166218   1.602   2.735  10.927  0.2969 -0.1320  0.2589
14909TIP3    H266219   1.524   2.738  11.056  0.2302  0.2584  0.2088
14910TIP3   OH266220   5.816   3.348   3.552  0.0772  0.4548 -0.0197
14910TIP3    H166221   5.899   3.318   3.514  1.5168  2.1964  1.6026
14910TIP3    H266222   5.757   3.273   3.543  2.3745 -1.4872  0.4415
14911TIP3   OH266223   6.427   5.525   1.790  0.0585 -0.9151  0.1561
14911TIP3    H166224   6.506   5.471   1.780  0.8587  0.3626 -0.6518
14911TIP3    H266225   6.402   5.548   1.700 -0.4416 -0.2084  0.4695
14912TIP3   OH266226   2.744   0.630   0.239 -0.2067 -0.4930 -0.2970
14912TIP3    H166227   2.687   0.681   0.181 -0.8992 -1.1051 -0.1617
14912TIP3    H266228   2.713   0.540   0.230  1.4874 -1.0316 -1.1201
14913TIP3   OH266229   4.130   3.687   3.079  0.1046  0.2463 -0.4485
14913TIP3    H166230   4.092   3.767   3.042 -1.3394 -0.3442 -0.2548
14913TIP3    H266231   4.100   3.617   3.021 -2.0931 -0.6887  1.7525
14914TIP3   OH266232   3.105   6.043   0.351 -0.2589 -0.0000  0.1906
14914TIP3    H166233   3.178   5.986   0.326 -0.0358 -0.1842  1.2489
14914TIP3    H266234   3.128   6.128   0.314  0.3442 -0.1277  0.2609
14915TIP3   OH266235   1.816   4.136   0.777 -0.1989  0.0720 -0.4971
14915TIP3    H166236   1.832   4.115   0.685  0.2799  0.2678 -0.4560
14915TIP3    H266237   1.883   4.088   0.825  1.3468  2.2392 -0.4473
14916TIP3   OH266238   2.246   2.508   5.359  0.3911 -0.2576 -0.3246
14916TIP3    H166239   2.335   2.517   5.328  0.8304 -3.6564 -0.2342
14916TIP3    H266240   2.245   2.555   5.442  1.8195  0.6408 -0.8039
14917TIP3   OH266241   4.171   1.088   3.890  0.4367 -0.5654 -0.1821
14917TIP3    H166242   4.089   1.075   3.937 -0.4693 -0.9959 -1.8143
14917TIP3    H266243   4.236   1.106   3.958 -0.8634 -0.9414  1.1833
14918TIP3   OH266244   2.510   0.897   5.437  0.3263  0.6532  0.3690
14918TIP3    H166245   2.470   0.899   5.524  0.8388  0.2106  0.6215
14918TIP3    H266246   2.488   0.981   5.398 -1.4860  0.1198  0.2071
14919TIP3   OH266247   0.302   5.566  13.856  0.0302  0.0751  0.2334
14919TIP3    H166248   0.347   5.501  13.911 -0.3784 -0.5845 -0.2014
14919TIP3    H266249   0.371   5.601  13.800  0.1602 -0.3640  0.1108
14920TIP3   OH266250   3.302   3.972  12.992 -0.0512 -0.1589  0.1106
14920TIP3    H166251   3.241   3.914  13.037  0.5797 -2.1569 -1.5538
14920TIP3    H266252   3.347   4.019  13.063 -2.4011  0.2445  1.3783
14921TIP3   OH266253   2.367   5.425   1.593 -0.0990 -0.0569 -0.2375
14921TIP3    H166254   2.300   5.478   1.635  0.5381 -0.3570  1.1944
14921TIP3    H266255   2.443   5.431   1.651 -0.3315 -3.3422  0.5302
14922TIP3   OH266256   4.385   5.394   1.590  0.2206  0.5367 -0.1950
14922TIP3    H166257   4.375   5.335   1.665  0.3379 -0.1722 -0.7311
14922TIP3    H266258   4.358   5.479   1.623 -0.1496  0.1423  0.5379
14923TIP3   OH266259   5.154   2.923   0.491  0.5052  0.6910  0.0228
14923TIP3    H166260   5.091   2.991   0.510  2.1907  2.0084  1.0637
14923TIP3    H266261   5.196   2.950   0.409  0.4088  0.3449 -0.1421
14924TIP3   OH266262   4.996   3.928  14.258 -0.4882  0.2389 -0.2281
14924TIP3    H166263   4.998   4.022  14.239 -0.5536  0.3356  0.2258
14924TIP3    H266264   4.905   3.910  14.280 -0.9506 -0.4102 -2.6133
14925TIP3   OH266265   1.390   1.389   2.508  0.2250 -0.2513  0.6998
14925TIP3    H166266   1.481   1.401   2.533  0.4713 -0.6676  0.0082
14925TIP3    H266267   1.352   1.336   2.579  0.5458 -0.1829  0.9220
14926TIP3   OH266268   5.630   1.978  17.073  0.0339 -0.5848  0.1078
14926TIP3    H166269   5.647   1.922  17.149  1.3058  0.8788  0.9354
14926TIP3    H266270   5.716   1.987  17.030 -0.3775 -0.1930 -0.6417
14927TIP3   OH266271   0.363   0.857  10.872 -0.0345  0.0820 -0.0624
14927TIP3    H166272   0.401   0.929  10.922 -1.4501  0.3643  0.6328
14927TIP3    H266273   0.425   0.785  10.884  0.6567  0.7455  0.4407
14928TIP3   OH266274   4.428   0.931   5.082  0.4365 -0.3518 -0.6568
14928TIP3    H166275   4.416   0.939   4.987  0.7361 -0.4592 -0.7055
14928TIP3    H266276   4.409   0.838   5.100 -1.3182  0.0530 -0.3568
14929TIP3   OH266277   4.048   0.791   2.139  0.1696 -0.3631 -0.0011
14929TIP3    H166278   4.112   0.757   2.076  0.8402  0.3338  0.3059
14929TIP3    H266279   3.984   0.837   2.084  0.2484 -0.5549 -0.2574
14930TIP3   OH266280   4.807   3.915  14.600  0.1492  0.6072 -0.1381
14930TIP3    H166281   4.792   3.958  14.684  0.1974  0.0831  0.1397
14930TIP3    H266282   4.802   3.821  14.619  0.5708  0.4757 -0.6405
14931TIP3   OH266283   6.051   2.994  14.730  0.3960 -0.0256  0.2267
14931TIP3    H166284   6.098   3.036  14.658 -1.4090  2.1433  0.2787
14931TIP3    H266285   5.970   2.963  14.690  0.8763 -1.8473  0.6164
14932TIP3   OH266286   5.143   3.784  16.467 -0.3270  0.1005  0.0031
14932TIP3    H166287   5.155   3.713  16.404  0.2592  0.4283 -0.2616
14932TIP3    H266288   5.106   3.856  16.416 -0.6166  0.0930  0.2022
14933TIP3   OH266289   1.926   5.467   4.267  0.4137  0.3161  0.7877
14933TIP3    H166290   1.925   5.561   4.250 -0.7511  0.0350 -0.8357
14933TIP3    H266291   1.930   5.427   4.180 -2.6918 -1.1338  1.2323
14934TIP3   OH266292   6.357   2.392  13.142 -0.5122  0.2771 -0.1878
14934TIP3    H166293   6.292   2.409  13.210  0.5234 -2.8732  1.6541
14934TIP3    H266294   6.305   2.370  13.065 -1.7792 -4.0359  1.7401
14935TIP3   OH266295   4.989   3.426   4.300 -0.0599 -0.5430 -0.3154
14935TIP3    H166296   5.018   3.358   4.238 -0.0823  0.0308 -0.9548
14935TIP3    H266297   5.070   3.473   4.322  0.1687 -1.5541  1.0912
14936TIP3   OH266298   2.960   4.708  12.775  0.7306 -0.3652 -0.3960
14936TIP3    H166299   2.991   4.715  12.866 -0.4480  0.9361 -0.0776
14936TIP3    H266300   2.904   4.631  12.775  1.7099 -1.0911 -0.3172
14937TIP3   OH266301   1.532   4.582   1.337  0.2631  0.0480  0.2239
14937TIP3    H166302   1.621   4.572   1.302  1.2075  0.6681  2.3406
14937TIP3    H266303   1.519   4.505   1.392  0.2011  0.8447  1.3462
14938TIP3   OH266304   1.693   2.817   3.803  0.0705  0.2640  0.1756
14938TIP3    H166305   1.668   2.749   3.740  1.4771  0.2139 -0.3621
14938TIP3    H266306   1.622   2.880   3.801 -0.7214 -0.6301 -0.1630
14939TIP3   OH266307   2.558   6.710  12.988  0.2658 -0.3037  0.4802
14939TIP3    H166308   2.500   6.677  12.919  0.4302  1.3582 -0.4690
14939TIP3    H266309   2.505   6.775  13.035  0.9057  0.2161  0.4842
14940TIP3   OH266310   4.535   1.436   2.741  0.3332  0.2464  0.5085
14940TIP3    H166311   4.569   1.473   2.822 -1.9842  1.8798  0.8088
14940TIP3    H266312   4.481   1.362   2.769  1.6865 -0.8640  0.2244
14941TIP3   OH266313   6.526   3.730   4.911 -0.0628  0.4955  0.2583
14941TIP3    H166314   6.535   3.688   4.997 -0.6053  0.7087  0.4199
14941TIP3    H266315   6.459   3.797   4.924 -0.5488  0.1512 -0.4835
14942TIP3   OH266316   4.968   2.316   0.720 -0.1405  0.2252 -0.1186
14942TIP3    H166317   4.880   2.313   0.757  0.2691  1.3448  1.0068
14942TIP3    H266318   4.968   2.395   0.666 -0.2755 -0.5891 -1.3204
14943TIP3   OH266319   0.426   0.434  11.455  1.3459  0.2829 -0.7374
14943TIP3    H166320   0.439   0.371  11.385  2.2279 -1.7685  1.2188
14943TIP3    H266321   0.341   0.411  11.493  1.3094  0.7637 -0.5269
14944TIP3   OH266322   2.634   4.158   2.379  0.3443  0.2203  0.1324
14944TIP3    H166323   2.665   4.092   2.318  0.8010  0.7320 -0.1901
14944TIP3    H266324   2.562   4.201   2.334 -2.3244 -2.3955  1.7017
14945TIP3   OH266325   0.408   6.244   6.306  0.7708 -0.0074 -0.6141
14945TIP3    H166326   0.362   6.169   6.344  0.4109 -0.7921 -2.5430
14945TIP3    H266327   0.339   6.310   6.293  1.1671  0.8676  1.5164
14946TIP3   OH266328   4.325   4.222   0.333 -0.2445  0.4662  0.3352
14946TIP3    H166329   4.347   4.240   0.241  0.7486 -0.2172  0.4317
14946TIP3    H266330   4.308   4.308   0.371  0.3032  0.8329 -0.2439
14947TIP3   OH266331   6.470   4.494  15.832 -0.9209 -0.5088 -0.7677
14947TIP3    H166332   6.462   4.402  15.810  0.8325 -0.2380 -2.6961
14947TIP3    H266333   6.517   4.533  15.758  0.2650  1.5144  0.9780
14948TIP3   OH266334   0.540   4.753   1.273 -0.3708  1.0055  0.1430
14948TIP3    H166335   0.623   4.795   1.294 -0.4691  2.1231 -1.5793
14948TIP3    H266336   0.559   4.700   1.195 -1.3091  1.4002 -0.3644
14949TIP3   OH266337   0.406   0.720  12.031  0.4008 -0.1798  0.2981
14949TIP3    H166338   0.435   0.811  12.035  2.2297 -0.4042 -4.2390
14949TIP3    H266339   0.453   0.675  12.100  1.9621  1.7260  0.4939
14950TIP3   OH266340   4.968   0.648  16.464  0.1224 -0.5214 -0.2996
14950TIP3    H166341   4.906   0.721  16.461 -0.1152 -0.7818 -1.9939
14950TIP3    H266342   4.987   0.637  16.558  1.6379  2.9147 -0.1210
14951TIP3   OH266343   6.787   5.146  17.026  0.0569  0.0087  0.1002
14951TIP3    H166344   6.714   5.120  16.969 -0.1735  0.5087  0.1604
14951TIP3    H266345   6.830   5.217  16.980  1.0886 -0.9080 -0.3776
14952TIP3   OH266346   2.264   6.330   2.462 -0.0170  0.3207  0.5468
14952TIP3    H166347   2.304   6.291   2.384  0.3830  0.2049  0.8081
14952TIP3    H266348   2.171   6.312   2.453 -0.0805  1.0070 -0.3078
14953TIP3   OH266349   6.234   4.378  16.236  0.2228 -0.2224 -0.2926
14953TIP3    H166350   6.269   4.321  16.168  1.0474  0.2703 -0.2806
14953TIP3    H266351   6.273   4.346  16.317  0.3333  0.0765 -0.2284
14954TIP3   OH266352   4.298   1.674   1.791  0.0061  0.1152 -0.2943
14954TIP3    H166353   4.268   1.729   1.863 -0.2617 -1.5381  0.8942
14954TIP3    H266354   4.360   1.613   1.831 -0.8772 -1.4579 -1.2556
14955TIP3   OH266355   6.384   2.673  17.259  0.3116 -0.3000 -0.7104
14955TIP3    H166356   6.394   2.593  17.311 -0.6354  0.8823  1.3270
14955TIP3    H266357   6.468   2.683  17.214  0.9309 -1.6761  0.1065
14956TIP3   OH266358   2.797   1.114   0.316 -0.0198 -0.7940  0.8122
14956TIP3    H166359   2.733   1.167   0.267 -3.1218 -3.7978  1.3590
14956TIP3    H266360   2.841   1.062   0.248 -0.6995 -1.2780  0.7357
14957TIP3   OH266361   3.942   5.977  16.406  0.0043 -0.2316 -0.3954
14957TIP3    H166362   3.889   6.054  16.383  0.0216  0.5810  2.2084
14957TIP3    H266363   4.031   6.012  16.418 -0.4189 -0.2031  3.0911
14958TIP3   OH266364   2.438   2.803  13.097  0.0320 -0.1403 -0.6379
14958TIP3    H166365   2.483   2.826  13.178 -0.5800  1.1544 -0.6495
14958TIP3    H266366   2.502   2.753  13.047  0.1021 -1.7706  1.0297
14959TIP3   OH266367   0.413   1.635   6.505  0.0937  0.0693  0.7687
14959TIP3    H166368   0.474   1.675   6.567 -0.3819 -0.5706  1.6671
14959TIP3    H266369   0.328   1.674   6.526  0.3861  1.9281 -1.3295
14960TIP3   OH266370   1.221   0.477  16.606  0.2496  0.2486  0.6995
14960TIP3    H166371   1.167   0.473  16.685  0.5822  1.0236  0.9770
14960TIP3    H266372   1.179   0.417  16.545  0.1355 -0.5663  1.5598
14961TIP3   OH266373   2.394   2.704   1.355 -0.0132 -0.3363 -0.6763
14961TIP3    H166374   2.479   2.676   1.321 -0.0427  0.7065 -1.6267
14961TIP3    H266375   2.374   2.784   1.307 -0.6709  0.4331  0.8583
14962TIP3   OH266376   4.599   5.128  15.563  0.9843  0.0736  0.4527
14962TIP3    H166377   4.664   5.070  15.523  2.9288  2.1661  0.5021
14962TIP3    H266378   4.532   5.069  15.598  1.4196 -1.9965 -2.0828
14963TIP3   OH266379   5.485   3.302   5.251 -0.0956 -0.5254  0.1094
14963TIP3    H166380   5.392   3.306   5.273 -0.3415  0.6922 -1.1114
14963TIP3    H266381   5.512   3.393   5.242  1.0867 -0.8873 -0.0865
14964TIP3   OH266382   1.056   4.201  17.277 -0.4408  0.6595 -0.1732
14964TIP3    H166383   1.013   4.116  17.269 -0.2793  0.6939 -1.5167
14964TIP3    H266384   0.983   4.263  17.286 -0.5375  0.3213  1.4959
14965TIP3   OH266385   3.973   5.099  16.984  0.4357  0.0310 -0.2425
14965TIP3    H166386   3.958   5.151  17.063 -0.5015  1.0207 -1.0526
14965TIP3    H266387   3.887   5.089  16.946  0.5939 -2.2410 -0.0510
14966TIP3   OH266388   2.144   3.391  13.840  0.5522  0.5599 -0.7803
14966TIP3    H166389   2.205   3.317  13.836  1.3652  1.3121 -2.7443
14966TIP3    H266390   2.082   3.375  13.769  0.0095  1.1451 -0.4477
14967TIP3   OH266391   3.392   0.137  16.981  0.2096 -0.0098 -0.2538
14967TIP3    H166392   3.320   0.170  16.927  1.5899  0.9967 -1.5468
14967TIP3    H266393   3.410   0.050  16.947 -1.0107 -0.6451  0.7098
14968TIP3   OH266394   2.472   5.975  12.029  0.2891 -0.1940 -0.5433
14968TIP3    H166395   2.496   5.911  12.097 -0.2915 -0.0553 -0.2008
14968TIP3    H266396   2.429   5.922  11.962  0.3222 -0.2511 -0.5203
14969TIP3   OH266397   2.053   1.343   6.515  0.0469 -0.5121 -0.3593
14969TIP3    H166398   2.039   1.403   6.588  1.9858  2.3105 -2.1933
14969TIP3    H266399   1.974   1.352   6.462  1.1938  2.1896 -1.7408
14970TIP3   OH266400   3.862   2.734   2.806  0.4132  0.1518  0.1808
14970TIP3    H166401   3.820   2.758   2.888  1.7119  1.1779  0.5667
14970TIP3    H266402   3.877   2.818   2.761  0.9595 -0.2878 -0.4788
14971TIP3   OH266403   6.673   0.871   2.694 -0.3572  0.4685  0.0489
14971TIP3    H166404   6.697   0.963   2.701 -0.4658  0.3948  1.4477
14971TIP3    H266405   6.755   0.823   2.703 -0.0660  0.4630 -2.2806
14972TIP3   OH266406   2.176   6.028  11.549 -0.3084  0.7336 -0.6616
14972TIP3    H166407   2.167   6.018  11.454 -0.7917 -0.6701 -0.4760
14972TIP3    H266408   2.100   6.080  11.575 -0.1193  1.2098 -1.0526
14973TIP3   OH266409   2.567   4.983  14.969  0.5626 -0.0498 -0.3354
14973TIP3    H166410   2.604   5.040  15.036 -0.2545 -0.3456  0.3862
14973TIP3    H266411   2.478   4.965  14.999  0.7337 -1.5311 -0.6535
14974TIP3   OH266412   2.507   6.644   5.293 -0.4600  0.0954  0.3806
14974TIP3    H166413   2.525   6.735   5.269 -0.0228  0.5413  2.3084
14974TIP3    H266414   2.452   6.611   5.222 -0.1767  1.6947 -0.6129
14975TIP3   OH266415   1.245   4.008   2.477 -0.5062  0.0305  0.1530
14975TIP3    H166416   1.247   3.980   2.386  0.8401 -1.2702  0.5569
14975TIP3    H266417   1.156   4.040   2.491 -0.3817  1.3418 -1.9251
14976TIP3   OH266418   3.235   2.978  13.763  0.2560  0.0213 -0.2155
14976TIP3    H166419   3.321   2.938  13.770 -0.2484 -0.8888  0.9877
14976TIP3    H266420   3.249   3.058  13.712  1.6945 -0.4314 -0.5360
14977TIP3   OH266421   5.508   0.670   1.995 -0.3415 -0.7856 -0.1717
14977TIP3    H166422   5.563   0.735   2.037  0.4468 -0.5198 -1.6127
14977TIP3    H266423   5.546   0.586   2.020  1.0495 -0.5885 -1.6203
14978TIP3   OH266424   3.142   4.687   3.003 -0.1228  0.2043 -0.1356
14978TIP3    H166425   3.115   4.743   3.076  0.1663  1.1133 -0.7170
14978TIP3    H266426   3.194   4.618   3.044 -0.7180  0.1991  0.6203
14979TIP3   OH266427   3.535   6.204  16.590  0.4611 -0.0720  0.3330
14979TIP3    H166428   3.552   6.164  16.505 -1.1944  0.3354 -0.2258
14979TIP3    H266429   3.568   6.293  16.581 -1.5640  0.6186 -0.6303
14980TIP3   OH266430   2.442   1.645   4.579  0.5154  0.2039  0.1440
14980TIP3    H166431   2.372   1.585   4.602  0.6860 -0.0895 -0.0981
14980TIP3    H266432   2.453   1.635   4.485 -0.7742  2.0408 -0.2459
14981TIP3   OH266433   3.194   4.769   1.967  0.9562  0.6407 -0.1654
14981TIP3    H166434   3.260   4.754   2.034  1.2379  0.4706 -0.4807
14981TIP3    H266435   3.164   4.681   1.942  1.4194  0.6668 -0.8250
14982TIP3   OH266436   0.039   0.198  16.275  1.2580  0.2778 -0.6506
14982TIP3    H166437   0.063   0.279  16.231 -1.4413  1.3101 -0.3511
14982TIP3    H266438  -0.056   0.204  16.286  1.2479 -2.1068  1.0313
14983TIP3   OH266439   1.506   1.796   0.429  0.2545  0.4148 -0.5865
14983TIP3    H166440   1.570   1.767   0.494 -1.3392  0.7683  1.1814
14983TIP3    H266441   1.536   1.883   0.402  1.9112 -0.4740 -1.6875
14984TIP3   OH266442   2.544   2.539  12.631  0.1662 -0.5606  0.1472
14984TIP3    H166443   2.614   2.483  12.665  0.5937 -1.0311 -1.4553
14984TIP3    H266444   2.510   2.585  12.708  0.9183 -1.7970  1.2321
14985TIP3   OH266445   0.496   5.283  15.074  0.2553  0.2715  0.4661
14985TIP3    H166446   0.459   5.316  15.156 -2.5418 -0.5984 -0.4147
14985TIP3    H266447   0.517   5.192  15.092  1.5232  0.6087  0.7850
14986TIP3   OH266448   3.705   0.255   0.232 -0.5045  0.0646  0.4189
14986TIP3    H166449   3.758   0.180   0.258 -0.7826  0.1852  1.3410
14986TIP3    H266450   3.721   0.264   0.138 -3.8388 -3.8852 -0.6902
14987TIP3   OH266451   4.789   6.788  12.530  0.3961  0.8139 -0.5017
14987TIP3    H166452   4.814   6.842  12.604  0.3256 -0.2944  0.3411
14987TIP3    H266453   4.762   6.851  12.462 -1.7755  1.7973  1.1957
14988TIP3   OH266454   0.388   2.632   0.032 -0.1653  0.2694  0.6332
14988TIP3    H166455   0.334   2.691   0.085 -0.6536 -1.0399  1.6167
14988TIP3    H266456   0.457   2.602   0.092  0.0344 -0.2116  0.1652
14989TIP3   OH266457   6.678   5.580  13.326  0.2711 -0.4510 -0.0118
14989TIP3    H166458   6.716   5.509  13.274 -0.9734 -1.6380  0.6606
14989TIP3    H266459   6.632   5.535  13.398 -0.3716  1.0403  0.5261
14990TIP3   OH266460   4.182   0.445  12.857  0.2441  0.4570  0.2861
14990TIP3    H166461   4.172   0.519  12.796 -0.8365 -0.1801 -0.3288
14990TIP3    H266462   4.252   0.473  12.917 -0.9413  2.4923  0.8029
14991TIP3   OH266463   3.980   6.512   1.345  0.3452 -0.2805 -0.2300
14991TIP3    H166464   4.019   6.492   1.260 -1.4372 -3.1951 -0.4383
14991TIP3    H266465   3.900   6.560   1.325  1.6369  2.0187 -0.0009
14992TIP3   OH266466   3.208   4.849  14.708  0.2469  0.5162  0.4622
14992TIP3    H166467   3.259   4.775  14.676 -0.0623  1.2227 -1.7622
14992TIP3    H266468   3.171   4.819  14.792 -0.3146 -2.0349 -0.6522
14993TIP3   OH266469   5.583   6.027   4.433  0.1902 -0.0027  0.5911
14993TIP3    H166470   5.576   6.050   4.526 -0.0728  0.9386  0.3423
14993TIP3    H266471   5.515   6.079   4.390 -0.4569 -1.3048  0.0246
14994TIP3   OH266472   3.498   0.425   4.887  0.3070 -0.1190  0.2549
14994TIP3    H166473   3.468   0.336   4.867  0.2714 -0.0949  0.1995
14994TIP3    H266474   3.418   0.473   4.907  0.3523 -0.1667  0.5537
14995TIP3   OH266475   0.283   0.399  13.588  0.3607  0.2096  0.1891
14995TIP3    H166476   0.361   0.352  13.561 -0.2619 -0.7686  0.0709
14995TIP3    H266477   0.306   0.438  13.672  1.7524  1.8877 -0.9426
14996TIP3   OH266478   4.874   4.459   4.857 -0.1974  0.5485 -0.0981
14996TIP3    H166479   4.910   4.397   4.793 -3.4398 -1.5805  0.0401
14996TIP3    H266480   4.826   4.523   4.804 -1.1951 -0.0613  0.0570
14997TIP3   OH266481   0.999   3.654  16.800 -0.5944 -0.3064  0.3308
14997TIP3    H166482   1.034   3.705  16.728 -2.8410  0.5346 -0.2275
14997TIP3    H266483   1.047   3.571  16.798  2.4873  1.4243  0.7280
14998TIP3   OH266484   1.051   1.720  15.681  0.1143 -0.1134  0.3045
14998TIP3    H166485   1.120   1.654  15.684  0.8756  0.7086  1.0900
14998TIP3    H266486   1.068   1.768  15.600 -1.0840 -1.5449 -0.8311
14999TIP3   OH266487   3.871   2.624   5.980 -0.0596 -0.3411 -0.0024
14999TIP3    H166488   3.833   2.617   6.068  1.8408 -1.9074  0.7299
14999TIP3    H266489   3.925   2.545   5.971 -1.0335 -0.7499 -2.9840
15000TIP3   OH266490   5.158   0.273   5.922 -0.1358  0.3045 -0.0439
15000TIP3    H166491   5.177   0.307   5.835  1.0549 -1.2473 -0.4224
15000TIP3    H266492   5.127   0.184   5.907 -1.8143  0.6894  1.0026
15001TIP3   OH266493   1.343   1.318  17.277 -0.3490 -0.0946  0.6850
15001TIP3    H166494   1.434   1.314  17.308  1.0971  1.9144 -3.0532
15001TIP3    H266495   1.340   1.257  17.203 -1.3212  1.7353 -0.8316
15002TIP3   OH266496   2.805   3.488   0.113 -0.2094 -0.0612 -0.4686
15002TIP3    H166497   2.887   3.534   0.094 -0.2951  0.1153 -0.4067
15002TIP3    H266498   2.833   3.407   0.156  0.0149 -0.6110 -1.6159
15003TIP3   OH266499   1.922   1.372   5.668  0.2868  0.3363  0.1548
15003TIP3    H166500   1.992   1.394   5.729  2.5058  0.0415 -2.2133
15003TIP3    H266501   1.891   1.457   5.636 -0.8188  0.4858  1.6155
15004TIP3   OH266502   0.789   4.021  16.166 -0.6909 -0.4909  0.6290
15004TIP3    H166503   0.858   3.960  16.191 -0.6793 -0.4294  0.7459
15004TIP3    H266504   0.784   4.083  16.238 -1.3266 -0.8923  0.9377
15005TIP3   OH266505   2.180   4.410   5.854 -0.2650  0.1396  0.2544
15005TIP3    H166506   2.133   4.389   5.774  0.1457  1.0742 -0.2400
15005TIP3    H266507   2.123   4.473   5.899  0.5723  1.4367 -0.4456
15006TIP3   OH266508   3.443   2.291  16.270 -0.0088 -0.1564  0.1250
15006TIP3    H166509   3.425   2.382  16.248  1.6980  0.0328 -0.6154
15006TIP3    H266510   3.365   2.260  16.316 -0.6434  1.6396  0.2604
15007TIP3   OH266511   2.259   5.376   0.894 -0.0405  0.2386 -0.1233
15007TIP3    H166512   2.169   5.353   0.873  0.6227 -0.9353 -1.7766
15007TIP3    H266513   2.308   5.357   0.814  1.4781  2.0122  0.3557
15008TIP3   OH266514   5.321   4.173  13.114  0.0307  0.4218 -0.2346
15008TIP3    H166515   5.302   4.211  13.028 -0.4170 -1.1857 -0.8758
15008TIP3    H266516   5.338   4.081  13.096 -0.9806 -0.1347  1.5152
15009TIP3   OH266517   0.174   2.284  11.339 -0.0660 -0.5254 -0.3907
15009TIP3    H166518   0.232   2.218  11.376  1.3795  0.5063 -0.7651
15009TIP3    H266519   0.091   2.238  11.323  1.0592 -2.3344 -1.0699
15010TIP3   OH266520   6.122   3.506   4.696 -0.0664 -0.0484 -0.2776
15010TIP3    H166521   6.139   3.579   4.755  0.3221  0.4843 -1.0454
15010TIP3    H266522   6.146   3.428   4.747  2.2416  0.5283 -0.4391
15011TIP3   OH266523   6.743   4.858   1.739 -0.1752  0.4353 -0.1194
15011TIP3    H166524   6.820   4.805   1.760  0.3202  1.5253  0.8704
15011TIP3    H266525   6.682   4.797   1.698  0.4627 -0.8617  0.8320
15012TIP3   OH266526   5.466   2.770   2.405 -0.3516 -0.0022  0.1387
15012TIP3    H166527   5.440   2.839   2.466  0.8801  1.3534 -0.8265
15012TIP3    H266528   5.421   2.792   2.323 -1.3174 -1.3274  0.3062
15013TIP3   OH266529   3.126   6.589  14.060  0.2233 -0.0327  0.1878
15013TIP3    H166530   3.098   6.674  14.027 -0.4624 -0.3949 -0.1551
15013TIP3    H266531   3.045   6.543  14.083  0.6249 -0.3094  1.0716
15014TIP3   OH266532   1.405   4.226  13.385 -0.4412 -0.1325 -0.0514
15014TIP3    H166533   1.475   4.290  13.368 -2.3935  1.6760 -1.5363
15014TIP3    H266534   1.351   4.268  13.452 -1.3258 -0.5166 -0.5164
15015TIP3   OH266535   5.509   0.565  13.515  0.2240  0.0083  0.2156
15015TIP3    H166536   5.567   0.494  13.487  0.4602  0.0637  0.5565
15015TIP3    H266537   5.529   0.637  13.456  0.7170  0.1242  0.5141
15016TIP3   OH266538   1.362   0.908  12.840 -0.1601  0.0474  0.1303
15016TIP3    H166539   1.306   0.983  12.862 -0.2762 -0.0130  0.0404
15016TIP3    H266540   1.307   0.831  12.856 -0.2339  0.0026 -0.3363
15017TIP3   OH266541   6.579   1.046   3.440 -0.6954 -0.3219  0.7398
15017TIP3    H166542   6.656   1.004   3.403 -0.4733  1.6323 -1.0830
15017TIP3    H266543   6.607   1.078   3.525  1.1442  2.1776 -0.7552
15018TIP3   OH266544   0.134   4.077  12.477 -0.0632  0.1960  0.0257
15018TIP3    H166545   0.044   4.111  12.479  0.0190  0.3889  0.4208
15018TIP3    H266546   0.124   3.983  12.459 -0.2864  0.4372 -1.1702
15019TIP3   OH266547   3.333   2.826  13.181  0.2782 -0.2542 -0.5631
15019TIP3    H166548   3.374   2.875  13.253 -1.5073 -0.7488  0.8214
15019TIP3    H266549   3.323   2.890  13.111 -0.1385  0.8568  0.4864
15020TIP3   OH266550   6.255   0.999  13.065 -0.4972  0.5093  0.2651
15020TIP3    H166551   6.185   0.963  13.011 -1.6214  1.1277  1.2895
15020TIP3    H266552   6.243   1.094  13.061  0.5503  0.6524  0.1107
15021TIP3   OH266553   0.163   2.330   1.212 -0.2080  0.4362 -0.2058
15021TIP3    H166554   0.128   2.302   1.297  0.2385 -1.6766 -0.7084
15021TIP3    H266555   0.118   2.276   1.148 -1.2069  2.6498 -1.4317
15022TIP3   OH266556   5.992   0.266   2.993 -0.0631 -0.6747 -0.2104
15022TIP3    H166557   6.046   0.311   3.058 -0.4318  1.4197 -1.3352
15022TIP3    H266558   6.048   0.195   2.961  1.2282  0.1507  0.2009
15023TIP3   OH266559   6.174   5.308  11.720 -0.1371 -0.3495  0.8173
15023TIP3    H166560   6.239   5.280  11.783 -1.4541  1.5381  3.0970
15023TIP3    H266561   6.220   5.308  11.636  2.0185 -1.6181  1.9616
15024TIP3   OH266562   4.423   0.394   4.456 -0.0432  0.3237 -0.4733
15024TIP3    H166563   4.415   0.410   4.362 -3.1337  0.4074 -0.2580
15024TIP3    H266564   4.333   0.402   4.489  0.9440 -0.0296  2.4347
15025TIP3   OH266565   1.169   4.382   5.813  0.5060 -0.1000 -0.4707
15025TIP3    H166566   1.247   4.369   5.759  0.8219  0.9900 -0.2948
15025TIP3    H266567   1.184   4.466   5.857  0.3589 -1.0789  1.4848
15026TIP3   OH266568   6.278   6.606  15.850  0.1917 -0.1550 -0.1251
15026TIP3    H166569   6.343   6.599  15.779 -0.2231  0.8879 -0.6274
15026TIP3    H266570   6.199   6.568  15.813 -0.2073  0.9813 -0.4732
15027TIP3   OH266571   3.549   0.251  15.000  0.4204 -0.0922 -0.3137
15027TIP3    H166572   3.486   0.183  15.021  1.6108 -1.0465  0.2669
15027TIP3    H266573   3.502   0.312  14.944 -0.7981 -1.1461 -0.4464
15028TIP3   OH266574   4.233   0.419  14.559  0.2298  0.1352  0.1353
15028TIP3    H166575   4.242   0.338  14.510  1.7904 -0.3913  1.2749
15028TIP3    H266576   4.241   0.488  14.493  2.3734 -0.5644 -0.3499
15029TIP3   OH266577   4.844   2.596  15.949 -0.2744 -0.3146 -0.0932
15029TIP3    H166578   4.843   2.577  16.042 -1.4157 -0.0585 -0.0466
15029TIP3    H266579   4.899   2.674  15.940  0.0526 -0.4996  0.3364
15030TIP3   OH266580   4.944   4.289   2.620 -0.0468  0.0457  0.3750
15030TIP3    H166581   5.023   4.338   2.642  1.2316 -1.9139  0.2325
15030TIP3    H266582   4.911   4.258   2.705  0.0166 -0.1321  0.3362
15031TIP3   OH266583   4.237   5.985  11.173  0.0943 -0.7045  0.3538
15031TIP3    H166584   4.147   5.955  11.187 -0.2249  0.0862  0.0177
15031TIP3    H266585   4.236   6.077  11.199  1.3262 -1.2503  2.4613
15032TIP3   OH266586   5.576   3.804  11.519 -0.1490 -0.2681  0.4074
15032TIP3    H166587   5.589   3.887  11.565  2.0004 -0.5296  0.2903
15032TIP3    H266588   5.540   3.745  11.586  0.2139  0.1738  0.9947
15033TIP3   OH266589   5.034   0.764  12.103 -0.4539 -0.3658 -0.2099
15033TIP3    H166590   5.127   0.759  12.082 -0.0931  1.4172  0.8574
15033TIP3    H266591   5.012   0.676  12.135  0.9299 -0.7182 -0.2008
15034TIP3   OH266592   5.249   3.000  15.516  0.2517  0.5046 -0.1251
15034TIP3    H166593   5.216   3.088  15.532  0.3539  0.3450  0.9559
15034TIP3    H266594   5.184   2.961  15.458 -1.3861  0.2510  1.8359
15035TIP3   OH266595   1.117   6.422  11.018  0.0122  0.3802  0.2836
15035TIP3    H166596   1.038   6.470  10.994 -0.1120  0.9901  1.8516
15035TIP3    H266597   1.153   6.392  10.935 -1.2899  1.0054 -0.5222
15036TIP3   OH266598   2.623   0.629   3.509 -0.0235  0.3919  0.1119
15036TIP3    H166599   2.544   0.593   3.468 -0.5998  1.3768  0.3596
15036TIP3    H266600   2.605   0.722   3.521  0.4532  0.2871  1.8387
15037TIP3   OH266601   0.456   4.082  14.876 -0.4148  0.5499 -0.0311
15037TIP3    H166602   0.386   4.139  14.845 -0.1442 -0.0526 -1.8235
15037TIP3    H266603   0.493   4.128  14.951 -2.2587  1.2023  0.5019
15038TIP3   OH266604   3.877   2.692  16.671 -0.5344  0.0967 -0.1450
15038TIP3    H166605   3.834   2.625  16.724 -0.4352 -0.4014 -0.6885
15038TIP3    H266606   3.887   2.652  16.585 -0.0841  0.6575 -0.3554
15039TIP3   OH266607   5.940   5.498   1.849 -0.2497  1.0072  0.2543
15039TIP3    H166608   6.021   5.548   1.858  0.3026  0.1469  0.0083
15039TIP3    H266609   5.962   5.425   1.793 -0.8188 -0.0970  1.4477
15040TIP3   OH266610   1.687   2.155  12.530  0.0634 -0.0114  0.1028
15040TIP3    H166611   1.616   2.151  12.594  0.3255  0.8970  0.4526
15040TIP3    H266612   1.719   2.065  12.525 -1.1586 -0.4396 -0.1138
15041TIP3   OH266613   1.212   2.744  13.405 -0.3608 -0.2359  0.0420
15041TIP3    H166614   1.140   2.732  13.466 -0.3445  0.3797  0.1799
15041TIP3    H266615   1.219   2.839  13.394 -0.3700 -0.3416 -0.9174
15042TIP3   OH266616   4.654   2.518   5.380 -0.7562 -0.1596  0.0548
15042TIP3    H166617   4.580   2.551   5.329 -0.4145 -0.2976 -0.5421
15042TIP3    H266618   4.681   2.439   5.333  1.6216  1.4568 -1.4276
15043TIP3   OH266619   2.754   4.235   4.216 -0.4954  0.4239 -0.2872
15043TIP3    H166620   2.840   4.278   4.216 -0.0633 -0.4197 -1.3758
15043TIP3    H266621   2.746   4.197   4.304  0.0187  0.9271 -0.0181
15044TIP3   OH266622   0.080   5.590   0.044  0.5184  0.0339 -0.0919
15044TIP3    H166623   0.073   5.586  -0.052 -1.8365 -0.5846  0.0802
15044TIP3    H266624   0.107   5.502   0.069 -4.5184 -1.5760  0.1766
15045TIP3   OH266625   4.859   3.959  16.801 -0.4823 -0.0684 -0.3424
15045TIP3    H166626   4.785   3.916  16.844  1.0229 -1.0170  1.3423
15045TIP3    H266627   4.932   3.949  16.862  1.5922 -0.9890 -2.8772
15046TIP3   OH266628   6.152   4.842   2.383 -0.0384 -0.0568  0.2078
15046TIP3    H166629   6.139   4.925   2.430 -1.9202 -0.5340  0.6059
15046TIP3    H266630   6.109   4.856   2.299  0.9787 -0.1151 -0.3179
15047TIP3   OH266631   4.532   4.127  16.869 -0.1792  0.1948  0.1361
15047TIP3    H166632   4.487   4.191  16.813 -1.3788 -1.2534 -0.5941
15047TIP3    H266633   4.552   4.054  16.810 -1.1786 -1.2189  1.5176
15048TIP3   OH266634   1.540   0.639   1.933  0.5562  0.2349  0.0134
15048TIP3    H166635   1.492   0.658   1.853  2.0273 -0.5771 -1.0696
15048TIP3    H266636   1.505   0.555   1.963  0.8236 -0.0203 -0.3948
15049TIP3   OH266637   6.267   1.623  15.238  0.0407  0.3216  0.0863
15049TIP3    H166638   6.359   1.611  15.214  0.4366 -0.2591  1.8399
15049TIP3    H266639   6.263   1.710  15.278 -0.3952  0.8120 -1.0093
15050TIP3   OH266640   5.736   1.449  11.268 -0.0836  0.0767 -0.1438
15050TIP3    H166641   5.687   1.513  11.216 -1.1617 -0.2804  0.4286
15050TIP3    H266642   5.699   1.456  11.356  2.0398  1.0067  0.7030
15051TIP3   OH266643   1.645   4.640   1.600 -0.0047 -0.1074 -0.4265
15051TIP3    H166644   1.595   4.644   1.518  0.2766 -1.6828 -0.6897
15051TIP3    H266645   1.588   4.591   1.660  0.1126  0.3826  0.0848
15052TIP3   OH266646   2.171   4.070  15.238  0.2946 -0.3105  0.0853
15052TIP3    H166647   2.210   4.081  15.324  1.1033 -1.1417 -0.1632
15052TIP3    H266648   2.204   4.143  15.187  0.6932 -0.4254  0.1772
15053TIP3   OH266649   2.883   0.597  16.916  0.3874 -0.3634 -0.0035
15053TIP3    H166650   2.904   0.521  16.863 -0.5829 -0.8427  0.3009
15053TIP3    H266651   2.943   0.591  16.991  1.1065 -0.1902 -0.5553
15054TIP3   OH266652   0.441   6.475  14.607  0.7642 -0.5266 -0.3470
15054TIP3    H166653   0.383   6.434  14.543  2.2278  0.1324 -2.1152
15054TIP3    H266654   0.520   6.421  14.606  1.6648  0.7770 -0.7405
15055TIP3   OH266655   4.244   5.737   0.092 -0.8198 -0.4074 -0.2187
15055TIP3    H166656   4.249   5.830   0.067 -1.9592 -0.4107 -0.4650
15055TIP3    H266657   4.221   5.692   0.012 -1.1150 -0.8126  0.0933
15056TIP3   OH266658   2.772   3.488  16.079 -0.1379 -0.6830 -0.1564
15056TIP3    H166659   2.684   3.517  16.056 -0.0300 -0.6716 -0.5654
15056TIP3    H266660   2.808   3.558  16.133 -0.3754 -0.6825 -0.0026
15057TIP3   OH266661   0.178   4.947  16.958 -0.1273 -0.5470 -0.9981
15057TIP3    H166662   0.150   4.972  17.046 -0.1951 -2.0493 -0.5797
15057TIP3    H266663   0.136   5.011  16.901 -1.1719 -0.3584 -0.0411
15058TIP3   OH266664   6.664   3.264   5.342  0.0029 -0.0224  0.2897
15058TIP3    H166665   6.736   3.208   5.311 -1.4817 -0.3655 -2.7763
15058TIP3    H266666   6.596   3.202   5.370 -0.3784  0.2632  0.0031
15059TIP3   OH266667   6.447   2.895  10.973  0.7541 -0.1570  0.7197
15059TIP3    H166668   6.513   2.825  10.974  0.5566 -0.3418  1.0575
15059TIP3    H266669   6.364   2.849  10.986  0.6021  0.1201  0.7261
15060TIP3   OH266670   4.556   4.624  12.177  0.0462 -0.0825  0.0696
15060TIP3    H166671   4.620   4.683  12.217 -0.4023  1.1903 -1.0580
15060TIP3    H266672   4.605   4.580  12.106 -0.4449  1.2837 -1.1387
15061TIP3   OH266673   4.831   6.014  13.053 -0.3081 -0.0534  0.2486
15061TIP3    H166674   4.846   5.967  13.135 -1.5338  1.0061  1.1035
15061TIP3    H266675   4.856   6.105  13.073 -1.6107  0.4224 -0.2367
15062TIP3   OH266676   4.805   5.724  17.050  0.2926 -0.1857  0.8252
15062TIP3    H166677   4.711   5.731  17.034  0.3870  0.7017  0.6498
15062TIP3    H266678   4.829   5.639  17.013 -0.3376 -0.1786  0.3913
15063TIP3   OH266679   5.270   2.138   4.949 -0.0764 -0.4106  0.3077
15063TIP3    H166680   5.208   2.094   4.891 -0.8813  1.3562 -0.2309
15063TIP3    H266681   5.254   2.232   4.933  2.3175  0.0680  0.6030
15064TIP3   OH266682   1.805   2.691   5.286  0.2293 -0.1656 -0.0314
15064TIP3    H166683   1.801   2.619   5.223  1.9260 -1.1379  0.9549
15064TIP3    H266684   1.718   2.732   5.280  0.7649  0.5761 -3.8943
15065TIP3   OH266685   2.700   0.263   5.586 -0.4074  0.2120 -0.1316
15065TIP3    H166686   2.620   0.307   5.555  1.5885  4.3090  0.2092
15065TIP3    H266687   2.697   0.273   5.681  2.3183  3.9017 -0.3404
15066TIP3   OH266688   4.805   1.437  14.728 -0.3165  0.2140 -0.3914
15066TIP3    H166689   4.760   1.459  14.809  1.5281  0.2030  0.6588
15066TIP3    H266690   4.862   1.513  14.711  0.5385 -0.4917 -0.7592
15067TIP3   OH266691   6.108   2.675  15.669  0.0782  0.5389  0.4325
15067TIP3    H166692   6.163   2.672  15.591 -1.0668  2.0577 -0.4590
15067TIP3    H266693   6.022   2.703  15.637 -0.4077  1.2008  2.2405
15068TIP3   OH266694   3.850   4.365  16.131 -0.5919  0.3150  0.1653
15068TIP3    H166695   3.855   4.441  16.073  0.9193  1.0814  1.2711
15068TIP3    H266696   3.914   4.304  16.095  0.4564  0.8526  1.0851
15069TIP3   OH266697   3.406   3.021  13.380  0.1112 -0.0865  0.0843
15069TIP3    H166698   3.491   3.064  13.393  0.1663 -0.4675  1.0686
15069TIP3    H266699   3.345   3.093  13.362  1.0721 -0.0242 -3.0271
15070TIP3   OH266700   2.365   4.072   6.638  0.2554 -0.5060 -0.5484
15070TIP3    H166701   2.434   4.137   6.643  0.6613 -0.9572 -0.2203
15070TIP3    H266702   2.403   3.993   6.677 -0.9065 -0.3745  0.8854
15071TIP3   OH266703   1.258   5.057  16.478  0.6837  0.6334  0.5927
15071TIP3    H166704   1.308   4.978  16.458  0.1666  0.0265  1.7210
15071TIP3    H266705   1.178   5.048  16.426  0.9407  0.7610  0.1677
15072TIP3   OH266706   1.063   3.348   3.490  0.9320 -0.0114 -0.7027
15072TIP3    H166707   1.056   3.424   3.548 -3.0137  0.1714 -1.2316
15072TIP3    H266708   1.108   3.381   3.412 -0.5910  1.7848 -0.8610
15073TIP3   OH266709   0.993   2.246   1.982 -0.2798  0.1090  0.3987
15073TIP3    H166710   1.078   2.284   2.002  0.1322 -0.2949 -0.5304
15073TIP3    H266711   0.965   2.203   2.063 -0.0868  1.1383  1.0183
15074TIP3   OH266712   0.555   4.243  12.347 -0.3980 -0.2294 -0.5899
15074TIP3    H166713   0.573   4.235  12.253 -0.5798 -1.0799 -0.5517
15074TIP3    H266714   0.462   4.221  12.355 -0.4992  0.3066 -0.2695
15075TIP3   OH266715   3.335   5.247  11.828  0.7230  0.5696 -0.0541
15075TIP3    H166716   3.347   5.176  11.765 -0.4440 -1.2441  1.7160
15075TIP3    H266717   3.307   5.322  11.775  1.5084 -0.4165 -1.8897
15076TIP3   OH266718   6.279   3.221   3.535  0.2041  0.0391  0.0377
15076TIP3    H166719   6.368   3.203   3.567  0.7492 -1.2976 -2.1360
15076TIP3    H266720   6.291   3.272   3.455 -0.9054 -1.3413 -1.0469
15077TIP3   OH266721   1.675   4.813   0.517  0.4906  0.4736 -0.4556
15077TIP3    H166722   1.607   4.749   0.537 -0.9020  2.2043  0.4673
15077TIP3    H266723   1.641   4.895   0.551  3.7281  1.1040  1.4293
15078TIP3   OH266724   5.066   0.536  14.049 -0.2996 -0.1359 -0.0073
15078TIP3    H166725   4.979   0.522  14.013 -0.8144  1.2779  0.6555
15078TIP3    H266726   5.054   0.532  14.144  0.4726 -0.6234  0.0712
15079TIP3   OH266727   2.403   1.845   2.064  0.2331 -0.3458 -0.3196
15079TIP3    H166728   2.399   1.754   2.092  2.9045 -0.6984 -0.9377
15079TIP3    H266729   2.484   1.879   2.102 -0.7971  1.8594  0.0492
15080TIP3   OH266730   6.517   0.478   3.662 -0.1882  1.2668  0.1638
15080TIP3    H166731   6.421   0.473   3.668 -0.3778  3.3789 -0.6074
15080TIP3    H266732   6.533   0.525   3.580  1.5734 -0.6511 -0.6136
15081TIP3   OH266733   4.099   6.149   5.312  0.2858 -0.2056  0.3038
15081TIP3    H166734   4.100   6.186   5.400  2.6899 -0.2782  0.3144
15081TIP3    H266735   4.097   6.225   5.254 -0.0460 -0.1456  0.3910
15082TIP3   OH266736   1.661   2.214   2.900 -0.2465 -0.1057  0.5690
15082TIP3    H166737   1.628   2.238   2.813 -0.7609  1.3398  1.1439
15082TIP3    H266738   1.649   2.120   2.905  0.2778 -0.2754 -1.1373
15083TIP3   OH266739   4.147   2.604  13.168  0.3603 -0.3554 -0.0455
15083TIP3    H166740   4.183   2.570  13.086 -2.0053 -1.6161 -0.6094
15083TIP3    H266741   4.072   2.656  13.140 -0.8832 -1.3794  1.3519
15084TIP3   OH266742   3.133   1.443  13.665 -0.1038 -0.0076  0.1253
15084TIP3    H166743   3.184   1.433  13.745 -0.6387 -0.6486  0.3866
15084TIP3    H266744   3.194   1.484  13.603  0.5894 -0.3409  0.5801
15085TIP3   OH266745   4.094   3.449   0.927 -0.1634 -0.5836 -0.0270
15085TIP3    H166746   4.123   3.475   0.839  0.4382  0.3843  0.4560
15085TIP3    H266747   4.050   3.365   0.913 -0.2596 -0.3380 -1.2896
15086TIP3   OH266748   2.610   3.590   2.790  0.4806  0.0990  0.4172
15086TIP3    H166749   2.611   3.551   2.877  1.0913 -0.0059  0.3667
15086TIP3    H266750   2.651   3.675   2.801 -1.1331  0.8585  0.5843
15087TIP3   OH266751   1.527   3.014  13.879 -0.3513  0.2286  0.2227
15087TIP3    H166752   1.604   3.013  13.823 -1.3695  0.4974 -1.2030
15087TIP3    H266753   1.487   2.928  13.867 -0.4310  0.1890  0.7414
15088TIP3   OH266754   5.388   5.159  13.006 -0.4745  0.2443 -0.2981
15088TIP3    H166755   5.465   5.204  12.972 -0.4597  1.3442  1.1486
15088TIP3    H266756   5.424   5.084  13.054 -0.3581  0.1519 -0.5310
15089TIP3   OH266757   0.236   4.335   2.405 -0.1839 -0.0450 -0.0148
15089TIP3    H166758   0.182   4.267   2.445  0.7455 -1.5778 -1.3042
15089TIP3    H266759   0.254   4.302   2.317  0.7785  1.6085 -0.4503
15090TIP3   OH266760   3.791   2.830  15.272  0.0017  0.4980 -0.2163
15090TIP3    H166761   3.876   2.813  15.233  0.3272 -0.6306  0.9177
15090TIP3    H266762   3.781   2.925  15.271  0.2921  0.5183 -2.3677
15091TIP3   OH266763   2.000   0.823   0.405  0.0989 -0.1577  0.2044
15091TIP3    H166764   1.962   0.745   0.445  1.1870 -1.9376 -2.0946
15091TIP3    H266765   2.090   0.826   0.439  1.0742 -1.7603 -2.1134
15092TIP3   OH266766   6.123   1.826  16.772 -0.3311  0.1884 -0.3032
15092TIP3    H166767   6.148   1.918  16.763  0.7562  0.1059  1.6057
15092TIP3    H266768   6.096   1.800  16.684  0.3942  2.0215 -1.0990
15093TIP3   OH266769   5.814   6.693   4.748  0.2585 -0.0920 -0.2184
15093TIP3    H166770   5.840   6.770   4.698 -0.4519 -0.3764 -1.0300
15093TIP3    H266771   5.798   6.625   4.683  0.9722 -0.9627  0.4997
15094TIP3   OH266772   3.747   5.203   0.987  0.1205  0.2532  0.3408
15094TIP3    H166773   3.787   5.138   0.929 -0.7892  0.4524 -0.5409
15094TIP3    H266774   3.732   5.156   1.069 -2.0482 -1.1896 -0.8178
15095TIP3   OH266775   0.876   6.777  16.993 -0.4986 -0.2375  0.4470
15095TIP3    H166776   0.880   6.805  16.902 -0.8976 -2.6778 -0.3693
15095TIP3    H266777   0.853   6.856  17.042 -0.8097  0.9843 -1.6192
15096TIP3   OH266778   1.810   3.811   0.073 -0.4614  0.0474  0.0611
15096TIP3    H166779   1.887   3.861   0.048  1.0099 -1.8046  0.7547
15096TIP3    H266780   1.753   3.815  -0.004 -0.0257  2.0510 -0.1842
15097TIP3   OH266781   5.364   0.589   0.750 -0.8107 -0.4223 -0.0642
15097TIP3    H166782   5.347   0.622   0.838  2.3658  0.5394  0.2730
15097TIP3    H266783   5.386   0.667   0.699 -1.2388 -1.1283 -1.3450
15098TIP3   OH266784   2.303   4.528  15.986 -0.2250  0.1086  0.4861
15098TIP3    H166785   2.275   4.462  15.922 -0.4933 -0.2556  0.9757
15098TIP3    H266786   2.305   4.481  16.069  2.7441 -0.1414  0.3339
15099TIP3   OH266787   3.520   1.960  11.119  0.6732  0.1254  0.3064
15099TIP3    H166788   3.493   1.946  11.028  0.2940 -3.1146  0.8383
15099TIP3    H266789   3.558   1.876  11.146 -1.1083  0.2995  3.7364
15100TIP3   OH266790   1.691   3.721   4.289  0.3439 -0.2121 -0.4121
15100TIP3    H166791   1.598   3.711   4.266  0.3981 -1.1044 -0.2524
15100TIP3    H266792   1.703   3.815   4.298 -0.5795 -0.0989 -0.3213
15101TIP3   OH266793   3.235   0.044   4.058  0.2414 -0.2146  0.8407
15101TIP3    H166794   3.158   0.004   4.100  0.3617 -1.9469 -0.5265
15101TIP3    H266795   3.289  -0.031   4.033  2.1550  0.9818  1.3576
15102TIP3   OH266796   4.731   4.004  14.858 -1.0185 -0.0316 -0.1257
15102TIP3    H166797   4.762   4.084  14.901 -1.2313  0.1615 -0.3241
15102TIP3    H266798   4.645   4.028  14.823 -0.6225 -0.0160 -1.1084
15103TIP3   OH266799   5.764   4.460   3.439 -0.4338 -0.7319 -0.2090
15103TIP3    H166800   5.837   4.513   3.409 -1.8189  0.6566 -1.1883
15103TIP3    H266801   5.687   4.514   3.425 -1.6087 -1.9147  1.4239
15104TIP3   OH266802   3.499   4.839   5.527  0.4183  0.6197  0.0926
15104TIP3    H166803   3.583   4.860   5.569  1.6053  0.7680 -2.2930
15104TIP3    H266804   3.497   4.744   5.524  0.6771  0.6204 -0.1678
15105TIP3   OH266805   6.122   3.556  14.494  0.3410 -0.1996  0.5362
15105TIP3    H166806   6.200   3.613  14.497  0.2681  0.0494 -1.2980
15105TIP3    H266807   6.049   3.617  14.487  0.0853 -0.4660  0.9185
15106TIP3   OH266808   0.598   5.916   6.406 -0.4804  0.1505 -0.0393
15106TIP3    H166809   0.652   5.994   6.411  1.0722 -0.9607  1.4027
15106TIP3    H266810   0.660   5.843   6.416 -2.0449 -1.2067  0.0643
15107TIP3   OH266811   6.212   0.013   0.499  0.4048  0.2409 -0.0664
15107TIP3    H166812   6.252  -0.055   0.446 -0.6863  0.6760 -1.5026
15107TIP3    H266813   6.285   0.065   0.532  1.1040  0.2582 -1.5899
15108TIP3   OH266814   4.035   0.544   1.022 -0.6403 -0.1524 -0.1746
15108TIP3    H166815   4.071   0.505   0.942 -0.6752  1.2123 -0.8800
15108TIP3    H266816   4.112   0.562   1.076 -0.4707  0.3584 -0.5767
15109TIP3   OH266817   2.510   4.187  16.921  0.2075  0.0024 -0.1630
15109TIP3    H166818   2.443   4.165  16.986 -0.1305  1.1466 -0.1034
15109TIP3    H266819   2.494   4.128  16.848 -0.5589 -0.0615  0.0601
15110TIP3   OH266820   0.805   4.996  16.278  0.4865  0.5219  0.6588
15110TIP3    H166821   0.874   5.054  16.311  1.2277 -1.6122  2.9875
15110TIP3    H266822   0.733   5.007  16.340 -0.0178  0.2164  0.1346
15111TIP3   OH266823   0.169   2.731   2.697  0.0460 -0.1746 -0.3806
15111TIP3    H166824   0.254   2.749   2.657  0.0636  0.5832 -0.0184
15111TIP3    H266825   0.190   2.700   2.785  0.0184 -2.1090 -1.0371
15112TIP3   OH266826   6.688   3.683   6.140  0.5093  0.0145  0.2625
15112TIP3    H166827   6.750   3.666   6.210  3.5486  2.0126 -1.8134
15112TIP3    H266828   6.648   3.767   6.162  2.3403  1.2259 -0.9510
15113TIP3   OH266829   1.991   3.324  13.008 -0.1052  0.5714 -0.1612
15113TIP3    H166830   1.932   3.252  13.029  0.4579  0.2292  0.2334
15113TIP3    H266831   2.011   3.364  13.092 -1.5982  2.1151 -0.5137
15114TIP3   OH266832   5.162   0.086  12.758 -0.3640 -0.6682  0.4226
15114TIP3    H166833   5.169   0.047  12.671  1.3537 -0.3865  0.4199
15114TIP3    H266834   5.144   0.013  12.816 -1.9531 -0.8007 -0.2263
15115TIP3   OH266835   4.205   5.620  13.383  1.0032 -0.6074  0.7090
15115TIP3    H166836   4.217   5.680  13.457  0.8851  3.1056 -2.1276
15115TIP3    H266837   4.112   5.596  13.387  1.3893 -1.8605  2.7466
15116TIP3   OH266838   3.917   4.760   5.526  0.5761 -0.6771 -0.0571
15116TIP3    H166839   3.917   4.841   5.475 -1.4120 -1.9593 -2.1647
15116TIP3    H266840   3.981   4.704   5.482  1.8644 -0.3140  1.3271
15117TIP3   OH266841   5.187   5.786   5.225 -0.1080 -0.0300  0.1647
15117TIP3    H166842   5.129   5.768   5.300 -0.5549  0.5040 -0.0490
15117TIP3    H266843   5.259   5.724   5.236 -0.4177 -0.2985  0.7663
15118TIP3   OH266844   4.030   0.883  13.931 -0.0063 -0.2449 -0.5277
15118TIP3    H166845   4.079   0.807  13.897  2.3536 -0.1785  2.5300
15118TIP3    H266846   4.081   0.959  13.902  0.4953 -0.0804  0.7459
15119TIP3   OH266847   3.962   1.507  13.344  0.0128  0.4224  0.3749
15119TIP3    H166848   4.056   1.519  13.330 -0.6275  3.3306 -1.7675
15119TIP3    H266849   3.949   1.526  13.437  1.2678  1.9891  0.2570
15120TIP3   OH266850   3.136   3.471  16.696 -0.0070  0.1091 -0.1147
15120TIP3    H166851   3.096   3.384  16.705 -0.6846  0.4333  0.0864
15120TIP3    H266852   3.154   3.499  16.785 -1.8414  1.0983 -0.0254
15121TIP3   OH266853   3.846   4.989   0.678 -0.3298  0.0305 -0.3293
15121TIP3    H166854   3.874   5.079   0.693 -2.5505  0.8126 -0.6331
15121TIP3    H266855   3.751   4.991   0.693 -0.3743 -2.3071 -0.1197
15122TIP3   OH266856   0.132   4.257   3.310  0.1284 -0.2483  0.0084
15122TIP3    H166857   0.092   4.330   3.357 -0.8225 -1.1261  0.5856
15122TIP3    H266858   0.226   4.271   3.320 -0.0433 -0.5643  2.4214
15123TIP3   OH266859   6.520   2.272  13.794 -0.5637  0.2039  0.0282
15123TIP3    H166860   6.570   2.352  13.811 -1.6785  1.0889 -0.7960
15123TIP3    H266861   6.428   2.300  13.798 -0.9469 -0.4883 -2.8145
15124TIP3   OH266862   0.781   1.096   4.409  0.6116 -0.0366 -0.4947
15124TIP3    H166863   0.691   1.127   4.407  1.1131  1.3789 -2.3900
15124TIP3    H266864   0.777   1.011   4.453 -1.4964  0.4611  0.2831
15125TIP3   OH266865   3.731   3.302   6.498  0.1552 -0.3064 -0.4805
15125TIP3    H166866   3.784   3.373   6.460 -1.1710 -0.1111 -1.9946
15125TIP3    H266867   3.648   3.344   6.522 -0.4863 -1.2643 -1.0136
15126TIP3   OH266868   1.571   1.298  15.709  0.1013 -0.4777 -0.2043
15126TIP3    H166869   1.580   1.307  15.804 -1.2302 -0.4681 -0.0808
15126TIP3    H266870   1.551   1.205  15.695 -1.5593 -0.1035 -0.3359
15127TIP3   OH266871   3.129   5.401  12.469 -0.0445 -0.3576  0.3869
15127TIP3    H166872   3.039   5.378  12.489  0.1132 -0.5341  0.8968
15127TIP3    H266873   3.130   5.497  12.468 -0.3243 -0.3533 -0.0426
15128TIP3   OH266874   3.136   0.123   2.139  0.8194  0.1203 -0.0780
15128TIP3    H166875   3.098   0.062   2.076 -1.4829  0.8912  0.5320
15128TIP3    H266876   3.228   0.132   2.111  0.8834 -2.6505 -0.8797
15129TIP3   OH266877   2.747   0.223   0.970 -0.3835 -0.2804 -0.1505
15129TIP3    H166878   2.678   0.244   1.032 -0.6399  0.1446 -0.5797
15129TIP3    H266879   2.722   0.268   0.889 -0.2790 -1.1692 -0.6919
15130TIP3   OH266880   1.799   3.178  17.045  0.5159  0.5627 -0.5801
15130TIP3    H166881   1.736   3.169  17.116  0.8737  2.0115 -0.0795
15130TIP3    H266882   1.793   3.269  17.018  2.3943  0.7221 -0.5259
15131TIP3   OH266883   5.511   2.222  14.091 -0.1050  0.0100  0.2009
15131TIP3    H166884   5.568   2.252  14.162 -1.5577 -1.3068  1.9725
15131TIP3    H266885   5.567   2.167  14.037  1.1208  1.3284  0.1164
15132TIP3   OH266886   6.511   0.207   5.433  0.5409  0.6443  0.2614
15132TIP3    H166887   6.580   0.168   5.485 -0.4418 -1.6975 -0.1479
15132TIP3    H266888   6.430   0.180   5.476 -0.2216  0.4590 -1.2570
15133TIP3   OH266889   1.389   2.115   4.634  0.3211  0.1780  0.1062
15133TIP3    H166890   1.329   2.097   4.561  1.6513  1.2334 -1.2795
15133TIP3    H266891   1.377   2.041   4.693 -1.3052 -0.3420 -0.8311
15134TIP3   OH266892   3.451   1.307  13.273 -0.1667  0.3319  0.1364
15134TIP3    H166893   3.543   1.335  13.280  0.3441 -1.0137 -0.9213
15134TIP3    H266894   3.427   1.282  13.362  0.5854  0.4538  0.3789
15135TIP3   OH266895   0.203   1.075   2.315 -0.3281  0.3671 -0.4203
15135TIP3    H166896   0.208   1.017   2.239 -1.8941  1.4934 -1.4163
15135TIP3    H266897   0.119   1.120   2.305 -0.2578  1.0146  1.6386
15136TIP3   OH266898   4.878   2.732  16.480  0.6747 -0.3821  0.0116
15136TIP3    H166899   4.824   2.709  16.555  1.4203 -1.3873  0.2601
15136TIP3    H266900   4.836   2.689  16.406  0.4922 -0.2139  0.0185
15137TIP3   OH266901   2.517   2.643  10.672 -0.1171 -0.3019  0.2740
15137TIP3    H166902   2.507   2.727  10.718  1.2942 -0.0157  0.0986
15137TIP3    H266903   2.461   2.582  10.720 -0.9014  0.6683  0.6097
15138TIP3   OH266904   5.992   0.027  14.738  0.4706 -0.4142  0.4500
15138TIP3    H166905   5.967  -0.037  14.804  2.3179 -1.4275  0.2008
15138TIP3    H266906   5.948  -0.002  14.658 -1.3534  0.5252  1.0848
15139TIP3   OH266907   3.507   3.273   3.116 -0.3835 -0.0067  0.0776
15139TIP3    H166908   3.594   3.243   3.089 -0.5170 -0.0130 -0.3462
15139TIP3    H266909   3.463   3.193   3.145 -0.4884 -0.1068 -0.3622
15140TIP3   OH266910   1.822   5.985   3.810  0.4852  0.2531 -0.4053
15140TIP3    H166911   1.833   5.928   3.885 -0.7388 -0.2200 -0.5792
15140TIP3    H266912   1.862   5.937   3.737  2.0669  0.9028  0.0059
15141TIP3   OH266913   3.304   0.337  16.731  0.2925  0.2460 -0.5482
15141TIP3    H166914   3.382   0.360  16.679  0.7030  1.5904  0.6235
15141TIP3    H266915   3.290   0.414  16.787  0.0448 -1.2870  1.5452
15142TIP3   OH266916   0.458   6.092   4.087  0.1048  0.2573 -0.2530
15142TIP3    H166917   0.467   6.002   4.056  0.9105  0.5466 -0.8646
15142TIP3    H266918   0.418   6.138   4.013 -0.1708  0.4380  0.0084
15143TIP3   OH266919   1.948   3.867  15.952  0.2047 -0.5634 -0.4599
15143TIP3    H166920   1.889   3.892  16.023  0.2283 -1.5422 -0.0853
15143TIP3    H266921   1.982   3.950  15.919 -1.5458  0.0318 -0.8266
15144TIP3   OH266922   6.218   0.822   2.612 -0.0333  0.0368 -0.1685
15144TIP3    H166923   6.182   0.884   2.549 -2.7480 -1.4629 -0.1936
15144TIP3    H266924   6.213   0.737   2.567  0.1862 -0.7185  1.2192
15145TIP3   OH266925   3.635   5.142   3.017 -0.1237  0.0947 -0.3239
15145TIP3    H166926   3.556   5.190   2.991 -0.3793  0.4490  1.0709
15145TIP3    H266927   3.605   5.052   3.026 -0.2736  0.1589 -0.1744
15146TIP3   OH266928   3.314   5.950  14.411  0.7095  0.2306 -0.5589
15146TIP3    H166929   3.229   5.957  14.367  0.1244  0.1237  0.5475
15146TIP3    H266930   3.316   5.860  14.445  0.8744  0.5295  0.2185
15147TIP3   OH266931   4.524   1.880  17.220 -0.2254  0.3653 -0.5967
15147TIP3    H166932   4.484   1.886  17.133  0.9275  1.3022 -1.0772
15147TIP3    H266933   4.470   1.935  17.276 -0.3120  0.6609 -0.9745
15148TIP3   OH266934   2.671   6.243   4.335 -0.1024 -0.1858 -0.5187
15148TIP3    H166935   2.698   6.297   4.410 -1.1735 -0.6627  0.2171
15148TIP3    H266936   2.743   6.180   4.324  0.3318  0.2649 -0.2716
15149TIP3   OH266937   6.007   5.753   1.610 -0.3198  0.0662  0.3373
15149TIP3    H166938   6.005   5.790   1.699  0.5545  0.7250  0.0864
15149TIP3    H266939   6.097   5.766   1.581 -0.7083  0.2345 -0.8126
15150TIP3   OH266940   5.202   2.947   0.990 -0.3141  0.5590  0.0216
15150TIP3    H166941   5.120   2.995   0.978 -0.1752  0.8565  0.2475
15150TIP3    H266942   5.270   3.015   0.982  0.0081  0.0357 -2.0059
15151TIP3   OH266943   6.748   2.102  13.695 -0.0559 -0.0522 -0.4908
15151TIP3    H166944   6.730   2.058  13.611  1.2953 -0.9697 -0.3236
15151TIP3    H266945   6.674   2.160  13.708 -0.8108 -0.6931 -1.8101
15152TIP3   OH266946   3.545   2.413  11.527  0.3844 -0.0102  0.2590
15152TIP3    H166947   3.538   2.356  11.604  0.4350  0.0548  0.3119
15152TIP3    H266948   3.456   2.419  11.494  0.2299  0.6035  0.7749
15153TIP3   OH266949   1.581   5.856   5.370  0.0172  0.1085 -0.3551
15153TIP3    H166950   1.572   5.923   5.437 -0.5116  0.8827 -1.1853
15153TIP3    H266951   1.656   5.885   5.317  0.1703 -0.2770 -0.3528
15154TIP3   OH266952   0.669   0.018   0.499 -0.3732 -0.2889 -0.1057
15154TIP3    H166953   0.584   0.042   0.463  0.2626  2.4626  0.0734
15154TIP3    H266954   0.656   0.014   0.594 -0.1824  0.7430 -0.0304
15155TIP3   OH266955   0.450   2.865   1.442  0.0164  0.0905  0.0322
15155TIP3    H166956   0.486   2.935   1.496  1.1142 -0.4136 -0.0313
15155TIP3    H266957   0.518   2.848   1.377 -0.7938 -0.1330 -0.7667
15156TIP3   OH266958   5.662   0.844   3.518  0.5043  0.5217 -0.1958
15156TIP3    H166959   5.570   0.819   3.510  0.5288  0.1432  0.7055
15156TIP3    H266960   5.703   0.811   3.438 -0.0338  0.2152 -0.3434
15157TIP3   OH266961   0.169   5.518   0.341 -0.1583 -0.0813 -0.3181
15157TIP3    H166962   0.099   5.469   0.384  2.0732 -1.1071  2.2978
15157TIP3    H266963   0.188   5.468   0.262  1.2581 -2.8398  1.6930
15158TIP3   OH266964   6.621   3.002   4.035  0.1002  0.2985  0.5295
15158TIP3    H166965   6.620   2.914   4.073 -0.1473 -0.5194 -1.3600
15158TIP3    H266966   6.571   3.055   4.098 -0.6948 -1.1245  1.1290
15159TIP3   OH266967   3.024   1.590   3.106  0.3087 -0.2773  0.2210
15159TIP3    H166968   2.982   1.542   3.035  0.7637  0.5839 -0.6427
15159TIP3    H266969   3.089   1.529   3.141  1.0412 -0.2313 -1.0230
15160TIP3   OH266970   2.640   5.358   5.048  0.3105 -0.1267  0.0001
15160TIP3    H166971   2.658   5.442   5.007 -0.0510  0.7277  1.5793
15160TIP3    H266972   2.709   5.300   5.016  0.6726  0.8037 -0.9337
15161TIP3   OH266973   3.399   6.051   2.796  0.1038 -0.5115  0.0822
15161TIP3    H166974   3.376   6.143   2.788  3.0858  0.0748 -3.0205
15161TIP3    H266975   3.437   6.043   2.884  0.1958  1.3129  0.2238
15162TIP3   OH266976   1.490   6.304  12.785  0.0534  0.1178  0.8364
15162TIP3    H166977   1.467   6.383  12.834 -0.3599 -0.3005  1.3363
15162TIP3    H266978   1.578   6.320  12.753  0.4164  0.3253  1.9069
15163TIP3   OH266979   3.418   1.131   0.038  0.3471  0.9056  0.1838
15163TIP3    H166980   3.330   1.123   0.075 -0.0032  1.1471 -0.5775
15163TIP3    H266981   3.469   1.175   0.106  0.4607 -1.2164  1.5155
15164TIP3   OH266982   2.603   1.245   0.171 -0.5378  0.1721 -0.3375
15164TIP3    H166983   2.546   1.314   0.206  0.0017  0.7691 -0.6174
15164TIP3    H266984   2.547   1.195   0.111 -0.9305  0.3700 -0.1372
15165TIP3   OH266985   4.929   3.488  14.568 -0.1337 -0.5799 -0.6693
15165TIP3    H166986   4.959   3.495  14.478  1.1101 -0.5208 -0.2537
15165TIP3    H266987   5.009   3.489  14.621 -0.9675  2.6307  0.6519
15166TIP3   OH266988   5.259   6.623   3.659  0.0904 -0.0496  0.8143
15166TIP3    H166989   5.243   6.530   3.650  1.2352 -0.0612 -1.4318
15166TIP3    H266990   5.173   6.661   3.676 -0.1568 -1.6585  3.3090
15167TIP3   OH266991   1.278   1.935  11.899 -0.6213  0.0936  0.2309
15167TIP3    H166992   1.250   2.001  11.836  0.4504  0.8094  0.4745
15167TIP3    H266993   1.257   1.974  11.984  0.7822  0.5125  0.4043
15168TIP3   OH266994   5.773   2.721   4.142  0.0149 -0.0902 -0.2662
15168TIP3    H166995   5.822   2.718   4.060 -1.1246  1.8818 -1.0673
15168TIP3    H266996   5.758   2.630   4.164  0.9447 -0.6650 -1.8888
15169TIP3   OH266997   4.901   4.712  13.175  0.4123 -0.1660  0.3435
15169TIP3    H166998   4.826   4.658  13.201 -2.0052  1.7574 -2.3456
15169TIP3    H266999   4.894   4.791  13.228 -2.3852  2.1336 -3.2156
15170TIP3   OH267000   5.693   3.819  13.982 -0.8045  0.8336  0.0434
15170TIP3    H167001   5.757   3.890  13.989 -0.2053  0.2128  1.0485
15170TIP3    H267002   5.608   3.863  13.977 -0.3678  1.6412 -0.3041
15171TIP3   OH267003   6.304   6.249  12.807 -0.1829 -0.2131 -0.4083
15171TIP3    H167004   6.249   6.199  12.866 -0.2579  0.4211  0.0594
15171TIP3    H267005   6.323   6.331  12.854  1.3376 -0.5128 -0.4553
15172TIP3   OH267006   2.682   3.629   0.662 -0.3890 -0.2761  0.2772
15172TIP3    H167007   2.762   3.674   0.634  0.1284 -0.3195  1.6219
15172TIP3    H267008   2.713   3.547   0.702 -1.2400 -1.2082 -0.9387
15173TIP3   OH267009   5.898   5.922  14.412  0.4684  0.4576  0.1968
15173TIP3    H167010   5.878   5.998  14.359 -0.0174  0.6280  0.6225
15173TIP3    H267011   5.926   5.958  14.496  1.9574  0.2170 -0.1680
15174TIP3   OH267012   3.094   5.634  11.383  0.2039  0.3808  0.2086
15174TIP3    H167013   3.168   5.573  11.389 -0.8726 -1.0513 -0.7062
15174TIP3    H267014   3.098   5.667  11.293  0.2659  1.0237  0.4397
15175TIP3   OH267015   3.284   6.373  11.204 -0.0878  0.4884 -0.5412
15175TIP3    H167016   3.292   6.298  11.262 -0.8812  0.5644 -0.3314
15175TIP3    H267017   3.363   6.371  11.151 -0.0078 -0.3666 -0.3883
15176TIP3   OH267018   3.098   0.488   3.448  0.2876  0.6557 -0.1858
15176TIP3    H167019   3.170   0.488   3.510  0.0289  0.5775  0.1152
15176TIP3    H267020   3.125   0.550   3.380 -0.0938  1.9287  0.7841
15177TIP3   OH267021   5.032   3.652  12.616  0.0236 -0.2961  0.7975
15177TIP3    H167022   4.938   3.652  12.634 -0.6376  1.6184 -2.3026
15177TIP3    H267023   5.064   3.572  12.657 -2.9334 -0.9609  1.9415
15178TIP3   OH267024   2.515   5.212   3.743 -0.5827  0.3672  0.2742
15178TIP3    H167025   2.442   5.159   3.775  0.2092 -1.2985 -0.6024
15178TIP3    H267026   2.476   5.268   3.675 -0.9352 -0.9595 -0.6358
15179TIP3   OH267027   6.814   6.812  15.918 -0.0619 -0.0271 -0.3855
15179TIP3    H167028   6.758   6.885  15.891  0.1294 -0.8642 -3.1202
15179TIP3    H267029   6.759   6.761  15.977 -0.3895  1.9844  1.1207
15180TIP3   OH267030   5.262   4.105  16.391 -0.3661 -0.5385 -0.0271
15180TIP3    H167031   5.193   4.045  16.363 -0.0417 -1.5237  1.2433
15180TIP3    H267032   5.225   4.151  16.466  0.7321 -1.8761  1.3714
15181TIP3   OH267033   3.424   6.277   4.367  0.4998  0.4103  0.4140
15181TIP3    H167034   3.377   6.230   4.298  0.6666 -1.1252  1.3338
15181TIP3    H267035   3.510   6.296   4.329  0.2914  0.3460 -0.1012
15182TIP3   OH267036   4.384   5.014  11.073  0.3552  0.1533  0.3894
15182TIP3    H167037   4.317   4.976  11.129 -1.2755  2.0358 -0.2170
15182TIP3    H267038   4.344   5.017  10.986  1.3065  1.1030 -0.0391
15183TIP3   OH267039   6.542   0.489  17.291 -0.3211  0.8483 -0.0985
15183TIP3    H167040   6.622   0.535  17.267  0.2101  1.1643  2.1507
15183TIP3    H267041   6.500   0.469  17.207  1.7225  1.3371 -1.2851
15184TIP3   OH267042   3.527   0.440  14.051  0.0180 -0.2042  0.0087
15184TIP3    H167043   3.474   0.472  13.978 -1.5922 -2.0579  0.3383
15184TIP3    H267044   3.539   0.347  14.034  0.7822 -0.3862  1.4193
15185TIP3   OH267045   6.715   0.749  14.770  0.2503  0.4241  0.4670
15185TIP3    H167046   6.696   0.842  14.763 -0.9717  0.1310 -0.1788
15185TIP3    H267047   6.710   0.730  14.863  0.7787  1.0635  0.6246
15186TIP3   OH267048   5.464   2.109   0.412  0.1331 -0.4604  0.5467
15186TIP3    H167049   5.521   2.039   0.381 -0.9228 -1.1588  0.1307
15186TIP3    H267050   5.482   2.183   0.354  0.9624 -0.5169  0.7302
15187TIP3   OH267051   6.790   1.588  16.128 -0.2607  0.5836  0.0686
15187TIP3    H167052   6.798   1.531  16.052  0.8261  1.4653 -0.4862
15187TIP3    H267053   6.870   1.573  16.178  0.0085  1.5659 -0.0496
15188TIP3   OH267054   6.457   5.181  10.928 -0.0273 -0.1421  0.4990
15188TIP3    H167055   6.393   5.142  10.987 -0.3551 -1.4018 -0.6710
15188TIP3    H267056   6.481   5.111  10.868  3.3579 -0.0313  1.6368
15189TIP3   OH267057   2.717   2.206   5.986 -0.5051 -0.5973  0.5298
15189TIP3    H167058   2.719   2.194   5.891  2.2160  0.7930  0.3532
15189TIP3    H267059   2.726   2.118   6.022  0.7815 -0.9273 -0.5514
15190TIP3   OH267060   3.572   0.412  12.033 -0.0855 -0.1143 -0.1015
15190TIP3    H167061   3.515   0.366  12.094  1.3835 -1.8282  0.0376
15190TIP3    H267062   3.593   0.494  12.077  0.0796 -0.8503  1.2250
15191TIP3   OH267063   1.178   2.335  12.172  0.6246  0.9157  0.0084
15191TIP3    H167064   1.166   2.359  12.264 -1.1861  1.1041 -0.2646
15191TIP3    H267065   1.222   2.250  12.175 -0.7923  0.2086  1.0784
15192TIP3   OH267066   2.299   2.219  11.442 -0.1246  0.5260  0.4361
15192TIP3    H167067   2.347   2.291  11.402 -0.0978  0.8999  1.1329
15192TIP3    H267068   2.266   2.255  11.524 -0.3637 -0.1675  0.6489
15193TIP3   OH267069   4.284   3.857  17.131  0.4352 -0.1086 -0.5902
15193TIP3    H167070   4.223   3.786  17.114  1.2513 -1.3272  1.4028
15193TIP3    H267071   4.230   3.931  17.156 -0.2728 -0.8322  0.0098
15194TIP3   OH267072   1.831   2.694  14.334 -0.0329  0.4198 -0.6721
15194TIP3    H167073   1.905   2.657  14.286  0.7453  1.4552 -0.2888
15194TIP3    H267074   1.854   2.786  14.347 -0.7912  0.4440  0.6005
15195TIP3   OH267075   5.929   5.596  16.424 -0.2276 -0.2582  0.2710
15195TIP3    H167076   5.869   5.658  16.467 -1.5149 -0.2785 -1.4563
15195TIP3    H267077   5.880   5.514  16.422  0.0444 -0.3929 -0.7474
15196TIP3   OH267078   4.318   2.055  12.324 -0.4341  0.4605 -0.2240
15196TIP3    H167079   4.348   2.087  12.239  1.1066  0.7295  0.4071
15196TIP3    H267080   4.357   1.968  12.332  1.8235  1.5619  1.4157
15197TIP3   OH267081   4.717   6.684  13.410 -0.7341 -0.4655 -0.1452
15197TIP3    H167082   4.679   6.766  13.377  2.4949  1.3789  0.4906
15197TIP3    H267083   4.761   6.645  13.335 -0.5230 -0.5643  0.0308
15198TIP3   OH267084   2.849   1.267  16.608 -0.1075 -0.1412 -0.2549
15198TIP3    H167085   2.908   1.314  16.549 -1.5581  1.4095 -0.4934
15198TIP3    H267086   2.846   1.178  16.574 -0.3046  0.5411 -2.0574
15199TIP3   OH267087   4.240   1.258   5.082 -0.0170 -0.5376  0.0692
15199TIP3    H167088   4.201   1.269   5.169  0.6470 -1.7263  0.5266
15199TIP3    H267089   4.325   1.301   5.088 -1.3791  2.4898 -1.0756
15200TIP3   OH267090   6.440   5.285   5.879 -0.0815 -0.1653  0.5938
15200TIP3    H167091   6.462   5.378   5.889  1.5828 -0.3869 -0.8988
15200TIP3    H267092   6.380   5.283   5.804 -0.5410 -0.2486  0.9584
15201TIP3   OH267093   0.916   5.980  13.874  0.2564  0.3436  0.7604
15201TIP3    H167094   0.917   6.076  13.880 -1.9161  0.4316 -0.1297
15201TIP3    H267095   0.968   5.961  13.796 -1.2065  0.9188 -0.3671
15202TIP3   OH267096   5.429   0.117   5.821  0.6777 -0.1071 -0.3494
15202TIP3    H167097   5.395   0.200   5.855  0.1125  0.0035 -1.1612
15202TIP3    H267098   5.379   0.102   5.741  1.8852 -0.4200 -1.0651
15203TIP3   OH267099   1.478   4.541  10.899  0.1659 -0.3017 -0.2594
15203TIP3    H167100   1.403   4.483  10.890  0.1609 -0.1472 -1.2555
15203TIP3    H267101   1.510   4.554  10.809  1.4460 -0.4466  0.1556
15204TIP3   OH267102   0.046   3.994   3.236  0.1077  0.2864 -0.0787
15204TIP3    H167103   0.081   4.081   3.252  0.9196 -0.0605  0.0575
15204TIP3    H267104   0.070   3.943   3.314  1.1019 -0.5001 -0.8894
15205TIP3   OH267105   3.511   3.868   1.104  0.5120 -0.3544 -0.1186
15205TIP3    H167106   3.423   3.830   1.102  2.3424 -4.8143 -2.4938
15205TIP3    H267107   3.522   3.896   1.195 -1.7479 -3.8111  1.3357
15206TIP3   OH267108   0.552   4.709  14.275  0.5941  0.5432 -0.0381
15206TIP3    H167109   0.565   4.716  14.180 -0.5829  0.9042 -0.1722
15206TIP3    H267110   0.634   4.744  14.312 -0.3849  3.9526 -0.8774
15207TIP3   OH267111   5.690   0.685  11.802  0.3412 -0.5104 -0.4978
15207TIP3    H167112   5.657   0.629  11.732 -1.9397  0.4327 -0.2131
15207TIP3    H267113   5.625   0.754  11.810  0.8866 -0.2579  2.1466
15208TIP3   OH267114   1.949   4.410  14.362  0.0041 -0.2634 -0.0791
15208TIP3    H167115   1.980   4.465  14.434  0.5089 -1.2865  0.4899
15208TIP3    H267116   1.990   4.447  14.284  2.4530 -1.4050  0.6155
15209TIP3   OH267117   2.560   3.061  11.869 -0.2480  0.3625 -0.1152
15209TIP3    H167118   2.506   3.053  11.948 -0.3250  0.5284 -0.1500
15209TIP3    H267119   2.630   2.997  11.882  0.4191  1.2405  0.6366
15210TIP3   OH267120   2.572   5.493   0.533 -0.3012 -0.0595  0.0261
15210TIP3    H167121   2.654   5.474   0.579  0.1550  0.1499 -0.6881
15210TIP3    H267122   2.512   5.424   0.561  0.7357 -1.3964 -0.9669
15211TIP3   OH267123   5.580   1.963  15.802  0.8568 -0.2474  0.0129
15211TIP3    H167124   5.497   2.005  15.783  0.9743 -0.0921 -0.1596
15211TIP3    H267125   5.626   1.960  15.717  1.0992 -0.1713  0.1398
15212TIP3   OH267126   4.209   1.579  14.857  0.0421  0.4196 -0.0727
15212TIP3    H167127   4.250   1.524  14.791  1.7540  1.7736 -0.2042
15212TIP3    H267128   4.120   1.594  14.825 -0.3339 -1.9019 -0.2123
15213TIP3   OH267129   2.667   3.480   3.051 -0.5098 -0.6489  0.0512
15213TIP3    H167130   2.635   3.426   3.123 -1.0748  0.7489  0.8591
15213TIP3    H267131   2.664   3.570   3.085  1.6992 -0.2274 -0.8008
15214TIP3   OH267132   4.020   6.045   3.195  0.1626  0.2601 -0.3425
15214TIP3    H167133   4.041   6.068   3.285  1.3763  1.1898 -0.8403
15214TIP3    H267134   3.936   6.088   3.178  0.5041  1.0719 -0.0211
15215TIP3   OH267135   0.264   0.417   2.477 -0.6109 -0.1519 -0.2112
15215TIP3    H167136   0.233   0.472   2.405 -0.9173 -0.1665 -0.0881
15215TIP3    H267137   0.287   0.479   2.546  3.0637  0.1681 -1.5547
15216TIP3   OH267138   5.612   3.670   5.506 -0.2714 -0.5406 -0.2344
15216TIP3    H167139   5.700   3.704   5.489 -1.3234  1.5785 -1.6274
15216TIP3    H267140   5.573   3.662   5.419 -1.8077 -0.4266  0.4421
15217TIP3   OH267141   5.311   0.045  13.084  0.5552 -0.0688  0.2958
15217TIP3    H167142   5.345   0.078  13.001  1.8488 -0.3297  0.7064
15217TIP3    H267143   5.378  -0.016  13.115  0.8845  1.2589  2.3454
15218TIP3   OH267144   0.349   4.764   5.014  0.1382  0.5528  0.1752
15218TIP3    H167145   0.277   4.758   5.077  0.6648 -2.7623  0.5665
15218TIP3    H267146   0.307   4.779   4.930 -0.8263  1.0476  0.7427
15219TIP3   OH267147   0.303   1.239  15.918  1.1305 -0.1234 -0.7744
15219TIP3    H167148   0.395   1.221  15.937  0.9472  0.1160  0.3916
15219TIP3    H267149   0.304   1.321  15.870  1.6259 -0.8458 -2.0143
15220TIP3   OH267150   5.264   6.711  14.025 -0.7705  0.0605 -0.3335
15220TIP3    H167151   5.216   6.755  14.095  0.8568 -0.1589  0.9423
15220TIP3    H267152   5.317   6.781  13.985  0.0683 -0.2586  0.1961
15221TIP3   OH267153   2.684   5.116   6.174 -0.0285  0.1941 -0.1030
15221TIP3    H167154   2.663   5.025   6.193  1.0460  0.1013  0.6740
15221TIP3    H267155   2.773   5.128   6.208 -0.1933  1.5518 -0.1204
15222TIP3   OH267156   4.918   0.329  12.204  0.0201  0.0535  0.1540
15222TIP3    H167157   4.837   0.337  12.154 -0.5273 -1.5111  0.7818
15222TIP3    H267158   4.922   0.237  12.230  0.8560  0.6016  2.0575
15223TIP3   OH267159   3.856   6.515  11.901 -0.7041  0.4913  0.0481
15223TIP3    H167160   3.877   6.440  11.958  0.7041  0.8868  0.0508
15223TIP3    H267161   3.865   6.591  11.957 -1.6828  0.7069 -0.0828
15224TIP3   OH267162   3.208   3.757  15.690 -0.0443 -0.7137 -0.5066
15224TIP3    H167163   3.136   3.790  15.744  1.1621  0.4948  0.4047
15224TIP3    H267164   3.254   3.836  15.661  1.1304 -1.4852 -0.7626
15225TIP3   OH267165   4.766   3.121   5.486 -0.2624  0.0359  0.4620
15225TIP3    H167166   4.741   3.214   5.483  0.5651  0.2158 -1.2055
15225TIP3    H267167   4.770   3.101   5.580 -0.7626  1.5998  0.8363
15226TIP3   OH267168   0.279   2.992   2.407  0.0090  0.3415  0.0548
15226TIP3    H167169   0.186   2.987   2.382 -0.9133 -0.9014  3.4088
15226TIP3    H267170   0.314   2.905   2.390  0.3848  0.6186 -0.5879
15227TIP3   OH267171   6.600   3.791   6.526 -0.3027  0.5641  0.3466
15227TIP3    H167172   6.532   3.821   6.467  0.9525  0.0763 -1.3847
15227TIP3    H267173   6.631   3.709   6.488  0.3712  0.1116  1.8100
15228TIP3   OH267174   1.874   5.247   5.147 -0.3536 -0.0965  0.4408
15228TIP3    H167175   1.942   5.280   5.088 -2.2291 -0.6286 -2.0882
15228TIP3    H267176   1.905   5.160   5.172 -0.0257 -0.2883 -0.5881
15229TIP3   OH267177   1.592   1.864  16.109  0.2329  0.4380  0.3645
15229TIP3    H167178   1.497   1.857  16.119  0.1836  1.6246  0.7932
15229TIP3    H267179   1.604   1.909  16.025  0.4213  0.3246  0.3305
15230TIP3   OH267180   2.301   0.415   1.674 -0.1812 -0.2829  0.7118
15230TIP3    H167181   2.384   0.384   1.639 -0.9680 -3.8441  1.7633
15230TIP3    H267182   2.316   0.423   1.768 -0.8874 -0.5755  0.8579
15231TIP3   OH267183   6.083   6.568   5.540  0.1803 -0.2900 -0.6407
15231TIP3    H167184   5.995   6.554   5.505  0.3228  0.6431 -1.4170
15231TIP3    H267185   6.137   6.580   5.462  0.7061  0.7110 -0.1337
15232TIP3   OH267186   2.425   6.030  11.676  0.3752  0.2351  0.0676
15232TIP3    H167187   2.444   6.123  11.669  1.6818 -0.0498 -0.5027
15232TIP3    H267188   2.359   6.013  11.609  1.5316  0.4041 -1.1284
15233TIP3   OH267189   0.513   3.026  13.926 -0.2609 -0.1763  0.5413
15233TIP3    H167190   0.466   2.992  13.850  0.8523 -0.1316 -0.1647
15233TIP3    H267191   0.479   3.115  13.938  0.1210  0.0946 -0.3693
15234TIP3   OH267192   0.049   4.508  14.998  0.0821 -0.2073 -0.4582
15234TIP3    H167193   0.105   4.508  15.075 -0.0707  1.1878 -0.3200
15234TIP3    H267194  -0.035   4.474  15.028  0.0236  0.3333 -0.0046
15235TIP3   OH267195   1.003   4.450   1.200  0.5356  0.5526  0.4306
15235TIP3    H167196   1.049   4.469   1.281  1.1239  0.8017  0.0445
15235TIP3    H267197   1.021   4.525   1.144 -0.3481  0.6472  0.2800
15236TIP3   OH267198   2.532   6.657   3.566  0.0376  0.3646  0.3189
15236TIP3    H167199   2.489   6.574   3.546 -4.2279  2.8890 -1.4963
15236TIP3    H267200   2.493   6.685   3.649  1.0435  0.8550  0.6379
15237TIP3   OH267201   5.551   4.568  11.605 -0.4518 -1.0971 -0.1984
15237TIP3    H167202   5.556   4.546  11.698  1.5993 -2.0991 -0.5205
15237TIP3    H267203   5.478   4.516  11.572 -1.8240  0.0089  1.0360
15238TIP3   OH267204   5.291   2.664   1.690 -0.3507 -0.2842  0.0917
15238TIP3    H167205   5.353   2.737   1.687 -0.2950 -0.3623 -1.2272
15238TIP3    H267206   5.339   2.594   1.735 -0.2331  0.3269  0.9331
15239TIP3   OH267207   2.771   6.680  12.141  0.0419  0.4507  0.6062
15239TIP3    H167208   2.851   6.682  12.089  0.2043  1.2149  0.8728
15239TIP3    H267209   2.728   6.598  12.117  0.8585  0.0845  0.3973
15240TIP3   OH267210   2.599   6.513  12.568  0.0570  0.4957  0.2248
15240TIP3    H167211   2.692   6.526  12.583 -0.2128  1.9510  0.6988
15240TIP3    H267212   2.595   6.443  12.503  1.4576  0.0355  0.6207
15241TIP3   OH267213   0.730   6.023  16.156  0.2206 -0.3745 -0.2716
15241TIP3    H167214   0.789   5.948  16.150  0.7644  0.2547 -4.0747
15241TIP3    H267215   0.788   6.100  16.152 -0.6847  0.2334 -2.4521
15242TIP3   OH267216   1.086   3.099   5.277  0.4169 -0.6693  0.0231
15242TIP3    H167217   1.093   3.053   5.193  1.5422 -1.5838  0.5969
15242TIP3    H267218   1.059   3.031   5.339  0.0374 -0.0968  0.4908
15243TIP3   OH267219   6.098   0.845  15.890  0.3120  0.1110  0.2137
15243TIP3    H167220   6.108   0.829  15.984  1.9287  0.7511  0.1532
15243TIP3    H267221   6.185   0.830  15.853  0.4787  3.0271 -0.7126
15244TIP3   OH267222   4.618   5.302  11.691  0.5542  0.1212 -0.4013
15244TIP3    H167223   4.675   5.232  11.660  0.9162  0.2991 -0.1455
15244TIP3    H267224   4.570   5.263  11.764  2.2979  0.7504  1.1325
15245TIP3   OH267225   3.478   2.237  11.061  0.4238 -0.1899 -0.1067
15245TIP3    H167226   3.484   2.169  11.128 -0.1843  0.8413  1.0021
15245TIP3    H267227   3.443   2.313  11.106  1.0311  0.8606 -1.3579
15246TIP3   OH267228   0.745   6.113   5.397  0.1173  0.4916 -0.2806
15246TIP3    H167229   0.791   6.170   5.334  1.2823 -0.2763 -0.1392
15246TIP3    H267230   0.672   6.076   5.347 -0.2019  1.5059 -0.5906
15247TIP3   OH267231   4.749   2.073  11.369 -0.2200 -0.9183  0.2021
15247TIP3    H167232   4.799   2.148  11.336  0.3396 -0.7584  1.3778
15247TIP3    H267233   4.722   2.026  11.290  0.7913 -0.3632 -0.4907
15248TIP3   OH267234   0.775   4.668   0.614 -0.2808  0.5694 -0.1969
15248TIP3    H167235   0.736   4.594   0.660 -1.0056  1.2216  0.2492
15248TIP3    H267236   0.789   4.734   0.682  0.8998  0.6281 -0.4861
15249TIP3   OH267237   4.209   4.391   5.581 -0.2008 -0.2346 -0.3805
15249TIP3    H167238   4.294   4.426   5.556 -1.7269  1.4204 -3.6190
15249TIP3    H267239   4.166   4.461   5.629 -1.4728  0.7410 -2.8376
15250TIP3   OH267240   3.433   5.662   2.064  0.0381  0.5904 -0.2004
15250TIP3    H167241   3.518   5.702   2.082 -1.2164  2.4196  1.8317
15250TIP3    H267242   3.428   5.589   2.126  0.5360 -0.1591 -1.0261
15251TIP3   OH267243   4.885   3.153  11.031  0.2230 -0.7234 -0.4843
15251TIP3    H167244   4.975   3.121  11.037  0.0632 -1.0663  0.1889
15251TIP3    H267245   4.892   3.240  10.992  0.9493 -0.2867  0.6076
15252TIP3   OH267246   1.726   0.514  10.747  0.1971 -0.5070 -0.4654
15252TIP3    H167247   1.700   0.598  10.786  0.3931 -1.2925  1.4055
15252TIP3    H267248   1.797   0.537  10.687  0.6497  0.5877  0.4756
15253TIP3   OH267249   1.352   4.759   1.303 -0.2111  0.3392  0.8395
15253TIP3    H167250   1.379   4.790   1.216  0.4214 -0.3996  0.7676
15253TIP3    H267251   1.404   4.680   1.317  0.6486  1.1600  2.4465
15254TIP3   OH267252   0.036   3.160  16.787  0.6705  0.3179 -0.1059
15254TIP3    H167253   0.094   3.111  16.845 -0.7127 -0.2872  0.7931
15254TIP3    H267254   0.077   3.154  16.701  1.7674 -0.3684  0.4529
15255TIP3   OH267255   3.641   0.024  15.880  0.2026  0.3099  0.0464
15255TIP3    H167256   3.555   0.016  15.838 -0.6648  1.6721  1.5477
15255TIP3    H267257   3.703   0.018  15.807 -1.1627 -0.2571 -1.0998
15256TIP3   OH267258   3.823   0.453  12.593 -0.1518  0.4080 -0.1764
15256TIP3    H167259   3.848   0.368  12.629  0.9426  0.4966 -0.7053
15256TIP3    H267260   3.830   0.513  12.666  1.1206  0.4154 -0.2976
15257TIP3   OH267261   3.598   0.409   2.966 -0.1265 -0.1769 -0.6855
15257TIP3    H167262   3.512   0.375   2.991  0.3017 -0.3236  0.6047
15257TIP3    H267263   3.649   0.331   2.943  0.9438 -0.4734  2.5449
15258TIP3   OH267264   4.096   0.627   4.104 -0.0989 -0.6308 -0.0989
15258TIP3    H167265   4.131   0.547   4.065  2.1751  0.2285  0.0709
15258TIP3    H267266   4.151   0.642   4.182 -0.2489  1.2473 -0.3113
15259TIP3   OH267267   4.441   1.703   4.085  0.2547  0.0747  0.2127
15259TIP3    H167268   4.528   1.682   4.120  1.1663  2.5540 -0.4725
15259TIP3    H267269   4.437   1.659   4.001  0.4056 -0.9736  0.7533
15260TIP3   OH267270   6.346   2.864  11.445 -0.2926 -0.4072  0.2161
15260TIP3    H167271   6.316   2.848  11.535  1.7803 -0.2085  0.9547
15260TIP3    H267272   6.366   2.957  11.442 -1.1154 -0.2487 -0.6951
15261TIP3   OH267273   4.348   2.837  14.951  0.2833 -0.8097 -0.1445
15261TIP3    H167274   4.326   2.749  14.923 -0.4509 -0.5118 -0.5007
15261TIP3    H267275   4.270   2.889  14.933  0.2119 -0.3710  1.3421
15262TIP3   OH267276   6.602   6.049  12.308 -0.2298  0.2479  0.2509
15262TIP3    H167277   6.638   6.074  12.393  1.3711 -0.4400 -0.2008
15262TIP3    H267278   6.672   6.070  12.246  0.1084 -2.7225 -0.4522
15263TIP3   OH267279   2.476   6.123   3.488 -0.4070 -0.6845 -0.2713
15263TIP3    H167280   2.452   6.046   3.437 -0.1440  0.1529 -1.7088
15263TIP3    H267281   2.550   6.095   3.542  0.9463 -0.9468 -2.1886
15264TIP3   OH267282   4.052   4.913  12.926 -0.3156  0.1145  0.8130
15264TIP3    H167283   4.062   5.006  12.948 -1.1260  0.7075 -1.2001
15264TIP3    H267284   4.141   4.878  12.928  0.5148  1.8730 -2.2301
15265TIP3   OH267285   0.239   3.633   5.349 -0.2795  0.0714 -0.2653
15265TIP3    H167286   0.205   3.720   5.372  3.2037  1.0363  1.5574
15265TIP3    H267287   0.243   3.634   5.253 -2.0382  1.2011 -0.3459
15266TIP3   OH267288   2.212   6.004   0.421 -0.1995 -0.5931 -0.0941
15266TIP3    H167289   2.225   6.096   0.399 -2.4216 -0.5689 -1.5054
15266TIP3    H267290   2.166   6.005   0.505  0.4049 -0.4492  0.2381
15267TIP3   OH267291   5.863   1.196   3.782  0.9058 -0.1357 -0.5615
15267TIP3    H167292   5.859   1.115   3.730 -0.8394  0.8037 -1.9580
15267TIP3    H267293   5.833   1.169   3.869 -0.0218 -0.9583 -1.1108
15268TIP3   OH267294   2.232   0.377  11.909 -0.0142 -0.1164 -0.1243
15268TIP3    H167295   2.150   0.338  11.878 -1.6084  2.6521  0.3982
15268TIP3    H267296   2.238   0.351  12.001 -0.7397  0.2869  0.0475
15269TIP3   OH267297   3.170   2.349   1.248  0.0537 -0.6989 -0.3810
15269TIP3    H167298   3.251   2.372   1.293  1.0725 -0.2834 -2.3592
15269TIP3    H267299   3.198   2.289   1.179 -1.5930 -2.0527  0.0836
15270TIP3   OH267300   0.899   4.140   4.874  0.0073  0.4565  0.0689
15270TIP3    H167301   0.886   4.218   4.820  0.6429  1.0893  0.8178
15270TIP3    H267302   0.974   4.162   4.930  2.9241 -2.2533 -2.6020
15271TIP3   OH267303   1.075   6.737   0.275  0.4081  0.2273 -0.1098
15271TIP3    H167304   1.149   6.714   0.219  0.3747 -0.0943 -0.0226
15271TIP3    H267305   1.108   6.725   0.364  0.1532 -0.2234 -0.0757
15272TIP3   OH267306   3.308   2.073  12.460 -0.0151  0.0172 -0.5018
15272TIP3    H167307   3.397   2.100  12.484 -0.1232  1.3806 -1.6008
15272TIP3    H267308   3.295   2.107  12.372 -1.2795 -1.0354 -0.7371
15273TIP3   OH267309   5.654   2.011   1.848  0.0092 -0.3851 -0.3464
15273TIP3    H167310   5.672   2.093   1.894  1.4111 -0.4946 -0.7074
15273TIP3    H267311   5.588   2.035   1.782 -0.6739  0.1374  0.5105
15274TIP3   OH267312   3.097   0.784   3.232 -0.0025 -0.0665 -0.5043
15274TIP3    H167313   3.171   0.774   3.172 -0.4349  0.5125 -1.1310
15274TIP3    H267314   3.133   0.834   3.306 -0.1064  1.3679 -1.4176
15275TIP3   OH267315   4.567   0.378  10.717 -0.1224  0.2229 -1.1013
15275TIP3    H167316   4.660   0.388  10.696 -0.2317  1.8849 -0.8237
15275TIP3    H267317   4.553   0.283  10.717  1.2075  0.0012 -2.7105
15276TIP3   OH267318   2.354   5.982  13.470 -0.1352  0.0582 -0.3003
15276TIP3    H167319   2.394   6.049  13.525  1.1479 -2.0305  1.3906
15276TIP3    H267320   2.423   5.916  13.459 -1.2791 -0.8666 -2.1304
15277TIP3   OH267321   3.739   6.131   2.851  0.0027 -0.3458 -0.1940
15277TIP3    H167322   3.800   6.186   2.802 -1.7138 -1.1941 -3.4321
15277TIP3    H267323   3.663   6.188   2.866 -0.4362 -0.8191 -0.6249
15278TIP3   OH267324   0.486   1.955   2.814  0.6431  0.2673  0.2413
15278TIP3    H167325   0.544   1.964   2.739  2.3553  0.0634  1.4973
15278TIP3    H267326   0.520   2.017   2.879 -0.8639  0.5234  0.8097
15279TIP3   OH267327   5.610   0.216   3.308 -0.2575 -0.0647 -0.0114
15279TIP3    H167328   5.695   0.216   3.351 -1.1549  0.4698  1.8125
15279TIP3    H267329   5.615   0.144   3.245  2.4299  1.5884 -1.7993
15280TIP3   OH267330   5.923   2.673   1.759 -0.2646 -0.8417  0.4231
15280TIP3    H167331   5.867   2.623   1.820  0.5504  1.6741  3.3504
15280TIP3    H267332   6.002   2.620   1.751 -0.9486 -1.8823  0.3988
15281TIP3   OH267333   4.640   3.259   3.989  0.3255 -0.2365 -0.1286
15281TIP3    H167334   4.671   3.317   4.059  0.3885 -0.4455  0.0170
15281TIP3    H267335   4.565   3.214   4.027  0.9404 -1.0557  0.1348
15282TIP3   OH267336   1.728   1.359   1.257 -0.3952 -0.2776  0.1707
15282TIP3    H167337   1.807   1.340   1.207  0.5459 -2.2690  2.2999
15282TIP3    H267338   1.663   1.297   1.223 -0.6172  0.3765 -0.5957
15283TIP3   OH267339   4.514   2.602   2.269  0.5513 -0.3314  0.2222
15283TIP3    H167340   4.453   2.594   2.196 -0.0169 -1.5415  0.8018
15283TIP3    H267341   4.464   2.571   2.345  1.3694  0.2067  0.9857
15284TIP3   OH267342   6.224   0.691  13.197  0.7484  0.3623 -0.7528
15284TIP3    H167343   6.196   0.700  13.106  0.3561  0.6325 -0.6096
15284TIP3    H267344   6.194   0.604  13.223  0.3582  0.5068 -0.7120
15285TIP3   OH267345   2.502   1.616   5.569 -0.7165  0.3876 -0.5719
15285TIP3    H167346   2.565   1.687   5.557  0.1740 -0.6682 -2.1844
15285TIP3    H267347   2.490   1.612   5.664  2.4236 -0.0673 -0.1539
15286TIP3   OH267348   4.743   6.092   3.150 -0.2851 -0.1009  0.4850
15286TIP3    H167349   4.648   6.101   3.141 -0.3041  3.1362  2.9531
15286TIP3    H267350   4.754   6.024   3.218 -0.7711 -1.4083 -0.7261
15287TIP3   OH267351   5.536   6.307   3.166 -0.1524 -0.5164  0.2578
15287TIP3    H167352   5.543   6.281   3.074 -1.2598  0.5415 -0.1318
15287TIP3    H267353   5.618   6.352   3.185  1.0180 -2.6364  0.4266
15288TIP3   OH267354   1.806   3.592  11.213 -0.5278 -0.1505  0.2178
15288TIP3    H167355   1.775   3.544  11.290 -0.0020  1.6686  1.6091
15288TIP3    H267356   1.900   3.601  11.226 -0.3242 -0.4550 -1.0063
15289TIP3   OH267357   3.890   4.925   1.247 -0.4262  0.1248  0.1452
15289TIP3    H167358   3.904   4.990   1.316 -1.1438  0.4285  0.0111
15289TIP3    H267359   3.917   4.967   1.166 -0.2270  0.0101  0.1523
15290TIP3   OH267360   4.933   4.089  15.326 -0.0897  0.0919  0.3235
15290TIP3    H167361   5.011   4.039  15.301  0.3541  0.2761  1.3295
15290TIP3    H267362   4.861   4.027  15.316  0.3148 -0.3975  0.4317
15291TIP3   OH267363   1.589   2.732  15.568 -0.3607 -0.0693 -0.9205
15291TIP3    H167364   1.657   2.717  15.502  1.3506 -0.9117  0.9529
15291TIP3    H267365   1.514   2.680  15.538  0.6962 -1.1261 -1.7548
15292TIP3   OH267366   6.621   3.126   0.100 -0.8237 -0.1445 -0.1393
15292TIP3    H167367   6.689   3.101   0.037 -2.2662 -1.6227 -1.1691
15292TIP3    H267368   6.570   3.193   0.054  0.3431  1.5188  0.9191
15293TIP3   OH267369   6.254   1.497  14.973  0.1242  0.4234  0.2593
15293TIP3    H167370   6.207   1.546  15.041 -0.4696  3.4508 -2.2447
15293TIP3    H267371   6.189   1.437  14.938 -0.4527  1.0481  0.2471
15294TIP3   OH267372   4.055   4.597   3.268 -0.4806  0.0597 -0.0421
15294TIP3    H167373   4.137   4.630   3.230  0.4109  0.0259  1.7893
15294TIP3    H267374   4.009   4.676   3.296 -0.6393  0.0239 -0.2048
15295TIP3   OH267375   2.858   3.120  11.277  0.2117  0.4246 -0.6706
15295TIP3    H167376   2.824   3.168  11.352  1.8591 -1.6315  1.4710
15295TIP3    H267377   2.784   3.067  11.246 -0.5981  1.6213 -0.8079
15296TIP3   OH267378   3.117   6.323  12.651 -0.0553 -0.5307 -0.3854
15296TIP3    H167379   3.080   6.237  12.630  0.0550 -0.5547 -0.4832
15296TIP3    H267380   3.212   6.310  12.642  0.2041 -1.2483  2.5347
15297TIP3   OH267381   5.956   4.697   4.384  0.3322 -0.0170 -0.2582
15297TIP3    H167382   5.996   4.610   4.386 -0.4327 -0.3682 -0.0765
15297TIP3    H267383   5.884   4.689   4.322  0.6776  0.6771 -0.7572
15298TIP3   OH267384   5.073   0.053   4.813 -0.1666  0.2177 -0.0428
15298TIP3    H167385   4.995   0.108   4.808  0.0986  0.6465  0.5384
15298TIP3    H267386   5.090   0.027   4.722  1.3145  3.3476 -0.7255
15299TIP3   OH267387   0.497   2.873  14.326 -0.1899 -0.1547  0.3840
15299TIP3    H167388   0.450   2.956  14.317  2.1048  1.1599 -0.0815
15299TIP3    H267389   0.501   2.858  14.420 -1.6703 -0.3878  0.4218
15300TIP3   OH267390   3.722   4.449  11.853  0.2460 -0.4305  0.1049
15300TIP3    H167391   3.757   4.527  11.809 -1.1146  1.0605  1.6314
15300TIP3    H267392   3.740   4.463  11.946 -1.2718 -1.2681  0.5424
15301TIP3   OH267393   6.161   5.436   0.392  0.2341 -0.3092  0.6172
15301TIP3    H167394   6.256   5.426   0.386  0.0694 -1.3110 -0.5216
15301TIP3    H267395   6.145   5.524   0.358  0.7688 -0.0804  0.9453
15302TIP3   OH267396   5.071   1.817   6.439 -0.1734  0.3100 -0.1296
15302TIP3    H167397   5.007   1.889   6.444 -0.5309  0.0764 -1.3032
15302TIP3    H267398   5.155   1.859   6.458 -0.3259  1.1101 -1.1912
15303TIP3   OH267399   3.925   5.689  15.743 -0.2384 -0.1104 -0.1984
15303TIP3    H167400   4.008   5.688  15.697  0.8350  0.5933  1.6815
15303TIP3    H267401   3.906   5.781  15.759 -1.8267 -0.2053 -1.3747
15304TIP3   OH267402   2.168   5.367   5.399  0.3639 -0.4854  0.2652
15304TIP3    H167403   2.097   5.325   5.447  1.5977 -1.0883  1.6352
15304TIP3    H267404   2.245   5.314   5.421  1.7148  1.7244  0.9887
15305TIP3   OH267405   4.434   2.719   4.068 -0.6343 -0.0293 -0.8349
15305TIP3    H167406   4.524   2.751   4.062 -0.9284  1.3942  1.4845
15305TIP3    H267407   4.433   2.664   4.147 -1.8402  0.0977 -0.7470
15306TIP3   OH267408   1.948   5.265   1.171 -0.4094 -0.2943  0.9061
15306TIP3    H167409   1.862   5.264   1.130 -0.0369 -0.0642  0.1011
15306TIP3    H267410   2.006   5.299   1.103  0.2679 -0.1893  1.5361
15307TIP3   OH267411   3.552   1.684   5.685  0.2579  0.5254  0.3209
15307TIP3    H167412   3.523   1.769   5.651 -1.9405 -0.0148  0.7484
15307TIP3    H267413   3.647   1.685   5.675  0.1553  2.5922 -0.7012
15308TIP3   OH267414   1.203   0.554  11.987 -0.2548 -0.9586  0.3997
15308TIP3    H167415   1.271   0.515  11.933 -0.3828 -2.4732  1.3192
15308TIP3    H267416   1.228   0.534  12.077 -1.4669 -0.7987  0.7875
15309TIP3   OH267417   5.603   4.111  14.314  0.4743  0.4264 -0.0329
15309TIP3    H167418   5.565   4.095  14.228 -0.8714  0.0753  0.6062
15309TIP3    H267419   5.550   4.057  14.374  3.0827 -1.4781  0.6668
15310TIP3   OH267420   1.237   2.742  16.375 -0.6195  1.0153  0.8245
15310TIP3    H167421   1.269   2.706  16.458  0.5707 -1.9913 -0.8531
15310TIP3    H267422   1.312   2.793  16.341 -0.6018  1.0462  0.9097
15311TIP3   OH267423   4.082   5.378  11.457  0.3268 -0.4911 -0.3380
15311TIP3    H167424   4.170   5.390  11.420  0.3082 -1.0983 -0.5830
15311TIP3    H267425   4.042   5.309  11.403 -0.2955 -0.2283 -0.2198
15312TIP3   OH267426   4.402   3.934   0.440  0.6435  0.3731 -0.3075
15312TIP3    H167427   4.368   4.023   0.443 -1.0646 -0.2750  0.8638
15312TIP3    H267428   4.390   3.906   0.350  1.7458  1.5282 -0.8193
15313TIP3   OH267429   1.896   3.588  16.059  0.1679 -0.1029  0.6327
15313TIP3    H167430   1.990   3.594  16.042 -0.2987  2.2340 -1.4196
15313TIP3    H267431   1.859   3.663  16.013 -2.9958 -2.4161 -0.7743
15314TIP3   OH267432   5.036   5.887  10.559  0.2642 -0.0510  0.2633
15314TIP3    H167433   5.107   5.828  10.584  1.0100  0.2491 -1.1504
15314TIP3    H267434   5.079   5.963  10.521 -0.7817  0.4375  0.0310
15315TIP3   OH267435   0.146   4.753   0.771 -0.2734  0.0465 -0.2359
15315TIP3    H167436   0.212   4.695   0.734 -0.4270 -2.3463  3.0604
15315TIP3    H267437   0.066   4.701   0.773 -0.4502  0.3541  2.6566
15316TIP3   OH267438   4.467   5.364   2.031 -0.1878 -0.3105 -0.0103
15316TIP3    H167439   4.428   5.279   2.014  0.5833 -0.3671 -1.5955
15316TIP3    H267440   4.395   5.426   2.020 -0.3145 -0.5989 -0.8709
15317TIP3   OH267441   3.681   2.842   0.893  0.3371 -0.5835 -0.1267
15317TIP3    H167442   3.622   2.768   0.886  1.9881 -1.8037 -1.7479
15317TIP3    H267443   3.627   2.918   0.871 -0.6210 -1.6830 -1.6800
15318TIP3   OH267444   4.550   2.895   5.279  0.4138  0.3586 -0.0531
15318TIP3    H167445   4.576   2.850   5.359 -1.9033 -0.6819  0.1678
15318TIP3    H267446   4.630   2.935   5.246  1.9429 -1.4970  1.3302
15319TIP3   OH267447   3.830   0.921  12.446  0.4500  0.7108 -0.3745
15319TIP3    H167448   3.902   0.920  12.382  1.1024  2.8727  0.2766
15319TIP3    H267449   3.756   0.957  12.397 -0.3491 -1.8807 -1.1583
15320TIP3   OH267450   2.719   1.172  13.985 -0.4478  0.5010  0.1072
15320TIP3    H167451   2.745   1.246  14.040 -0.7160  0.3363  0.4577
15320TIP3    H267452   2.709   1.099  14.046  0.9478 -0.1142 -0.3870
15321TIP3   OH267453   3.718   5.671   5.750 -0.7379 -0.3262  0.4252
15321TIP3    H167454   3.673   5.694   5.831 -1.8288  1.5346 -0.6484
15321TIP3    H267455   3.653   5.622   5.699 -1.4291  1.9045 -0.9097
15322TIP3   OH267456   3.325   4.503   3.134 -0.0879 -1.0981  0.0760
15322TIP3    H167457   3.270   4.543   3.202 -2.6532 -1.5544 -1.6585
15322TIP3    H267458   3.330   4.410   3.159 -1.1869 -1.3036 -0.4379
15323TIP3   OH267459   1.906   2.325   2.272  0.0305  0.5412 -0.6443
15323TIP3    H167460   1.836   2.389   2.282 -1.5174 -1.0282 -1.2166
15323TIP3    H267461   1.894   2.264   2.344  2.4910  1.7591  0.8591
15324TIP3   OH267462   3.373   4.114   2.732  0.3971 -0.2381  0.4092
15324TIP3    H167463   3.301   4.096   2.792 -0.6915 -1.1351 -1.1011
15324TIP3    H267464   3.342   4.188   2.680  0.3970 -0.8534 -0.4860
15325TIP3   OH267465   2.431   3.678   3.208 -0.3496 -0.3670  0.2018
15325TIP3    H167466   2.455   3.653   3.297 -0.2498 -1.2925 -0.0765
15325TIP3    H267467   2.503   3.733   3.178  0.5464 -1.6349  0.0151
15326TIP3   OH267468   0.899   5.231  11.593 -0.0999  0.1098  0.1055
15326TIP3    H167469   0.982   5.220  11.639 -0.0373  0.2220  0.0188
15326TIP3    H267470   0.871   5.320  11.613 -0.9831 -0.4510  1.4165
15327TIP3   OH267471   2.684   2.676  12.158  0.1577 -0.5608  0.1615
15327TIP3    H167472   2.746   2.626  12.210  0.1862 -0.4692  0.2149
15327TIP3    H267473   2.599   2.634  12.175  0.3102 -1.1623 -0.5034
15328TIP3   OH267474   2.637   0.565   2.592  0.3570  0.3451  0.0860
15328TIP3    H167475   2.559   0.589   2.541  1.0245  1.5201 -0.4141
15328TIP3    H267476   2.654   0.474   2.568 -0.9486  0.0160  0.3269
15329TIP3   OH267477   2.758   5.949   5.964  0.0563  0.0586  0.3450
15329TIP3    H167478   2.756   5.967   5.870  0.0852 -1.7363 -0.0076
15329TIP3    H267479   2.771   6.035   6.004 -0.7355  0.9451 -1.2467
15330TIP3   OH267480   3.436   4.052  13.207  0.0210  0.3879  0.5935
15330TIP3    H167481   3.371   4.081  13.271 -2.3612 -1.2009 -1.0034
15330TIP3    H267482   3.469   3.969  13.242 -3.2358 -1.8841 -1.3592
15331TIP3   OH267483   3.243   2.645   1.276 -0.1520  0.4337 -0.1807
15331TIP3    H167484   3.265   2.652   1.183 -2.5657 -0.2180 -0.8418
15331TIP3    H267485   3.154   2.679   1.282 -0.0823  0.3034  1.8779
15332TIP3   OH267486   2.931   0.326  12.887 -0.0614  0.0290 -0.3585
15332TIP3    H167487   2.859   0.265  12.900  0.0486  0.1449  0.8854
15332TIP3    H267488   2.908   0.374  12.807 -0.6710 -0.8824 -0.7398
15333TIP3   OH267489   3.313   3.219  15.992 -0.1318 -0.4475  0.7258
15333TIP3    H167490   3.285   3.234  15.901 -0.5108 -1.4094  0.6736
15333TIP3    H267491   3.287   3.298  16.038 -0.2755 -0.1035  0.0659
15334TIP3   OH267492   0.775   1.288   5.840 -0.4000  0.4594 -0.5785
15334TIP3    H167493   0.834   1.229   5.794 -0.8766  0.4518 -1.1871
15334TIP3    H267494   0.713   1.230   5.884 -0.0933  0.4734 -0.1250
15335TIP3   OH267495   2.665   2.039  14.304  0.7065 -0.3166 -0.8295
15335TIP3    H167496   2.677   2.047  14.209 -1.1117 -0.5310 -1.1115
15335TIP3    H267497   2.651   2.129  14.334  0.4032 -0.3364 -0.9075
15336TIP3   OH267498   6.108   3.009  13.836 -0.4965  0.6774  0.2247
15336TIP3    H167499   6.080   3.097  13.812 -0.2179  0.8199  0.4160
15336TIP3    H267500   6.136   3.016  13.928 -2.5563 -0.1054  0.9265
15337TIP3   OH267501   5.756   5.070   1.754  0.2176 -0.3260  0.2974
15337TIP3    H167502   5.726   5.091   1.843 -1.2359  0.0669 -0.2644
15337TIP3    H267503   5.825   5.005   1.767 -2.1083 -2.6352  1.6002
15338TIP3   OH267504   2.171   1.853   3.438  0.0052 -0.0111 -0.4676
15338TIP3    H167505   2.113   1.798   3.384  0.1132  0.0120 -0.6073
15338TIP3    H267506   2.216   1.909   3.374  0.6938 -0.5045 -0.4182
15339TIP3   OH267507   5.070   1.717  12.337 -0.0720 -0.7429  0.4529
15339TIP3    H167508   5.094   1.643  12.392 -1.1834 -0.9313  0.6969
15339TIP3    H267509   5.009   1.768  12.390  1.5095  0.9311  0.6964
15340TIP3   OH267510   4.321   0.380  15.261 -0.0722  0.3043  0.4434
15340TIP3    H167511   4.252   0.319  15.291  1.5591 -1.7607  0.1104
15340TIP3    H267512   4.279   0.466  15.264 -1.5480 -0.4442  3.7699
15341TIP3   OH267513   2.090   5.080   2.150 -0.2236 -0.0330 -0.1122
15341TIP3    H167514   2.047   5.077   2.235 -1.6462  0.8011 -0.7736
15341TIP3    H267515   2.089   4.989   2.119  0.8590 -0.4413  1.0135
15342TIP3   OH267516   6.158   4.450  16.877  0.2421 -0.0589  0.6205
15342TIP3    H167517   6.217   4.417  16.944 -0.1399 -1.5995  0.2208
15342TIP3    H267518   6.096   4.378  16.863 -1.1473  1.1717  0.3678
15343TIP3   OH267519   1.968   3.954   0.946  0.1785  0.0577 -0.1542
15343TIP3    H167520   1.900   3.928   1.008 -0.0369  0.2765 -0.2988
15343TIP3    H267521   2.040   3.983   1.001  0.4936 -1.0154  0.0153
15344TIP3   OH267522   5.606   2.640   0.685  0.3696 -0.1758  0.1230
15344TIP3    H167523   5.693   2.677   0.674  0.6360 -0.5966  0.7948
15344TIP3    H267524   5.596   2.579   0.612  1.3116 -1.4033  1.0042
15345TIP3   OH267525   0.321   1.080  12.634  0.1091 -0.2495  0.3769
15345TIP3    H167526   0.290   1.037  12.555  1.4059 -0.0327 -0.2630
15345TIP3    H267527   0.394   1.026  12.663  0.6069  0.5230  0.5686
15346TIP3   OH267528   4.901   3.106  16.114 -0.4218  0.0592 -0.0810
15346TIP3    H167529   4.944   3.038  16.062 -1.4827  0.5957 -1.6809
15346TIP3    H267530   4.925   3.188  16.071 -0.6978  0.5636  0.7226
15347TIP3   OH267531   5.180   1.831   4.953 -0.0718  0.3037  0.4552
15347TIP3    H167532   5.089   1.859   4.963 -0.2688  0.4770 -1.6767
15347TIP3    H267533   5.226   1.874   5.025 -1.6758  0.1634  1.5931
15348TIP3   OH267534   6.549   3.679   0.768  0.2724 -0.1743  0.2640
15348TIP3    H167535   6.464   3.641   0.747  0.4332 -0.5097  0.2130
15348TIP3    H267536   6.532   3.772   0.777 -0.0049 -0.1715 -0.2689
15349TIP3   OH267537   3.384   6.373  12.018 -0.2076  0.1633  0.2175
15349TIP3    H167538   3.457   6.361  11.957  0.3442  2.2195  0.4228
15349TIP3    H267539   3.396   6.307  12.085  0.8383 -0.2336 -0.3580
15350TIP3   OH267540   2.344   6.081   6.063  0.1789 -0.0702  0.7744
15350TIP3    H167541   2.288   6.158   6.075  2.0544  1.1906  1.5885
15350TIP3    H267542   2.430   6.117   6.040  1.1434 -1.9010  1.4425
15351TIP3   OH267543   3.352   3.910  13.611  0.5412  0.1566  0.1982
15351TIP3    H167544   3.328   3.981  13.672 -1.3263 -0.0399 -0.2766
15351TIP3    H267545   3.428   3.944  13.564  0.5297  1.2834  0.9545
15352TIP3   OH267546   4.413   0.609   2.953  0.4030 -0.2241  0.0926
15352TIP3    H167547   4.395   0.680   2.892 -0.9141  1.4963  2.3702
15352TIP3    H267548   4.508   0.600   2.953  0.4771  0.4031 -1.4506
15353TIP3   OH267549   5.458   3.582  16.863  0.0261 -0.2757  0.4855
15353TIP3    H167550   5.423   3.494  16.856 -1.0565  0.1452  0.6106
15353TIP3    H267551   5.421   3.629  16.789  0.4613  0.1305  0.5184
15354TIP3   OH267552   1.979   5.264   3.053 -0.9625  0.3394 -0.1129
15354TIP3    H167553   2.030   5.298   3.127  0.7065 -0.7423 -0.7331
15354TIP3    H267554   2.045   5.240   2.988 -2.2079 -2.0528 -0.5535
15355TIP3   OH267555   5.337   0.843  12.204  0.9857 -0.2674 -0.4843
15355TIP3    H167556   5.298   0.827  12.118  0.9117  0.4359 -0.5886
15355TIP3    H267557   5.423   0.882  12.184  1.2986 -0.8250 -0.2442
15356TIP3   OH267558   1.584   2.206   5.770  0.6488 -0.8480 -0.1535
15356TIP3    H167559   1.658   2.215   5.710 -1.4630 -2.2697 -3.1018
15356TIP3    H267560   1.593   2.117   5.806  0.7789 -0.7487  0.0598
15357TIP3   OH267561   4.022   2.147  15.798  0.0072 -0.2704  0.2095
15357TIP3    H167562   3.986   2.085  15.861  0.8530 -0.7276  0.2582
15357TIP3    H267563   4.077   2.093  15.741 -0.6445  0.1592 -0.8331
15358TIP3   OH267564   0.227   2.945  14.786 -0.0067  0.1509 -0.4491
15358TIP3    H167565   0.186   2.934  14.872  2.2786  0.8088  0.7703
15358TIP3    H267566   0.217   2.860  14.744  0.4933 -0.7724  1.2273
15359TIP3   OH267567   4.945   2.577  14.286  0.1995  0.4598  0.5947
15359TIP3    H167568   4.982   2.600  14.201  1.8299 -0.2126  1.1023
15359TIP3    H267569   4.950   2.658  14.337  0.0003  0.6426  0.3236
15360TIP3   OH267570   2.865   5.065  14.575  0.2701 -0.0988 -0.2778
15360TIP3    H167571   2.844   4.977  14.603 -0.2322 -0.0324 -0.4515
15360TIP3    H267572   2.896   5.109  14.654 -2.8623  0.6361  0.5765
15361TIP3   OH267573   4.349   3.719   3.251 -0.2734 -0.1311  0.3922
15361TIP3    H167574   4.281   3.708   3.184  1.2784 -1.4476 -1.0060
15361TIP3    H267575   4.390   3.633   3.258  0.5328  0.3641  2.0344
15362TIP3   OH267576   2.053   6.321   2.672  0.0066  0.0962 -0.7284
15362TIP3    H167577   2.011   6.318   2.758  0.3929 -1.3094 -0.5791
15362TIP3    H267578   1.982   6.311   2.609 -0.3106  1.3924 -0.6026
15363TIP3   OH267579   4.006   0.097   3.366  0.7213 -0.0647  0.2627
15363TIP3    H167580   3.959   0.026   3.409 -1.1653  0.6839 -0.5213
15363TIP3    H267581   4.008   0.167   3.432  1.1259 -0.2591  0.4552
15364TIP3   OH267582   5.562   2.645  11.686 -0.0298 -0.1390 -0.0090
15364TIP3    H167583   5.575   2.707  11.758  0.0359 -1.1353  0.8358
15364TIP3    H267584   5.529   2.700  11.614  0.5161  0.9662  0.5625
15365TIP3   OH267585   4.188   5.891   3.596 -0.6932 -0.0388  0.3189
15365TIP3    H167586   4.268   5.909   3.646  0.8762 -1.0585 -1.7435
15365TIP3    H267587   4.148   5.816   3.641 -0.1196  0.0136  0.9317
15366TIP3   OH267588   2.612   2.297  11.768 -0.4462 -0.5049  0.4237
15366TIP3    H167589   2.606   2.233  11.697  0.7180 -0.7645  0.5572
15366TIP3    H267590   2.600   2.245  11.848 -3.7747  0.0638  0.3687
15367TIP3   OH267591   6.072   2.458   0.955  0.1701  0.0778  0.1336
15367TIP3    H167592   6.137   2.525   0.933 -0.0959  0.7354  1.3003
15367TIP3    H267593   6.024   2.444   0.873 -1.2897  3.0346  0.4065
15368TIP3   OH267594   2.358   3.050  12.842  0.4140  0.1731 -0.1255
15368TIP3    H167595   2.355   3.005  12.758  0.6427  1.8178 -1.0429
15368TIP3    H267596   2.448   3.084  12.848 -0.4898  2.8089 -0.7214
15369TIP3   OH267597   2.788   4.126  15.385 -0.2119 -0.4275  0.5407
15369TIP3    H167598   2.735   4.183  15.441 -2.1416 -0.3425 -1.3018
15369TIP3    H267599   2.725   4.067  15.344  1.0867 -0.3072 -1.7471
15370TIP3   OH267600   4.842   5.098  13.929 -0.1318  0.3660 -0.1628
15370TIP3    H167601   4.813   5.151  13.854 -1.2036 -1.4532 -1.0652
15370TIP3    H267602   4.804   5.143  14.005  2.0091  2.9499 -0.5351
15371TIP3   OH267603   0.054   2.004   1.312  0.1675 -0.4071  0.0962
15371TIP3    H167604   0.146   1.984   1.296  0.7981  1.7570  0.9152
15371TIP3    H267605   0.036   2.081   1.257 -0.9662 -0.3951  0.4706
15372TIP3   OH267606   3.045   4.500  11.399 -0.1480 -0.1711  0.3315
15372TIP3    H167607   3.009   4.480  11.312  0.6922  0.0267 -0.0621
15372TIP3    H267608   3.127   4.451  11.403  0.5738  1.0325  0.4136
15373TIP3   OH267609   6.538   1.822  14.268 -0.2072  0.0726  0.0541
15373TIP3    H167610   6.609   1.779  14.221 -0.1457 -1.2314  1.3229
15373TIP3    H267611   6.474   1.753  14.285 -0.5845  0.6851  1.2307
15374TIP3   OH267612   0.253   1.326   3.671 -0.0104 -0.3882 -0.0627
15374TIP3    H167613   0.175   1.377   3.649  1.6917  1.4154 -2.0369
15374TIP3    H267614   0.221   1.236   3.678 -2.9203  0.7568  2.6917
15375TIP3   OH267615   0.757   2.030   0.269  0.0009  0.1866  0.6236
15375TIP3    H167616   0.801   2.032   0.354  0.4693  4.9204  0.4323
15375TIP3    H267617   0.667   2.008   0.288  0.6670 -1.3844  2.0251
15376TIP3   OH267618   4.099   6.149  12.475  0.2137  1.0439 -0.3255
15376TIP3    H167619   4.111   6.065  12.519  1.7970  0.9201 -0.9612
15376TIP3    H267620   4.092   6.126  12.382  1.7490  1.6976 -0.6084
15377TIP3   OH267621   2.078   2.095   1.961 -0.2912  0.0557 -0.5257
15377TIP3    H167622   1.987   2.089   1.933 -0.0274  0.4271 -1.4780
15377TIP3    H267623   2.126   2.037   1.903 -0.2001 -1.7755  1.3278
15378TIP3   OH267624   6.809   1.815  11.046  0.7964 -0.2880 -0.1929
15378TIP3    H167625   6.897   1.852  11.058 -0.1163  1.7573  0.4335
15378TIP3    H267626   6.824   1.722  11.034  2.9738 -0.1887  1.3806
15379TIP3   OH267627   3.812   6.370   5.063  0.1972 -0.5789  0.3570
15379TIP3    H167628   3.808   6.275   5.059  1.0282 -0.7001  1.9067
15379TIP3    H267629   3.891   6.388   5.115 -0.6901  0.9164  1.2227
15380TIP3   OH267630   3.600   0.262   1.961 -0.0249 -0.0284 -0.3252
15380TIP3    H167631   3.673   0.320   1.983 -0.6443  0.1140  1.4465
15380TIP3    H267632   3.642   0.182   1.931  0.8666  0.3748 -0.1789
15381TIP3   OH267633   0.139   6.283   5.434  0.0148  0.0627  0.5237
15381TIP3    H167634   0.052   6.323   5.446 -0.6229 -1.0635 -0.2769
15381TIP3    H267635   0.181   6.337   5.368 -0.2998  0.2809  0.4989
15382TIP3   OH267636   4.849   4.838  15.851 -0.7437 -0.4363  0.1972
15382TIP3    H167637   4.759   4.858  15.828 -1.1616 -3.9153 -1.6304
15382TIP3    H267638   4.842   4.769  15.918  0.4983 -2.1297 -1.3648
15383TIP3   OH267639   1.075   4.589  14.618 -0.9842  0.2215  0.2910
15383TIP3    H167640   1.121   4.667  14.648  0.7403 -0.0302 -1.5690
15383TIP3    H267641   1.142   4.520  14.618 -1.8676 -0.6472 -0.4806
15384TIP3   OH267642   4.351   3.322  10.585 -0.0770  0.7080  0.6479
15384TIP3    H167643   4.284   3.277  10.534  0.4685 -1.2641  1.6453
15384TIP3    H267644   4.408   3.362  10.519 -0.3803 -0.3302 -0.2447
15385TIP3   OH267645   0.202   2.375   6.317  0.9248 -0.1996  0.7445
15385TIP3    H167646   0.115   2.354   6.282  1.6479 -0.5935 -0.8809
15385TIP3    H267647   0.249   2.292   6.317  1.7355  0.2462  0.3000
15386TIP3   OH267648   6.792   4.806   1.187  0.2497 -0.0646 -0.0173
15386TIP3    H167649   6.761   4.869   1.252 -0.0146 -0.0900 -0.1212
15386TIP3    H267650   6.883   4.790   1.212  0.6324  1.1463 -0.6005
15387TIP3   OH267651   3.576   4.462  13.508 -0.1793  0.1305 -0.3821
15387TIP3    H167652   3.632   4.539  13.517  0.4949 -0.3279 -0.6045
15387TIP3    H267653   3.528   4.457  13.591  0.9774 -0.1444  0.2818
15388TIP3   OH267654   4.569   4.390   0.342 -0.2189  0.0042 -0.4581
15388TIP3    H167655   4.544   4.332   0.270  0.5546  0.1338 -0.8412
15388TIP3    H267656   4.609   4.465   0.299 -0.4911  0.4582  0.0761
15389TIP3   OH267657   1.761   1.412   6.621 -0.2824  0.4507 -0.0733
15389TIP3    H167658   1.708   1.462   6.558  0.7971  1.9640  0.1801
15389TIP3    H267659   1.710   1.413   6.702  0.2290  2.1677  0.2590
15390TIP3   OH267660   5.752   6.688  12.819  0.4488 -0.1997  0.0847
15390TIP3    H167661   5.844   6.674  12.838 -0.0873 -1.7335  1.7016
15390TIP3    H267662   5.749   6.707  12.725  2.5545  1.5448  0.3426
15391TIP3   OH267663   1.876   0.343   2.210 -0.0664  0.6830  0.2021
15391TIP3    H167664   1.968   0.321   2.198  0.1241  1.1114  0.8265
15391TIP3    H267665   1.870   0.436   2.187 -0.8969 -0.0183 -2.6158
15392TIP3   OH267666   0.123   3.264   4.922  0.2102 -0.6710  0.1051
15392TIP3    H167667   0.091   3.257   4.833  0.2563 -1.7590  0.1771
15392TIP3    H267668   0.098   3.182   4.964 -0.0512 -0.0597  1.1713
15393TIP3   OH267669   3.617   3.087   3.986  0.1209 -0.0591  0.1404
15393TIP3    H167670   3.582   3.150   4.049  0.0600 -0.8745  0.9412
15393TIP3    H267671   3.575   3.109   3.903  0.3440  1.1472  0.3455
15394TIP3   OH267672   3.770   0.527   5.190  0.7377  0.5528  0.4080
15394TIP3    H167673   3.676   0.534   5.174  0.8959  0.2387 -0.6923
15394TIP3    H267674   3.794   0.609   5.232  0.0471  0.8003  0.3172
15395TIP3   OH267675   3.298   1.434  17.174 -0.2785  0.1796 -0.2012
15395TIP3    H167676   3.206   1.448  17.152 -0.6969 -1.5272  0.3636
15395TIP3    H267677   3.301   1.442  17.270 -0.2777 -1.8912  0.0037
15396TIP3   OH267678   5.503   5.929  12.727 -0.1846  0.2609  0.0160
15396TIP3    H167679   5.410   5.940  12.748 -0.6065  1.9825 -2.4760
15396TIP3    H267680   5.503   5.879  12.645  1.1446 -0.8362  0.6684
15397TIP3   OH267681   4.775   6.110  14.814  0.4973 -0.4595 -0.2655
15397TIP3    H167682   4.854   6.055  14.807  0.8263  0.0392 -0.4789
15397TIP3    H267683   4.809   6.197  14.837 -0.0210 -0.3324  0.0234
15398TIP3   OH267684   2.299   6.623   1.420  0.0418  0.5747 -0.0330
15398TIP3    H167685   2.353   6.684   1.370  1.1710 -0.5591 -0.2363
15398TIP3    H267686   2.272   6.672   1.498  0.6222  1.4467 -0.3826
15399TIP3   OH267687   0.682   3.735   2.377  0.3799 -0.5607  0.5332
15399TIP3    H167688   0.683   3.830   2.387 -1.6612 -0.3576 -0.8394
15399TIP3    H267689   0.750   3.704   2.437  1.4071  1.7794  0.6524
15400TIP3   OH267690   6.311   1.761   1.830 -0.2878 -0.1726  0.1746
15400TIP3    H167691   6.389   1.707   1.843 -0.6515 -0.5007  1.0936
15400TIP3    H267692   6.263   1.753   1.913 -1.1957  0.1839 -0.3120
15401TIP3   OH267693   0.756   1.994  15.205  0.1975 -0.1174 -0.1604
15401TIP3    H167694   0.828   2.052  15.177  0.1835 -0.3968 -0.7799
15401TIP3    H267695   0.794   1.906  15.204 -0.4398 -0.3824 -1.4746
15402TIP3   OH267696   4.331   5.964   5.209 -0.5567  0.0748  0.3766
15402TIP3    H167697   4.261   6.028   5.214  0.0685  1.1807 -3.3430
15402TIP3    H267698   4.400   5.997   5.267 -1.8243  0.6230  1.5818
15403TIP3   OH267699   2.251   1.924   1.865  0.5362 -0.5696  0.4998
15403TIP3    H167700   2.300   1.939   1.784  0.4745 -1.0775  0.3656
15403TIP3    H267701   2.319   1.908   1.931  0.5606 -0.8985  0.3931
15404TIP3   OH267702   2.281   3.688   1.141  0.1464  0.4241  0.3666
15404TIP3    H167703   2.238   3.603   1.153 -1.0119  1.0252  0.5817
15404TIP3    H267704   2.266   3.734   1.224  0.4181  0.9802  0.1083
15405TIP3   OH267705   4.034   2.679   4.038 -0.0880 -0.5167  0.1441
15405TIP3    H167706   4.020   2.666   4.132  0.3840  0.8877  0.4193
15405TIP3    H267707   4.071   2.767   4.031 -1.5213 -0.0197 -1.4933
15406TIP3   OH267708   0.676   3.835   0.017  0.2778 -0.0973  0.3774
15406TIP3    H167709   0.635   3.821   0.102  0.1851  0.4473  0.4244
15406TIP3    H267710   0.714   3.750  -0.006 -1.9664 -0.9632 -0.2576
15407TIP3   OH267711   3.898   1.646  15.100 -0.0935 -0.0225  0.3882
15407TIP3    H167712   3.966   1.632  15.167 -0.8409  1.5954  1.5011
15407TIP3    H267713   3.932   1.717  15.046 -1.2049  1.2305  1.3445
15408TIP3   OH267714   5.230   1.878   3.330 -0.4056 -0.5949 -0.3957
15408TIP3    H167715   5.242   1.960   3.377  0.1375 -0.3420 -0.9680
15408TIP3    H267716   5.319   1.852   3.304 -0.7654 -0.4085 -1.8358
15409TIP3   OH267717   0.768   5.418   4.457  0.1887 -0.3095  0.6043
15409TIP3    H167718   0.754   5.500   4.503  1.6133  0.3134 -0.0302
15409TIP3    H267719   0.772   5.352   4.526  2.5123  0.6423  1.4369
15410TIP3   OH267720   0.978   1.215   6.048  0.4131  0.0112  0.1981
15410TIP3    H167721   0.917   1.148   6.018 -1.0071  1.0544  0.7247
15410TIP3    H267722   0.924   1.278   6.095  2.1840 -0.0749  2.4234
15411TIP3   OH267723   5.823   0.620  11.529  0.2010 -0.0789 -0.3693
15411TIP3    H167724   5.910   0.652  11.504  1.0890 -1.3019  1.0765
15411TIP3    H267725   5.762   0.679  11.484  1.7722  1.8684 -0.0070
15412TIP3   OH267726   0.541   3.577   2.916 -0.3112 -0.4058 -0.1904
15412TIP3    H167727   0.502   3.535   2.993  0.0391  0.3612  0.4038
15412TIP3    H267728   0.467   3.616   2.870 -0.5905 -1.3173 -0.5317
15413TIP3   OH267729   6.766   3.908   5.194 -0.0336  0.7060  0.0019
15413TIP3    H167730   6.685   3.959   5.192  1.0835  2.5286 -0.8159
15413TIP3    H267731   6.778   3.879   5.103  0.5230  0.9455 -0.0030
15414TIP3   OH267732   4.978   3.082   0.279 -0.3379  0.0292  0.0526
15414TIP3    H167733   5.064   3.063   0.243  1.3033  3.8248  1.6837
15414TIP3    H267734   4.927   3.112   0.203  0.5863  0.3053 -0.4724
15415TIP3   OH267735   6.227   5.121   4.434 -0.3494 -0.0197 -0.1371
15415TIP3    H167736   6.146   5.135   4.384  0.5461  1.3251 -1.2405
15415TIP3    H267737   6.204   5.145   4.524 -0.9647  1.1665 -0.5946
15416TIP3   OH267738   2.574   5.392  12.395 -0.0702 -0.1088 -0.3173
15416TIP3    H167739   2.610   5.314  12.354  1.6165  0.0224  0.8344
15416TIP3    H267740   2.494   5.411  12.346  0.5450 -1.4047 -1.8651
15417TIP3   OH267741   6.110   4.437   0.960 -0.1802  0.1627  0.4379
15417TIP3    H167742   6.024   4.409   0.928  1.3000 -3.4911 -0.5948
15417TIP3    H267743   6.159   4.457   0.881  0.9908 -1.1947  0.7979
15418TIP3   OH267744   2.394   1.682  15.820  0.3289  0.4138 -0.2533
15418TIP3    H167745   2.343   1.643  15.749  1.5676 -0.1086 -0.8749
15418TIP3    H267746   2.336   1.680  15.895 -0.0553 -1.5415 -0.5734
15419TIP3   OH267747   0.338   3.234  17.251 -0.2874 -0.0451  0.3132
15419TIP3    H167748   0.276   3.216  17.180 -2.1381 -0.6939  2.0604
15419TIP3    H267749   0.411   3.279  17.208 -1.0268 -1.0930 -2.1284
15420TIP3   OH267750   3.395   2.314  14.338 -0.0630  0.7784  0.1719
15420TIP3    H167751   3.348   2.334  14.420 -0.1108  0.8851  0.1186
15420TIP3    H267752   3.358   2.231  14.309  0.4572  0.3837  0.6327
15421TIP3   OH267753   4.103   1.794   0.382 -1.0438  0.3116  0.0716
15421TIP3    H167754   4.049   1.828   0.310 -1.7472  0.1725  0.5291
15421TIP3    H267755   4.136   1.873   0.426  0.6313  0.4044 -1.3144
15422TIP3   OH267756   1.343   1.450   1.534  0.1356  0.0590 -0.1920
15422TIP3    H167757   1.265   1.499   1.511  0.2760  0.7379  0.7561
15422TIP3    H267758   1.309   1.366   1.567 -0.1506  0.0143 -0.5916
15423TIP3   OH267759   2.859   3.046  16.940  0.0494 -0.3903 -0.4808
15423TIP3    H167760   2.833   2.958  16.967  1.7257 -1.5200 -2.4431
15423TIP3    H267761   2.918   3.076  17.008 -0.9138 -0.5691  0.4455
15424TIP3   OH267762   2.526   1.270  14.184  0.4266 -0.2770 -0.1022
15424TIP3    H167763   2.556   1.246  14.272 -0.1973 -1.3221 -0.1722
15424TIP3    H267764   2.601   1.316  14.145  1.3226 -1.3366  0.3454
15425TIP3   OH267765   2.022   1.569   4.005  0.5728 -0.1175 -0.2533
15425TIP3    H167766   2.098   1.522   3.970  0.1760 -1.7691  1.0497
15425TIP3    H267767   2.047   1.593   4.094 -0.8059 -1.6556  0.5854
15426TIP3   OH267768   6.108   6.772   1.263 -0.6667 -0.2066  0.0938
15426TIP3    H167769   6.058   6.853   1.264 -0.2411  0.0536  0.7347
15426TIP3    H267770   6.097   6.736   1.351 -0.6491 -0.7151 -0.1091
15427TIP3   OH267771   0.483   4.156   5.910  0.4407 -0.1802  0.0874
15427TIP3    H167772   0.506   4.123   5.997  1.3368 -0.7674 -0.3705
15427TIP3    H267773   0.481   4.251   5.921 -0.6713 -0.2917  1.0428
15428TIP3   OH267774   3.311   4.078  14.080 -0.1561 -0.5604  1.0030
15428TIP3    H167775   3.335   3.996  14.124  1.0354 -0.9125 -0.2694
15428TIP3    H267776   3.272   4.132  14.149  0.7839 -1.4677  2.2593
15429TIP3   OH267777   3.681   1.848  16.067  0.0151  0.4343 -0.1203
15429TIP3    H167778   3.700   1.764  16.108  1.1193  0.6043 -0.2811
15429TIP3    H267779   3.750   1.860  16.002 -0.7117  0.9997 -0.7945
15430TIP3   OH267780   6.819   6.330  14.857  1.0185  0.3097  0.1441
15430TIP3    H167781   6.724   6.343  14.849  0.9819 -0.2693 -0.3568
15430TIP3    H267782   6.828   6.246  14.901  1.3019  0.5096  0.4736
15431TIP3   OH267783   2.565   0.678  15.956 -0.1465 -0.2159 -0.0870
15431TIP3    H167784   2.637   0.703  15.897 -0.3234 -2.1279 -1.1362
15431TIP3    H267785   2.488   0.675  15.899 -0.6051 -0.5696  0.5535
15432TIP3   OH267786   3.458   1.707  16.032  0.5151 -0.0792  0.3510
15432TIP3    H167787   3.478   1.631  15.977 -0.0891 -0.6463  0.9136
15432TIP3    H267788   3.543   1.747  16.049  0.8028 -0.4383 -0.2190
15433TIP3   OH267789   0.346   2.142   3.604  0.5279 -0.0685  0.4453
15433TIP3    H167790   0.287   2.147   3.529 -0.5652  0.5292  1.3259
15433TIP3    H267791   0.433   2.152   3.566  0.0610 -0.8320 -0.8578
15434TIP3   OH267792   5.824   0.613   3.964 -0.0671  0.2723  0.8151
15434TIP3    H167793   5.865   0.530   3.938  0.7870  0.9952 -0.2177
15434TIP3    H267794   5.732   0.591   3.980 -0.3522 -0.4702 -1.6382
15435TIP3   OH267795   4.485   5.226   2.757  1.1422  0.3678 -0.0963
15435TIP3    H167796   4.418   5.229   2.825  0.3651  1.8070 -0.9178
15435TIP3    H267797   4.566   5.204   2.804  0.3569 -0.0562  1.0802
15436TIP3   OH267798   2.751   0.149  15.419 -0.1638  0.1490 -0.4334
15436TIP3    H167799   2.797   0.071  15.451 -2.2767 -1.4966 -1.2505
15436TIP3    H267800   2.797   0.173  15.338  1.6584  0.9230  0.7889
15437TIP3   OH267801   0.161   1.906  15.621 -0.2373  0.3133 -0.0745
15437TIP3    H167802   0.149   2.000  15.629 -0.1852  0.5316 -2.1216
15437TIP3    H267803   0.108   1.868  15.691 -1.1932  1.8120  0.0303
15438TIP3   OH267804   1.365   5.727  16.688  0.2024  0.7149 -0.7115
15438TIP3    H167805   1.302   5.675  16.637 -1.1366  0.6459  0.9870
15438TIP3    H267806   1.372   5.809  16.639 -2.5281  1.4042 -0.0386
15439TIP3   OH267807   5.970   4.596   0.311  0.0502 -0.3949 -0.9713
15439TIP3    H167808   5.903   4.568   0.374 -1.0782  0.9439 -1.5530
15439TIP3    H267809   5.959   4.691   0.305  2.6646 -0.0032 -0.3484
15440TIP3   OH267810   4.184   0.981   4.499  0.5956 -0.2031  0.0933
15440TIP3    H167811   4.181   1.048   4.566  0.8746 -0.0230 -0.0726
15440TIP3    H267812   4.113   1.003   4.439  0.3569 -0.3543  0.3211
15441TIP3   OH267813   4.452   0.592  12.900 -0.1296 -0.4088 -0.1159
15441TIP3    H167814   4.509   0.596  12.977  0.0342 -2.5456 -0.0899
15441TIP3    H267815   4.507   0.555  12.831 -0.9709 -0.8658 -0.5588
15442TIP3   OH267816   6.209   2.917   5.898  0.0673  0.2951  0.1356
15442TIP3    H167817   6.293   2.935   5.856  0.1254 -1.0862 -0.3999
15442TIP3    H267818   6.232   2.871   5.979 -0.1978 -1.4646 -0.7591
15443TIP3   OH267819   0.840   4.882  11.706  0.2158 -0.3941  0.5491
15443TIP3    H167820   0.807   4.895  11.794  1.0258 -3.3113  1.3561
15443TIP3    H267821   0.927   4.921  11.707 -0.3171  0.8115  0.6063
15444TIP3   OH267822   6.100   5.254  14.267 -0.0884  0.2354  0.2568
15444TIP3    H167823   6.133   5.338  14.300 -0.4355 -0.3276  2.0622
15444TIP3    H267824   6.169   5.223  14.208 -0.3478  2.2011 -1.1571
15445TIP3   OH267825   6.748   6.470   5.408 -0.0578  0.0331  0.2570
15445TIP3    H167826   6.712   6.544   5.360 -0.7838  2.1736  3.8669
15445TIP3    H267827   6.681   6.402   5.404 -0.4050  0.4584 -1.0884
15446TIP3   OH267828   4.880   5.415  12.024  0.3843  0.2043 -0.1554
15446TIP3    H167829   4.956   5.449  11.977 -0.0387  2.9363  1.0264
15446TIP3    H267830   4.806   5.466  11.990 -0.5078 -0.5355  0.6521
15447TIP3   OH267831   3.483   5.463  15.150 -0.0068 -0.3102  0.6288
15447TIP3    H167832   3.577   5.450  15.166 -0.1462 -2.7044 -0.3120
15447TIP3    H267833   3.450   5.375  15.131 -2.2013  0.7105 -0.3671
15448TIP3   OH267834   5.773   1.746  16.259  0.1056  0.2025 -0.5238
15448TIP3    H167835   5.760   1.656  16.287 -2.3924  0.7839  0.3805
15448TIP3    H267836   5.729   1.752  16.174  1.3391  0.2733 -1.1658
15449TIP3   OH267837   6.357   2.459  16.741  0.4904  0.3940  0.1029
15449TIP3    H167838   6.329   2.427  16.827 -2.1013 -0.1277 -0.9211
15449TIP3    H267839   6.297   2.530  16.720  1.5585  1.0043 -0.9995
15450TIP3   OH267840   6.673   6.730   0.059  0.3196  0.2754  0.0916
15450TIP3    H167841   6.677   6.646   0.013  3.1937 -0.3636  1.3640
15450TIP3    H267842   6.710   6.793  -0.003  0.6176  0.1098  0.0985
15451TIP3   OH267843   2.700   5.726   5.825  0.2701  0.9041  0.3400
15451TIP3    H167844   2.741   5.796   5.877  1.7682  0.7527 -0.5860
15451TIP3    H267845   2.774   5.671   5.798 -0.2342  1.8679 -3.2641
15452TIP3   OH267846   6.446   6.240  12.072 -0.0453 -0.1589 -0.0760
15452TIP3    H167847   6.395   6.305  12.120  0.4174 -1.6114  2.4312
15452TIP3    H267848   6.537   6.259  12.095  0.3583  0.3637 -1.9677
15453TIP3   OH267849   3.700   0.426   0.546 -1.2894 -0.0217 -0.2000
15453TIP3    H167850   3.705   0.516   0.578 -1.4761 -0.4316  1.0203
15453TIP3    H267851   3.710   0.434   0.451 -0.2503  1.1905 -0.0153
15454TIP3   OH267852   5.132   4.771   2.879  0.1244 -0.4553  0.2816
15454TIP3    H167853   5.208   4.734   2.833 -0.3171 -1.1615  0.1194
15454TIP3    H267854   5.057   4.726   2.841 -0.3871  0.2645  0.4225
15455TIP3   OH267855   3.721   3.132  11.116 -0.0428 -0.3030 -0.5683
15455TIP3    H167856   3.773   3.101  11.042  0.7758  0.4886 -0.3446
15455TIP3    H267857   3.638   3.161  11.078 -0.1796 -1.2305 -0.9801
15456TIP3   OH267858   2.956   1.232  16.128  0.2737 -0.0645  0.0752
15456TIP3    H167859   3.009   1.300  16.169  0.7894 -1.1198  1.1981
15456TIP3    H267860   2.954   1.256  16.035  0.4902  1.4380  0.4420
15457TIP3   OH267861   3.255   0.544  16.901 -0.3977 -0.0969  0.6648
15457TIP3    H167862   3.216   0.599  16.833  1.2524 -0.6025 -0.7509
15457TIP3    H267863   3.303   0.604  16.958 -1.8798  0.3436  1.4495
15458TIP3   OH267864   6.399   0.581  14.440  0.0807  0.1295 -0.1416
15458TIP3    H167865   6.317   0.537  14.464  0.0338 -0.7041 -1.8407
15458TIP3    H267866   6.463   0.548  14.503 -0.7596  0.4268  0.8992
15459TIP3   OH267867   4.066   1.619  11.102 -0.8478 -0.4761 -0.0335
15459TIP3    H167868   4.138   1.570  11.142  0.8792  0.6222 -1.6871
15459TIP3    H267869   4.000   1.553  11.082  0.2457 -1.7187  0.3629
15460TIP3   OH267870   2.224   1.373  15.495  0.3219 -0.4309  0.0999
15460TIP3    H167871   2.247   1.335  15.410  0.1879 -1.3220  0.4565
15460TIP3    H267872   2.130   1.392  15.489  0.6602  1.0401 -0.5339
15461TIP3   OH267873   3.633   4.733   2.879 -0.1636 -0.3185  0.4302
15461TIP3    H167874   3.593   4.785   2.809 -0.2658  1.0415  1.4881
15461TIP3    H267875   3.705   4.686   2.835 -0.3660  0.3374 -0.6306
15462TIP3   OH267876   2.185   0.404   4.555 -0.1615  0.0033 -0.2175
15462TIP3    H167877   2.117   0.337   4.547  0.0147 -0.1765 -0.2254
15462TIP3    H267878   2.200   0.435   4.465 -1.5394  1.3615 -0.0011
15463TIP3   OH267879   1.947   4.581  16.375 -0.2734  0.2362  0.2396
15463TIP3    H167880   1.990   4.644  16.317 -1.4520  0.8683  0.0400
15463TIP3    H267881   1.986   4.598  16.461  0.1789  0.5155 -0.0143
15464TIP3   OH267882   4.810   3.184   0.061 -0.3193 -0.3167 -0.2634
15464TIP3    H167883   4.734   3.242   0.058  0.3974  0.6520  0.0308
15464TIP3    H267884   4.879   3.232   0.016  0.1818 -1.1111 -0.3581
15465TIP3   OH267885   6.455   2.320   4.372 -0.1265 -0.1366 -0.4208
15465TIP3    H167886   6.459   2.224   4.368  1.0393 -0.0826 -0.6197
15465TIP3    H267887   6.545   2.349   4.356 -1.0289  1.1258 -3.4582
15466TIP3   OH267888   3.997   4.879  10.265 -0.2331 -0.2360 -0.2433
15466TIP3    H167889   4.039   4.826  10.197  0.4005 -1.9563  1.4342
15466TIP3    H267890   4.069   4.914  10.317 -0.7495 -1.9727  1.7498
15467TIP3   OH267891   1.211   1.493  10.910  0.0134  0.2727 -0.1508
15467TIP3    H167892   1.170   1.495  10.997 -0.8079  0.1296 -0.5307
15467TIP3    H267893   1.255   1.577  10.902  0.5972  0.0424  0.6521
15468TIP3   OH267894   2.221   6.210   5.170  0.4939  0.1976 -0.1645
15468TIP3    H167895   2.132   6.237   5.190  0.7668  0.1680  1.1399
15468TIP3    H267896   2.213   6.120   5.139  0.4521 -1.3473  4.0052
15469TIP3   OH267897   5.618   6.081   3.814 -0.2037  0.3520  0.4763
15469TIP3    H167898   5.590   6.004   3.863 -0.2854 -0.4083 -0.7429
15469TIP3    H267899   5.695   6.113   3.861 -0.2313 -0.4093  1.0468
15470TIP3   OH267900   1.777   3.726   4.554 -0.3180 -0.6146 -0.0616
15470TIP3    H167901   1.686   3.702   4.566 -1.9035  3.9334 -1.8038
15470TIP3    H267902   1.793   3.717   4.460  0.9721 -1.1221  0.1891
15471TIP3   OH267903   6.306   2.976  16.542 -0.3624  0.5651  0.2871
15471TIP3    H167904   6.244   2.917  16.585 -0.3368  1.3696  1.4255
15471TIP3    H267905   6.379   2.984  16.604  0.1792  0.8445 -0.3828
15472TIP3   OH267906   6.484   5.082  17.123 -0.9279 -0.4242  0.6247
15472TIP3    H167907   6.508   5.094  17.214 -1.1218  0.0475  0.6125
15472TIP3    H267908   6.401   5.127  17.113 -0.4953  0.2576  0.0100
15473TIP3   OH267909   3.816   6.184  16.235  0.0883 -0.1546  0.4488
15473TIP3    H167910   3.815   6.278  16.250 -0.7915 -0.0038 -0.5435
15473TIP3    H267911   3.727   6.155  16.253  0.5291 -0.9344  1.4997
15474TIP3   OH267912   6.604   6.313   4.597  0.6079 -0.3842 -0.0674
15474TIP3    H167913   6.531   6.364   4.634  1.9307  1.2154  0.3878
15474TIP3    H267914   6.647   6.373   4.537  1.8751 -1.1529  0.0607
15475TIP3   OH267915   4.505   4.239   2.052  0.4988 -0.0265  0.0863
15475TIP3    H167916   4.467   4.175   1.993  0.1065  1.2215 -1.0313
15475TIP3    H267917   4.495   4.201   2.139  1.3067 -1.9901 -0.6569
15476TIP3   OH267918   5.326   3.178  14.345 -0.3306 -0.5981  0.0793
15476TIP3    H167919   5.294   3.186  14.435 -0.5083  0.0858 -0.0494
15476TIP3    H267920   5.402   3.121  14.353  0.7257  0.8886  0.9221
15477TIP3   OH267921   6.210   0.109   2.909 -0.3336  0.4814 -0.6378
15477TIP3    H167922   6.267   0.182   2.936 -0.9220  0.6744  0.0885
15477TIP3    H267923   6.259   0.030   2.934  1.0037  0.5707 -2.8171
15478TIP3   OH267924   1.264   6.383  13.208  0.5812  0.6008 -0.0051
15478TIP3    H167925   1.274   6.359  13.116  0.0515  2.3850 -0.5417
15478TIP3    H267926   1.212   6.463  13.207 -0.3253  0.0712  1.9093
15479TIP3   OH267927   3.360   2.839  16.222  0.5091 -0.0104  0.4315
15479TIP3    H167928   3.408   2.873  16.147  0.3051 -0.8068 -0.0631
15479TIP3    H267929   3.419   2.853  16.296  1.7005 -1.3944 -0.2436
15480TIP3   OH267930   3.310   3.970  15.956  0.0607  0.3780  0.3276
15480TIP3    H167931   3.328   4.010  15.871 -0.4656 -0.9917 -0.4459
15480TIP3    H267932   3.355   3.886  15.954  0.8955  0.7694  1.8151
15481TIP3   OH267933   4.229   5.799  15.022  0.2094  0.2269 -0.2586
15481TIP3    H167934   4.292   5.727  15.026 -1.3096 -1.1055  0.6015
15481TIP3    H267935   4.250   5.846  14.942  0.0830 -2.2820 -1.8073
15482TIP3   OH267936   6.506   4.166  17.120 -0.1790 -0.1225  0.1034
15482TIP3    H167937   6.448   4.242  17.122  0.5847  0.4811 -0.1543
15482TIP3    H267938   6.464   4.104  17.061 -0.2027  0.6069 -0.6591
15483TIP3   OH267939   0.291   2.747  11.442 -0.2544 -0.4941 -0.3479
15483TIP3    H167940   0.350   2.739  11.518  0.2323  1.1466 -0.5355
15483TIP3    H267941   0.234   2.670  11.449 -0.7394  0.0306  2.1266
15484TIP3   OH267942   1.396   0.174  14.780  0.4751  0.1970  0.3309
15484TIP3    H167943   1.374   0.252  14.729  2.6390  1.5684  1.4442
15484TIP3    H267944   1.379   0.199  14.871  0.9333 -0.7271  0.6718
15485TIP3   OH267945   5.977   2.123   1.694 -0.1123 -0.5503 -0.0678
15485TIP3    H167946   5.967   2.057   1.762  0.7192 -0.3478  0.2660
15485TIP3    H267947   5.987   2.074   1.613 -0.8416 -0.8006 -0.0023
15486TIP3   OH267948   4.273   5.043  16.583  0.3985  0.2255 -0.2304
15486TIP3    H167949   4.306   5.086  16.661 -0.8917 -0.4978  0.7435
15486TIP3    H267950   4.345   5.046  16.521  1.6495  0.2771  1.2045
15487TIP3   OH267951   4.686   6.154  13.508 -0.1091 -0.1346 -0.1057
15487TIP3    H167952   4.630   6.078  13.523 -0.4462  0.2373  0.5480
15487TIP3    H267953   4.753   6.148  13.576 -0.2374  0.2453  0.0568
15488TIP3   OH267954   5.686   1.858   3.430 -0.6658 -0.1556 -0.4586
15488TIP3    H167955   5.663   1.874   3.339  3.2422 -1.8260 -1.8677
15488TIP3    H267956   5.734   1.937   3.457  0.0984 -0.5798 -0.5686
15489TIP3   OH267957   4.270   6.718  15.581 -0.4885 -0.7652 -0.3192
15489TIP3    H167958   4.281   6.813  15.583 -1.9069 -0.5633 -1.5537
15489TIP3    H267959   4.346   6.686  15.534 -0.9349 -0.0844 -1.5146
15490TIP3   OH267960   3.719   5.905   1.782  0.0649  0.2766  0.1783
15490TIP3    H167961   3.755   5.898   1.693 -0.6535 -1.7549  0.0093
15490TIP3    H267962   3.640   5.958   1.771  0.1987  0.3749 -0.3423
15491TIP3   OH267963   4.130   4.700  13.398 -0.5018 -0.4949 -0.3297
15491TIP3    H167964   4.122   4.788  13.436  2.2767 -0.0188 -0.7076
15491TIP3    H267965   4.077   4.704  13.318 -0.5443  0.8029 -0.2590
15492TIP3   OH267966   2.305   6.518   2.653  0.4900 -0.1178  0.3430
15492TIP3    H167967   2.291   6.500   2.560  0.9884  0.0297  0.2401
15492TIP3    H267968   2.229   6.570   2.679  0.1883 -0.4303  0.0987
15493TIP3   OH267969   4.681   4.115  14.080  0.0050  0.2828  0.2497
15493TIP3    H167970   4.732   4.194  14.099 -0.4717  0.1990  1.9406
15493TIP3    H267971   4.671   4.072  14.165 -0.3028 -1.2568 -0.5602
15494TIP3   OH267972   3.200   5.378   2.753 -0.4139  0.2901 -0.4916
15494TIP3    H167973   3.200   5.400   2.660 -0.5384 -2.0367 -1.0913
15494TIP3    H267974   3.107   5.363   2.773 -0.3234  0.1593 -0.1717
15495TIP3   OH267975   2.416   2.441   3.230  0.2869 -0.2180 -0.2571
15495TIP3    H167976   2.333   2.393   3.232  0.5754 -0.7387 -0.9211
15495TIP3    H267977   2.420   2.483   3.316 -1.2205  0.7485 -0.6328
15496TIP3   OH267978   0.769   5.837   3.536 -0.8272  0.1369  0.1253
15496TIP3    H167979   0.687   5.811   3.493 -0.5324 -1.9414  0.7553
15496TIP3    H267980   0.742   5.861   3.625 -0.7134 -0.9261  0.4528
15497TIP3   OH267981   4.536   2.204   4.476  0.2453 -0.5399  0.0108
15497TIP3    H167982   4.565   2.282   4.523  1.2412 -0.5503 -0.5636
15497TIP3    H267983   4.615   2.149   4.471  0.0565 -0.7104 -1.3080
15498TIP3   OH267984   0.664   5.933  14.208 -0.2566 -0.1470 -0.4298
15498TIP3    H167985   0.673   5.971  14.296 -0.9383  0.7548 -0.7483
15498TIP3    H267986   0.596   5.867  14.217 -0.1682 -0.2121 -0.2322
15499TIP3   OH267987   2.874   1.309   1.835 -0.8883  0.5384  0.2001
15499TIP3    H167988   2.903   1.370   1.903 -0.1213  1.7773 -1.2156
15499TIP3    H267989   2.952   1.256   1.816 -1.4075 -0.5584  1.0489
15500TIP3   OH267990   1.115   5.850  12.657 -0.3209 -0.3930  0.0895
15500TIP3    H167991   1.070   5.802  12.588 -0.9941  0.0683  0.2062
15500TIP3    H267992   1.154   5.925  12.613  3.2240 -2.5763 -0.6298
15501TIP3   OH267993   2.848   4.769   1.163 -0.1122  0.4274 -0.2233
15501TIP3    H167994   2.759   4.788   1.195  0.0296  0.6562  0.0402
15501TIP3    H267995   2.855   4.818   1.081 -0.6147 -0.4694 -0.8188
15502TIP3   OH267996   4.805   3.210   0.653  0.6891  0.0018  0.0468
15502TIP3    H167997   4.803   3.126   0.606 -0.3448 -0.6316  1.1868
15502TIP3    H267998   4.768   3.190   0.739  1.2273  1.4533  0.6278
15503TIP3   OH267999   1.109   3.525  15.604  0.3218 -0.8542  0.4354
15503TIP3    H168000   1.181   3.500  15.545  0.6885  0.4820  0.3035
15503TIP3    H268001   1.099   3.619  15.591 -2.6389 -1.3069 -0.8329
15504TIP3   OH268002   6.282   2.300   5.414 -0.0246  0.4273 -0.3229
15504TIP3    H168003   6.351   2.317   5.478 -0.5166  0.7245  0.1328
15504TIP3    H268004   6.321   2.325   5.330  0.4883  0.4095 -0.0958
15505TIP3   OH268005   2.899   0.615   0.720 -0.5794  0.2167  0.1409
15505TIP3    H168006   2.961   0.670   0.671 -2.1955  1.7271 -0.2439
15505TIP3    H268007   2.849   0.570   0.653 -0.1308 -0.7637  0.4565
15506TIP3   OH268008   0.434   1.078  12.271 -0.1038  0.7108  0.0021
15506TIP3    H168009   0.359   1.020  12.258 -0.2775  1.0013 -0.2893
15506TIP3    H268010   0.397   1.162  12.297  0.2241  0.2863  1.8924
15507TIP3   OH268011   0.778   1.639  14.316  0.4798  0.7285  0.3787
15507TIP3    H168012   0.862   1.659  14.274  0.5034  0.3079  0.2239
15507TIP3    H268013   0.754   1.720  14.360  0.4199  1.2082 -0.5100
15508TIP3   OH268014   3.743   4.186   2.524  0.4577 -0.0528 -0.2804
15508TIP3    H168015   3.812   4.151   2.468 -0.2071 -1.6785 -0.1098
15508TIP3    H268016   3.785   4.195   2.610  1.0548  1.0435 -0.6686
15509TIP3   OH268017   4.492   3.132  16.975  0.6031 -0.0082 -0.1124
15509TIP3    H168018   4.484   3.177  17.060  2.1905  0.5694 -0.2593
15509TIP3    H268019   4.479   3.040  16.995 -1.0652  0.3278  0.4450
15510TIP3   OH268020   5.360   3.225   4.973  0.2485  0.3773  0.2313
15510TIP3    H168021   5.331   3.305   4.930  2.6762  1.4175  0.4086
15510TIP3    H268022   5.414   3.256   5.046  1.2015 -1.4048  0.3203
15511TIP3   OH268023   6.008   2.405  11.760 -0.1696  0.3312 -0.0638
15511TIP3    H168024   6.041   2.486  11.720 -0.1081 -0.6677 -2.1413
15511TIP3    H268025   5.967   2.434  11.841 -0.3255  2.4826 -0.8539
15512TIP3   OH268026   5.044   5.129   5.591  0.2018 -0.7593 -0.7582
15512TIP3    H168027   4.967   5.184   5.605  0.8183  0.5218 -2.2335
15512TIP3    H268028   5.010   5.040   5.584 -0.9177 -0.4512  0.6568
15513TIP3   OH268029   3.396   0.684  13.496 -0.1575  0.5618  0.3886
15513TIP3    H168030   3.426   0.597  13.522 -1.3594  0.0754  0.1774
15513TIP3    H268031   3.472   0.741  13.510  1.1798 -0.8080 -1.1145
15514TIP3   OH268032   3.871   5.349  10.668  0.8382  0.1470 -0.3214
15514TIP3    H168033   3.830   5.411  10.729  0.9819 -1.1319  1.1030
15514TIP3    H268034   3.952   5.392  10.641  1.0436  0.4926  0.8116
15515TIP3   OH268035   3.024   3.430  14.849 -0.1209 -0.7617 -0.2212
15515TIP3    H168036   2.964   3.376  14.900  0.7478 -0.7730  0.8249
15515TIP3    H268037   2.971   3.467  14.779 -0.6847 -3.1700 -1.1199
15516TIP3   OH268038   5.025   3.119   0.875  0.0035  0.0722 -1.1244
15516TIP3    H168039   5.002   3.042   0.822 -1.7568 -0.4040  0.2673
15516TIP3    H268040   4.967   3.114   0.951  2.3822  0.7875  0.8269
15517TIP3   OH268041   0.375   1.521  10.920 -0.2670 -0.5020  0.0653
15517TIP3    H168042   0.421   1.584  10.976 -0.8833 -0.6554  0.7495
15517TIP3    H268043   0.317   1.575  10.867  0.2304 -0.3667 -0.3471
15518TIP3   OH268044   3.718   0.896  15.406  0.4219  0.3783  0.2225
15518TIP3    H168045   3.804   0.874  15.372  0.8576  0.7304  1.0872
15518TIP3    H268046   3.658   0.879  15.333  1.2608  0.5027 -0.4987
15519TIP3   OH268047   0.194   5.071  14.645  0.5446  0.2489  0.8654
15519TIP3    H168048   0.215   5.131  14.717  1.8588  1.3515 -0.4308
15519TIP3    H268049   0.138   5.004  14.686 -0.1866  1.8403  2.5191
15520TIP3   OH268050   5.240   6.335   5.240  0.5753  0.0164 -0.4733
15520TIP3    H168051   5.280   6.315   5.325  0.3180  0.6176 -0.2104
15520TIP3    H268052   5.172   6.268   5.229  0.7641 -0.2020 -0.3140
15521TIP3   OH268053   2.265   5.440  16.241 -0.6806 -0.5027  0.3735
15521TIP3    H168054   2.188   5.478  16.284 -1.3359 -1.9020  0.4651
15521TIP3    H268055   2.308   5.389  16.310  1.2449  1.5528  0.7540
15522TIP3   OH268056   1.430   6.026  14.130  0.1949  0.0136 -0.6301
15522TIP3    H168057   1.496   6.021  14.061  1.1787  0.1094  0.3020
15522TIP3    H268058   1.457   6.099  14.185 -0.7233  0.0958 -0.2663
15523TIP3   OH268059   0.181   0.597   2.282 -0.1407 -0.0199  0.1048
15523TIP3    H168060   0.250   0.609   2.217 -0.2023 -0.1568  0.0135
15523TIP3    H268061   0.100   0.617   2.235 -0.0361  1.8226  0.6688
15524TIP3   OH268062   4.165   2.263   4.820  0.4549  0.3548  0.6210
15524TIP3    H168063   4.189   2.205   4.748  0.8043  0.7650  0.4059
15524TIP3    H268064   4.158   2.206   4.896 -0.5202 -0.1851  0.1414
15525TIP3   OH268065   6.124   3.116   6.578  0.1623  0.5013  0.2974
15525TIP3    H168066   6.154   3.204   6.598  1.0343 -0.4177  3.2604
15525TIP3    H268067   6.198   3.059   6.600 -1.3165 -1.1989  1.0438
15526TIP3   OH268068   5.579   0.127   5.469  0.0834  0.5248  0.5811
15526TIP3    H168069   5.596   0.188   5.397  1.0517 -0.0333  0.3323
15526TIP3    H268070   5.484   0.124   5.475  0.0171  2.0117  0.5543
15527TIP3   OH268071   6.626   2.710   0.193  0.3872  0.8567 -0.0671
15527TIP3    H168072   6.601   2.800   0.209  1.1827  1.1238 -0.2796
15527TIP3    H268073   6.705   2.716   0.138  1.2812  0.0839  1.0842
15528TIP3   OH268074   3.082   5.264   5.650 -0.0615  0.0034 -0.0698
15528TIP3    H168075   3.162   5.313   5.672 -0.3749  0.7583 -0.5802
15528TIP3    H268076   3.071   5.202   5.722  2.4458 -1.9493 -1.2616
15529TIP3   OH268077   6.609   1.789  16.410  0.3771 -0.7160  0.1062
15529TIP3    H168078   6.614   1.799  16.315 -1.9379 -0.8622 -0.0469
15529TIP3    H268079   6.574   1.701  16.424  1.0080 -0.8194  1.1189
15530TIP3   OH268080   4.155   2.667   0.666  0.2200 -0.1576 -0.1484
15530TIP3    H168081   4.080   2.614   0.693  0.8019  0.6189  3.2094
15530TIP3    H268082   4.139   2.753   0.704  1.7871  0.5976 -1.1470
15531TIP3   OH268083   6.211   1.729  14.363 -0.3518 -0.3888 -0.4312
15531TIP3    H168084   6.178   1.729  14.273  1.0150 -0.0196 -0.9333
15531TIP3    H268085   6.291   1.678  14.360  0.3683  0.6746  0.3260
15532TIP3   OH268086   1.024   3.088   0.385  0.1613 -0.6191  0.2788
15532TIP3    H168087   1.047   3.139   0.308 -0.4480 -2.6330 -1.2768
15532TIP3    H268088   1.090   3.113   0.450  2.4748 -1.0071 -1.8191
15533TIP3   OH268089   3.471   0.829   4.120 -0.0268  0.1159  0.0649
15533TIP3    H168090   3.413   0.883   4.173  0.1678  0.6854 -0.3033
15533TIP3    H268091   3.552   0.879   4.113  0.2721 -0.3667 -0.0024
15534TIP3   OH268092   3.259   1.314  15.116  0.8107  0.6789 -0.2908
15534TIP3    H168093   3.240   1.398  15.074  2.7163  0.8973 -0.7387
15534TIP3    H268094   3.231   1.248  15.053 -0.3444  0.9606 -0.0930
15535TIP3   OH268095   4.959   5.807   0.360 -0.2522  0.5027  0.0197
15535TIP3    H168096   4.876   5.792   0.405  0.2977 -1.0129  0.5922
15535TIP3    H268097   4.945   5.771   0.273 -0.2512  0.3847  0.0674
15536TIP3   OH268098   5.936   0.342  14.432 -0.2749  0.2786 -0.0878
15536TIP3    H168099   5.918   0.422  14.383  0.4361  0.9498  0.7185
15536TIP3    H268100   5.892   0.273  14.384  0.0701  0.9879 -1.4279
15537TIP3   OH268101   0.477   1.346   5.796  0.0346  0.0048  0.2471
15537TIP3    H168102   0.527   1.309   5.869 -1.6208 -2.3070  0.2913
15537TIP3    H268103   0.542   1.363   5.728  1.5185  1.6861  2.0366
15538TIP3   OH268104   5.594   1.941   2.659 -0.0730 -0.1735  0.0652
15538TIP3    H168105   5.650   2.018   2.668 -0.9525  0.5646 -0.6881
15538TIP3    H268106   5.520   1.959   2.716 -0.2586 -0.4899 -0.0776
15539TIP3   OH268107   6.393   0.780   1.971 -0.3500 -0.9225  0.3216
15539TIP3    H168108   6.305   0.758   1.941  0.5974 -3.0234 -0.9701
15539TIP3    H268109   6.413   0.863   1.927 -0.8025 -1.5925 -1.1548
15540TIP3   OH268110   2.870   1.597   0.003 -0.6405  0.0944 -0.1564
15540TIP3    H168111   2.868   1.556   0.090  0.4883  0.3249 -0.0190
15540TIP3    H268112   2.914   1.533  -0.053  0.1884  0.6829 -0.1740
15541TIP3   OH268113   6.091   3.775  10.414 -0.3597  0.6024  0.0837
15541TIP3    H168114   6.005   3.789  10.375  0.2261 -0.0235 -1.4686
15541TIP3    H268115   6.099   3.680  10.422 -0.6883  0.7190  2.2774
15542TIP3   OH268116   2.745   1.852  12.094 -0.5322  0.0252 -0.4252
15542TIP3    H168117   2.659   1.811  12.083 -0.4468 -0.6862  1.4910
15542TIP3    H268118   2.763   1.847  12.187  0.6184  2.1997 -0.4899
15543TIP3   OH268119   4.475   1.712   3.054 -0.8348  0.0903 -0.1048
15543TIP3    H168120   4.488   1.623   3.086 -1.7401 -0.2696 -0.6994
15543TIP3    H268121   4.389   1.737   3.086  1.2185  2.5163  3.9518
15544TIP3   OH268122   1.605   3.582  15.284 -0.0413  0.3038  0.0567
15544TIP3    H168123   1.643   3.522  15.219  1.4934  1.1170  0.1723
15544TIP3    H268124   1.681   3.617  15.331 -0.8633  2.5874 -0.2354
15545TIP3   OH268125   2.750   5.574   4.266 -0.0024  0.0937  0.0534
15545TIP3    H168126   2.749   5.637   4.338 -0.9176 -0.2692  0.3683
15545TIP3    H268127   2.674   5.518   4.282  1.6436 -2.0285  0.5941
15546TIP3   OH268128   0.356   0.873  16.414  0.6045 -0.2016 -0.4032
15546TIP3    H168129   0.414   0.889  16.340 -0.9057 -1.2622 -1.8579
15546TIP3    H268130   0.391   0.793  16.455  0.0036 -1.0354 -1.4802
15547TIP3   OH268131   1.382   0.549   5.333 -0.0320  0.1797 -0.1396
15547TIP3    H168132   1.468   0.509   5.316  0.8141  1.7968  0.2607
15547TIP3    H268133   1.402   0.630   5.380 -1.7769  0.6609 -0.1979
15548TIP3   OH268134   3.228   2.757  12.826  0.1089  0.4777  0.2696
15548TIP3    H168135   3.196   2.758  12.735 -1.1881  1.1563  0.7180
15548TIP3    H268136   3.322   2.769  12.817  0.0596  0.0531 -1.0201
15549TIP3   OH268137   0.559   0.538   6.688  0.0977 -0.5723  0.1410
15549TIP3    H168138   0.484   0.503   6.638 -0.9150  1.4727  0.1927
15549TIP3    H268139   0.613   0.581   6.623 -0.0471  0.1143  0.4744
15550TIP3   OH268140   0.172   3.024  13.784  0.2189  0.3899 -0.9929
15550TIP3    H168141   0.155   2.991  13.872  0.2489  1.3042 -0.6422
15550TIP3    H268142   0.115   2.971  13.728 -0.4386  0.3879 -0.3313
15551TIP3   OH268143   6.319   0.402  13.485 -0.1989  0.3299 -0.8277
15551TIP3    H168144   6.236   0.410  13.533  1.5982  3.2903  1.9807
15551TIP3    H268145   6.350   0.314  13.505 -1.2125  0.2665  0.5548
15552TIP3   OH268146   4.479   1.335   1.070  0.3397 -0.4737 -0.1094
15552TIP3    H168147   4.440   1.307   0.987 -1.4781  1.5804  0.0031
15552TIP3    H268148   4.428   1.291   1.137  1.7019 -1.9996 -0.0336
15553TIP3   OH268149   2.002   2.835  14.581 -0.3404 -0.5479  0.1034
15553TIP3    H168150   2.047   2.757  14.612 -0.2075 -0.2072  0.7948
15553TIP3    H268151   2.048   2.908  14.624 -0.6831 -0.1175 -0.2504
15554TIP3   OH268152   4.200   6.375  16.503  0.1708  0.2401  0.3839
15554TIP3    H168153   4.137   6.304  16.519 -0.7276  1.1283  0.8619
15554TIP3    H268154   4.153   6.455  16.529  0.7301  1.1403 -1.2848
15555TIP3   OH268155   1.373   4.502   2.362  0.3596  0.1465  0.4769
15555TIP3    H168156   1.358   4.484   2.269 -2.3543  1.2619  0.6638
15555TIP3    H268157   1.359   4.418   2.405 -2.3418  0.4408  0.2697
15556TIP3   OH268158   1.734   1.428  11.722  0.0985 -0.1384 -0.7224
15556TIP3    H168159   1.746   1.500  11.784  2.0645  0.0632 -1.2851
15556TIP3    H268160   1.695   1.358  11.774 -2.8698  1.6658 -0.4118
15557TIP3   OH268161   6.354   0.119  12.888 -0.5799 -0.1204 -0.1934
15557TIP3    H168162   6.362   0.120  12.984 -1.4922  0.4964 -0.1166
15557TIP3    H268163   6.336   0.028  12.866  1.7928 -0.6762  0.0263
15558TIP3   OH268164   3.226   3.458  15.208 -0.5833 -0.1804  0.1258
15558TIP3    H168165   3.146   3.438  15.257 -0.1938 -0.1393  0.7842
15558TIP3    H268166   3.245   3.549  15.230  0.5685 -0.6884  1.3040
15559TIP3   OH268167   1.330   2.353   6.844  0.5850 -0.1668 -0.2921
15559TIP3    H168168   1.240   2.331   6.868 -0.9540  5.1591 -0.4957
15559TIP3    H268169   1.323   2.382   6.752  3.3694 -3.9518 -1.7947
15560TIP3   OH268170   6.666   2.749  16.629 -0.1865 -0.1293  0.8102
15560TIP3    H168171   6.645   2.832  16.672  2.0520 -0.0718  1.9088
15560TIP3    H268172   6.706   2.775  16.546  0.9043 -0.0677  1.3430
15561TIP3   OH268173   6.133   5.161   1.950  0.0917 -0.3600 -0.6773
15561TIP3    H168174   6.108   5.069   1.949 -1.5101  0.0722 -1.6791
15561TIP3    H268175   6.101   5.194   2.034  0.3761 -0.6355 -0.4600
15562TIP3   OH268176   6.025   4.962  16.042  0.5469  0.6833 -0.3535
15562TIP3    H168177   5.994   4.971  16.132 -2.1870 -0.0868 -1.1720
15562TIP3    H268178   6.117   4.989  16.045  0.1439  1.8763  2.4119
15563TIP3   OH268179   0.623   0.623   1.781  0.5986 -0.9453 -0.2650
15563TIP3    H168180   0.692   0.639   1.717  0.2409 -1.7241 -0.8552
15563TIP3    H268181   0.555   0.687   1.760  0.4257 -1.2856 -0.7485
15564TIP3   OH268182   6.219   0.244   3.434 -0.4756  0.2154  0.0289
15564TIP3    H168183   6.293   0.186   3.446 -0.5261  0.3186  0.8609
15564TIP3    H268184   6.237   0.318   3.492 -1.6882 -0.2075  0.9673
15565TIP3   OH268185   1.569   6.550   6.218  0.5613 -0.2954 -0.1548
15565TIP3    H168186   1.568   6.499   6.299 -0.0749 -0.6982 -0.4067
15565TIP3    H268187   1.594   6.638   6.245  2.2259 -0.8645  0.2157
15566TIP3   OH268188   3.047   4.578  13.485  0.1080 -0.1486  0.3303
15566TIP3    H168189   2.992   4.602  13.560 -1.4816  2.4651 -1.5734
15566TIP3    H268190   3.119   4.642  13.488  0.3476 -0.4000 -0.0562
15567TIP3   OH268191   0.441   5.976  16.930 -0.0305  0.3068 -0.5040
15567TIP3    H168192   0.362   5.922  16.927  0.3528 -0.4367  1.6978
15567TIP3    H268193   0.412   6.058  16.969  0.1451  0.2762 -0.3059
15568TIP3   OH268194   1.296   4.595  12.063  0.1578  0.0019 -0.5301
15568TIP3    H168195   1.230   4.588  11.994  0.9179  1.1813 -1.3921
15568TIP3    H268196   1.367   4.539  12.032 -1.2076 -2.9193  1.3664
15569TIP3   OH268197   2.085   0.003   6.173  0.1798  0.5946 -0.2233
15569TIP3    H168198   2.119   0.047   6.095  0.5678 -1.2274 -1.1105
15569TIP3    H268199   2.064   0.074   6.234 -2.0892  2.1603 -2.7672
15570TIP3   OH268200   4.536   1.660  14.477 -0.6148  0.3655 -0.0868
15570TIP3    H168201   4.598   1.717  14.523 -0.9332  1.2940 -0.7768
15570TIP3    H268202   4.473   1.721  14.438  0.5904 -0.2868 -3.1359
15571TIP3   OH268203   2.350   3.360  11.481 -0.0986  0.4813 -0.9945
15571TIP3    H168204   2.294   3.391  11.410 -0.3424 -0.5219 -1.2448
15571TIP3    H268205   2.350   3.432  11.544 -0.7918  0.9281 -1.4968
15572TIP3   OH268206   3.505   6.702  10.536 -0.1610  0.4057 -0.5636
15572TIP3    H168207   3.588   6.735  10.502  0.1293  0.8599  0.5881
15572TIP3    H268208   3.501   6.612  10.504  1.0183  0.2100 -0.2072
15573TIP3   OH268209   5.658   3.001  17.271  0.2609 -0.2335  0.7064
15573TIP3    H168210   5.706   2.921  17.291  1.4884  0.4043  0.3891
15573TIP3    H268211   5.726   3.064  17.246 -0.8995  0.1967 -1.4423
15574TIP3   OH268212   2.973   6.627  11.681  0.4473  0.0003  0.0654
15574TIP3    H168213   3.027   6.662  11.610 -1.4388  0.9232 -0.9640
15574TIP3    H268214   2.893   6.597  11.637 -0.4666 -0.0209  1.7160
15575TIP3   OH268215   0.247   6.436  14.375 -0.4236  0.1087  0.2673
15575TIP3    H168216   0.202   6.514  14.344 -1.1677 -0.6483 -0.6196
15575TIP3    H268217   0.179   6.369  14.379 -0.2483  0.0441  3.1370
15576TIP3   OH268218   2.247   2.643  16.924  0.1709 -0.3339  0.2909
15576TIP3    H168219   2.240   2.669  16.832  0.6041  1.1040  0.6451
15576TIP3    H268220   2.165   2.599  16.942 -0.5007  0.5867 -0.4248
15577TIP3   OH268221   6.652   4.932   3.459  0.1794  0.2721  0.3254
15577TIP3    H168222   6.730   4.879   3.442 -0.1744 -0.1669  0.0649
15577TIP3    H268223   6.603   4.931   3.376 -1.1034 -1.1312  1.0688
15578TIP3   OH268224   5.345   6.721  13.473 -0.1074  0.3823  0.2451
15578TIP3    H168225   5.413   6.785  13.453  0.6606 -0.7412 -0.7945
15578TIP3    H268226   5.294   6.761  13.543  2.1105  0.8969  1.5892
15579TIP3   OH268227   2.297   4.386   0.579  0.7327 -0.1678  0.2564
15579TIP3    H168228   2.309   4.423   0.491  1.0174  0.1860  0.4411
15579TIP3    H268229   2.203   4.394   0.595  0.8656  1.0159  0.5216
15580TIP3   OH268230   5.329   6.360  16.364 -0.1358 -0.6525  0.1559
15580TIP3    H168231   5.407   6.415  16.366  0.0004 -0.8527  0.3910
15580TIP3    H268232   5.272   6.396  16.432 -0.1447 -0.6574  0.1512
15581TIP3   OH268233   0.648   3.774   5.021 -0.2523  0.4241  0.2557
15581TIP3    H168234   0.592   3.702   4.992 -2.8066  2.0316  1.0191
15581TIP3    H268235   0.626   3.786   5.114  0.6729  1.6877  0.3274
15582TIP3   OH268236   0.304   2.949   5.459  0.0415 -0.1681 -0.4083
15582TIP3    H168237   0.255   2.895   5.397 -0.0575 -2.8645  1.8788
15582TIP3    H268238   0.240   3.014   5.489 -0.6155 -0.3927 -1.2867
15583TIP3   OH268239   5.179   5.581  13.224 -0.5483  0.3580 -0.4285
15583TIP3    H168240   5.088   5.551  13.232  0.0686 -1.7449 -1.1027
15583TIP3    H268241   5.211   5.540  13.144  1.0039  1.0845 -0.1897
15584TIP3   OH268242   1.228   6.171  13.989 -0.5200 -0.5046 -0.1124
15584TIP3    H168243   1.299   6.111  14.011  1.7137  1.6198 -1.3007
15584TIP3    H268244   1.212   6.155  13.896 -1.5703 -0.9149  0.1320
15585TIP3   OH268245   5.038   5.884  15.787 -0.2661 -0.5202  0.0705
15585TIP3    H168246   5.126   5.922  15.786  0.1011 -1.3433 -0.1704
15585TIP3    H268247   5.048   5.801  15.739 -0.8747 -1.2728  1.2148
15586TIP3   OH268248   2.559   5.576   6.199  0.7036  0.3854 -0.3227
15586TIP3    H168249   2.523   5.490   6.178 -0.6202  1.4448 -2.5216
15586TIP3    H268250   2.602   5.564   6.284 -0.7729 -2.0568  0.1163
15587TIP3   OH268251   0.952   2.837   5.766  0.1182  0.0359  0.2595
15587TIP3    H168252   0.876   2.781   5.753 -0.9560  1.5453 -0.0003
15587TIP3    H268253   0.916   2.923   5.786  1.7436  0.3191  2.1249
15588TIP3   OH268254   0.902   6.057  15.230  0.0661  0.9046  0.4705
15588TIP3    H168255   0.987   6.095  15.252  0.8911 -1.6183  1.8104
15588TIP3    H268256   0.844   6.084  15.302  0.3125  0.7054  0.7421
15589TIP3   OH268257   6.544   6.388  15.540  0.0308  0.0133 -0.5197
15589TIP3    H168258   6.603   6.415  15.470  0.0163  0.4725 -0.3562
15589TIP3    H268259   6.516   6.470  15.581 -1.9691 -0.0985 -1.6134
15590TIP3   OH268260   4.103   3.678  13.008  0.6995 -0.1759 -0.0074
15590TIP3    H168261   4.196   3.660  12.998  0.6928 -0.2423  0.0490
15590TIP3    H268262   4.065   3.659  12.922  0.9045  0.8830 -0.3425
15591TIP3   OH268263   0.656   1.051  16.556 -0.8241  0.2398  0.1478
15591TIP3    H168264   0.730   1.091  16.512 -1.9266  0.9988 -1.0463
15591TIP3    H268265   0.624   1.118  16.616 -2.1651  0.8892 -1.2614
15592TIP3   OH268266   6.429   0.214  14.433 -0.5753 -0.4206 -0.0831
15592TIP3    H168267   6.523   0.207  14.444 -0.2140  2.8290 -0.4934
15592TIP3    H268268   6.402   0.281  14.497 -2.3489 -0.2533 -0.9551
15593TIP3   OH268269   5.036   3.111  13.109  0.0665 -0.1996 -0.2640
15593TIP3    H168270   5.035   3.077  13.198 -3.7487 -0.4344 -0.2954
15593TIP3    H268271   5.057   3.204  13.119  4.4965 -1.1788  0.3522
15594TIP3   OH268272   4.424   6.783   0.260 -0.2838 -0.7675 -0.1002
15594TIP3    H168273   4.330   6.798   0.249 -0.0488  0.7233 -0.2715
15594TIP3    H268274   4.464   6.868   0.242  0.9314 -0.7784  2.3008
15595TIP3   OH268275   3.085   1.772  15.658  0.0040 -0.1499 -0.1006
15595TIP3    H168276   3.123   1.800  15.742 -0.3506 -0.3943  0.1418
15595TIP3    H268277   3.148   1.802  15.592 -0.0689  0.6804  0.2008
15596TIP3   OH268278   1.453   2.474   1.898  0.4266 -1.2898  0.1468
15596TIP3    H168279   1.408   2.390   1.908 -1.5351 -0.1391  1.4099
15596TIP3    H268280   1.416   2.511   1.817  0.0464 -0.9160  0.4883
15597TIP3   OH268281   0.030   0.273   2.214 -0.3513  0.2933  0.3486
15597TIP3    H168282   0.024   0.292   2.308  0.2773  0.0759  0.4368
15597TIP3    H268283   0.118   0.301   2.190 -0.9503  1.5470 -0.4549
15598TIP3   OH268284   2.834   2.099   2.368  0.2209  0.0229 -0.0001
15598TIP3    H168285   2.918   2.055   2.384  0.6743  1.2703  1.1998
15598TIP3    H268286   2.768   2.031   2.383  0.9817 -0.7470 -0.1030
15599TIP3   OH268287   4.575   3.719  13.226 -0.1572 -0.6510 -0.2526
15599TIP3    H168288   4.578   3.735  13.132 -1.5702 -0.1631 -0.2246
15599TIP3    H268289   4.564   3.806  13.264 -0.7584 -0.9680  0.2973
15600TIP3   OH268290   0.519   0.263  16.042 -0.1005  0.5006 -0.3099
15600TIP3    H168291   0.520   0.220  15.956  0.9707  2.3287 -1.2398
15600TIP3    H268292   0.503   0.355  16.023 -1.2066  0.7208  1.5735
15601TIP3   OH268293   6.706   4.024   1.257 -0.4143  0.4157  0.1024
15601TIP3    H168294   6.798   4.053   1.255 -0.2966  0.0960  0.5497
15601TIP3    H268295   6.672   4.043   1.170  0.2485  0.0018 -0.2525
15602TIP3   OH268296   4.098   2.986   6.480 -0.2124 -0.0142  0.5946
15602TIP3    H168297   4.107   3.070   6.435  0.1718  0.2123  1.0922
15602TIP3    H268298   4.005   2.981   6.502 -0.4487 -0.2328 -0.4213
15603TIP3   OH268299   3.288   1.501   0.644 -0.4323 -0.3891 -0.6498
15603TIP3    H168300   3.343   1.482   0.720 -0.1117 -0.5726 -0.9256
15603TIP3    H268301   3.204   1.459   0.663 -0.3198 -0.5215 -0.4467
15604TIP3   OH268302   3.036   6.260  13.762  0.3859 -0.0585 -0.7355
15604TIP3    H168303   3.088   6.184  13.736  0.9181 -0.3786  1.2111
15604TIP3    H268304   3.079   6.292  13.842 -1.1248  0.9881 -0.3307
15605TIP3   OH268305   0.799   6.032  13.531 -0.1845 -0.3485  0.1358
15605TIP3    H168306   0.846   6.101  13.577  0.1486  1.0510 -2.1752
15605TIP3    H268307   0.708   6.042  13.560  0.2414 -0.4319  1.5344
15606TIP3   OH268308   1.368   3.111  14.103 -0.4484 -0.2825  0.2977
15606TIP3    H168309   1.350   3.018  14.113  2.1777 -0.5934  2.9070
15606TIP3    H268310   1.461   3.115  14.079 -0.8075  1.6261 -0.9135
15607TIP3   OH268311   0.954   2.842  12.009  0.3455 -0.6761 -0.8941
15607TIP3    H168312   0.948   2.826  12.103  0.4376  1.3755 -0.5115
15607TIP3    H268313   1.045   2.824  11.987  0.2724 -1.3714 -0.6337
15608TIP3   OH268314   3.313   5.129  14.229  0.3038 -0.4889  0.1289
15608TIP3    H168315   3.310   5.224  14.220  0.6452 -0.5686 -0.8376
15608TIP3    H268316   3.330   5.114  14.322  1.5625  0.4137  0.0556
15609TIP3   OH268317   0.647   5.192   1.472 -0.3353  0.0550 -0.1115
15609TIP3    H168318   0.610   5.239   1.397  1.3881  1.4352 -0.1132
15609TIP3    H268319   0.727   5.239   1.494 -1.4073  0.4392  3.3808
15610TIP3   OH268320   1.690   1.352   1.870 -0.2124 -0.3610  0.7027
15610TIP3    H168321   1.650   1.272   1.836 -3.1009  0.8968  0.9968
15610TIP3    H268322   1.697   1.337   1.965  3.4190 -1.9831  0.2405
15611TIP3   OH268323   1.044   2.185  12.915  0.1631 -0.4371 -0.0625
15611TIP3    H168324   1.099   2.234  12.976  0.0539  1.6307 -1.5997
15611TIP3    H268325   0.956   2.190  12.951  0.2411  0.0346  0.0567
15612TIP3   OH268326   0.894   6.062  12.493  0.3047  0.0256 -0.3001
15612TIP3    H168327   0.817   6.033  12.444  0.0005  0.5181 -0.1174
15612TIP3    H268328   0.968   6.045  12.435 -0.2547  2.7124 -1.8593
15613TIP3   OH268329   3.291   2.428   4.763 -0.1317 -0.6172  0.0741
15613TIP3    H168330   3.343   2.461   4.690 -0.9181  0.9482  0.2043
15613TIP3    H268331   3.285   2.333   4.748  1.3738 -0.5813 -0.8132
15614TIP3   OH268332   2.042   0.279   1.821  0.3854  0.3319  0.0711
15614TIP3    H168333   2.024   0.219   1.893 -1.2175  0.1379 -0.4712
15614TIP3    H268334   2.137   0.274   1.810  0.6206  0.1624  1.9713
15615TIP3   OH268335   1.925   1.528  14.325  0.1131  0.6537 -0.1922
15615TIP3    H168336   1.840   1.518  14.282  0.0051 -0.4051  0.2440
15615TIP3    H268337   1.944   1.622  14.320 -0.4632  0.7134 -1.4627
15616TIP3   OH268338   2.221   2.539  17.235  0.0416  0.1830  0.0698
15616TIP3    H168339   2.284   2.611  17.226  0.4510  0.0033  1.3884
15616TIP3    H268340   2.139   2.575  17.203  0.0800  1.4997  1.3879
15617TIP3   OH268341   3.001   4.872   0.693 -1.2225  0.2171 -0.0045
15617TIP3    H168342   3.072   4.930   0.666  1.2016 -2.3799  0.5557
15617TIP3    H268343   2.970   4.832   0.611 -2.8509  2.1635 -0.3818
15618TIP3   OH268344   5.386   3.782   1.352 -0.7046  0.3307  0.2590
15618TIP3    H168345   5.349   3.837   1.283 -0.4483  1.6001  1.1192
15618TIP3    H268346   5.468   3.748   1.315 -0.4405  1.2106  0.0211
15619TIP3   OH268347   0.631   1.555  13.708  0.3225  0.7961 -0.2876
15619TIP3    H168348   0.635   1.492  13.636 -1.1171  2.7628 -2.1395
15619TIP3    H268349   0.566   1.519  13.768  1.1127 -0.5652 -0.2187
15620TIP3   OH268350   3.572   5.620  15.754 -0.5205  0.2073 -0.0099
15620TIP3    H168351   3.538   5.587  15.671  1.1709 -0.7670 -0.3391
15620TIP3    H268352   3.639   5.556  15.780  0.0424  1.3079  1.3399
15621TIP3   OH268353   1.494   1.472  12.761  0.0220 -0.1228  0.1626
15621TIP3    H168354   1.509   1.391  12.809 -1.5104  0.7062  2.1429
15621TIP3    H268355   1.539   1.460  12.677  1.1564 -2.3583  1.0642
15622TIP3   OH268356   1.718   5.047  10.440  0.3505 -0.1363  0.0458
15622TIP3    H168357   1.643   5.103  10.419 -0.7166 -1.0265  1.4328
15622TIP3    H268358   1.693   4.960  10.409  1.1741 -0.2676 -0.2663
15623TIP3   OH268359   0.407   0.932   3.918 -0.2911 -0.0449 -0.5822
15623TIP3    H168360   0.463   0.978   3.855 -1.0176  0.8964 -0.5519
15623TIP3    H268361   0.321   0.974   3.908 -1.0142 -1.5321 -0.6887
15624TIP3   OH268362   4.440   0.936   3.148  0.6575  0.2970 -0.3281
15624TIP3    H168363   4.454   0.892   3.064 -0.1994 -1.0312  0.2119
15624TIP3    H268364   4.425   0.865   3.210 -1.1517  1.3574  0.4785
15625TIP3   OH268365   2.043   0.080  14.524  0.5209  0.0700 -0.1913
15625TIP3    H168366   2.004   0.150  14.472 -0.1508  0.1609  0.4265
15625TIP3    H268367   2.136   0.100  14.526  0.0723  2.1911  1.8425
15626TIP3   OH268368   4.609   3.962  13.323  0.1152 -0.3399  0.1340
15626TIP3    H168369   4.555   4.042  13.324 -1.0561 -1.0370 -2.6253
15626TIP3    H268370   4.699   3.994  13.314 -0.4997  0.6867 -2.9841
15627TIP3   OH268371   4.025   5.581   4.596 -0.4877 -0.3165 -0.1445
15627TIP3    H168372   4.116   5.553   4.586 -0.2503  0.9149 -1.8149
15627TIP3    H268373   3.974   5.517   4.546 -0.2567  0.4609 -1.3989
15628TIP3   OH268374   3.668   2.966   3.565 -0.4052 -0.1214 -0.0119
15628TIP3    H168375   3.596   2.979   3.626  0.4103 -0.3428  1.0083
15628TIP3    H268376   3.627   2.930   3.486 -1.4570  0.1534  0.4136
15629TIP3   OH268377   3.019   3.036   1.772  0.2224 -0.0946  0.2963
15629TIP3    H168378   3.087   3.075   1.827 -0.3684  0.4565  0.6359
15629TIP3    H268379   2.945   3.097   1.777  0.3182  0.1823 -1.4747
15630TIP3   OH268380   1.370   0.775   2.503  0.0659 -0.5495 -0.2878
15630TIP3    H168381   1.413   0.852   2.541  1.5733 -1.3408 -0.3302
15630TIP3    H268382   1.403   0.702   2.555  0.5707 -1.4248 -1.8194
15631TIP3   OH268383   1.989   4.946  16.809  0.3992  0.1564 -0.0407
15631TIP3    H168384   1.935   4.890  16.865  2.2129 -0.3237  1.2791
15631TIP3    H268385   2.012   5.020  16.866  1.7147 -0.0075 -0.3435
15632TIP3   OH268386   4.100   4.732   3.994 -0.4955 -0.4219 -0.7336
15632TIP3    H168387   4.054   4.798   4.047 -0.3977 -1.3465  0.5338
15632TIP3    H268388   4.030   4.679   3.956 -0.5114 -2.1121  1.5635
15633TIP3   OH268389   5.024   2.554   3.367 -0.6049 -0.0836  0.1317
15633TIP3    H168390   4.965   2.504   3.423  1.6399 -1.3535  1.4057
15633TIP3    H268391   4.977   2.561   3.283 -3.2977  0.4592  1.6109
15634TIP3   OH268392   5.074   5.338   2.711 -0.5070  0.1222 -0.8739
15634TIP3    H168393   5.063   5.421   2.757  2.7538  0.2320 -0.2197
15634TIP3    H268394   5.096   5.275   2.780  1.6151 -0.3051 -1.9286
15635TIP3   OH268395   0.935   3.396   0.918 -0.4828 -0.5023 -0.7783
15635TIP3    H168396   0.888   3.382   1.000  0.0016 -0.7782 -0.5481
15635TIP3    H268397   0.990   3.319   0.908  1.5389  0.7907  0.0620
15636TIP3   OH268398   0.653   3.915  13.762  0.3024  0.0317 -0.2817
15636TIP3    H168399   0.629   3.839  13.815 -1.0918 -1.3709 -2.7911
15636TIP3    H268400   0.570   3.960  13.746  0.7587  0.6598 -0.8907
15637TIP3   OH268401   3.961   4.807   2.595  0.0978 -0.2750  0.3479
15637TIP3    H168402   3.914   4.886   2.570  0.6480 -0.3406 -0.9212
15637TIP3    H268403   4.027   4.795   2.527  1.4944 -0.5868  1.7000
15638TIP3   OH268404   4.997   2.106  16.613 -0.4144  0.1817  0.7939
15638TIP3    H168405   5.082   2.082  16.578 -0.3399  1.0117  0.4129
15638TIP3    H268406   4.947   2.024  16.613  0.0870 -0.1229  0.2046
15639TIP3   OH268407   0.335   0.178   4.135 -0.0466  0.0918 -0.4652
15639TIP3    H168408   0.311   0.220   4.218 -0.0243 -3.1390  1.2711
15639TIP3    H268409   0.427   0.201   4.122 -0.2527  1.2210  0.0461
15640TIP3   OH268410   1.015   4.111  12.417 -0.6264 -0.2186  0.4759
15640TIP3    H168411   1.047   4.100  12.506  1.0777 -0.4317 -0.1417
15640TIP3    H268412   0.948   4.044  12.407 -1.0662  0.0328  1.7023
15641TIP3   OH268413   3.281   6.257   1.392 -0.1618 -0.2425  0.2586
15641TIP3    H168414   3.191   6.286   1.375  0.3506  1.0060 -0.4555
15641TIP3    H268415   3.325   6.270   1.308  0.8798 -0.0694  0.8342
15642TIP3   OH268416   6.324   4.256   4.195 -0.6266  0.0726 -0.4797
15642TIP3    H168417   6.336   4.213   4.110  2.4262 -0.3420  0.1051
15642TIP3    H268418   6.286   4.188   4.251 -1.7952  0.0831 -1.2247
15643TIP3   OH268419   5.988   4.861  11.779  0.0718 -0.2221  0.0276
15643TIP3    H168420   5.949   4.859  11.691  0.1516 -3.8204 -0.0213
15643TIP3    H268421   6.003   4.953  11.797 -0.8245  0.6492 -3.3586
15644TIP3   OH268422   5.520   2.255  13.731 -0.2219  0.2713 -0.8120
15644TIP3    H168423   5.579   2.269  13.657 -1.4809  1.3282 -1.6257
15644TIP3    H268424   5.440   2.220  13.692  0.6770 -3.5312  0.5300
15645TIP3   OH268425   1.957   5.984  13.562 -0.5727 -0.1077 -0.9454
15645TIP3    H168426   1.884   5.978  13.624  0.2065 -0.9542 -0.0847
15645TIP3    H268427   2.010   6.057  13.593 -0.2378 -0.4660 -0.6647
15646TIP3   OH268428   2.785   5.145   4.241  0.1342 -0.4275 -0.3670
15646TIP3    H168429   2.701   5.174   4.206 -0.1689  0.9933  1.4948
15646TIP3    H268430   2.850   5.185   4.183 -0.3283  2.8884  1.3469
15647TIP3   OH268431   0.524   0.953  12.047 -1.1983  0.1298 -0.0457
15647TIP3    H168432   0.496   1.010  12.119  1.7297 -0.1110  1.3684
15647TIP3    H268433   0.573   1.011  11.989 -0.4485 -0.3916  0.0540
15648TIP3   OH268434   0.777   5.385   2.865  0.1252 -0.3719  0.3775
15648TIP3    H168435   0.817   5.316   2.918  0.3791  0.5097  1.3764
15648TIP3    H268436   0.780   5.462   2.922 -0.5878  0.3395 -0.5383
15649TIP3   OH268437   5.132   3.945  15.235 -0.5156 -0.4622  0.2941
15649TIP3    H168438   5.126   3.850  15.238  0.1174 -0.5026  0.3091
15649TIP3    H268439   5.212   3.963  15.186 -1.3255  0.0725 -0.8544
15650TIP3   OH268440   2.812   1.631  15.396  0.6297 -0.6344 -0.2650
15650TIP3    H168441   2.840   1.634  15.487 -2.0559  1.3816  0.5803
15650TIP3    H268442   2.884   1.672  15.347  0.4878  1.7502  1.4495
15651TIP3   OH268443   3.144   6.072   3.106  0.1650  0.0191 -0.0244
15651TIP3    H168444   3.143   6.093   3.199 -0.5714 -0.5834  0.1057
15651TIP3    H268445   3.074   6.008   3.095 -0.2848  0.7099 -1.1454
15652TIP3   OH268446   2.818   4.789  14.129  0.3043 -0.2685  0.2894
15652TIP3    H168447   2.880   4.860  14.144  0.2880 -0.4294  1.1501
15652TIP3    H268448   2.753   4.827  14.070  1.6557 -0.3583 -1.2760
15653TIP3   OH268449   1.898   2.811   4.578  0.4310 -0.6436  0.4115
15653TIP3    H168450   1.908   2.811   4.674 -0.6089 -1.2663  0.5272
15653TIP3    H268451   1.825   2.871   4.562 -0.0167 -1.2691  0.0868
15654TIP3   OH268452   4.096   2.902  17.071  0.5994  0.0615 -0.7608
15654TIP3    H168453   4.082   2.826  17.126 -0.6300  1.2681  0.6485
15654TIP3    H268454   4.045   2.885  16.992 -3.9983  1.6481  1.7100
15655TIP3   OH268455   3.252   1.507  13.263 -0.1234 -0.1679  0.4149
15655TIP3    H168456   3.238   1.524  13.356 -1.7220  0.5389  0.0730
15655TIP3    H268457   3.334   1.458  13.259 -0.6178 -1.1837  2.2822
15656TIP3   OH268458   2.142   2.536  12.382  0.1384  0.1273  0.6191
15656TIP3    H168459   2.183   2.621  12.364  1.8694  0.1122  4.0524
15656TIP3    H268460   2.181   2.508  12.465 -0.8574 -3.7612 -0.1529
15657TIP3   OH268461   4.599   5.963   3.639  0.3240  0.1838  0.0324
15657TIP3    H168462   4.556   6.048   3.624 -1.2095 -0.5761  0.0219
15657TIP3    H268463   4.693   5.983   3.636 -0.0084  1.7097 -0.9920
15658TIP3   OH268464   3.555   1.281   1.579 -0.0990 -0.0911  0.4290
15658TIP3    H168465   3.472   1.316   1.548  0.5972  0.0022 -1.3712
15658TIP3    H268466   3.538   1.188   1.593 -0.4426 -0.1143 -0.1459
15659TIP3   OH268467   1.734   5.070  17.266 -0.3779  0.2881 -0.3755
15659TIP3    H168468   1.705   4.979  17.268  1.2594 -0.3010 -1.8119
15659TIP3    H268469   1.689   5.111  17.339 -0.0961 -2.0056  1.1565
15660TIP3   OH268470   1.614   2.767   1.387  0.0208  0.0770  0.2896
15660TIP3    H168471   1.530   2.749   1.343 -0.6707 -0.2891  1.7302
15660TIP3    H268472   1.644   2.849   1.348 -0.3589 -0.4586 -1.1698
15661TIP3   OH268473   5.621   5.836  14.966  0.2357  0.5647  0.1920
15661TIP3    H168474   5.599   5.748  14.936 -3.4193  1.9826 -1.5724
15661TIP3    H268475   5.706   5.854  14.926  0.7723 -1.9597  0.1411
15662TIP3   OH268476   6.241   6.058   2.483  0.1036  0.8103  0.1795
15662TIP3    H168477   6.198   6.114   2.419 -1.8816 -2.4941 -1.5749
15662TIP3    H268478   6.173   5.994   2.507  2.6112 -1.6328  1.0076
15663TIP3   OH268479   0.879   4.471  14.802  0.3477 -0.0529 -0.1383
15663TIP3    H168480   0.870   4.377  14.784 -2.0293  0.0772  0.1359
15663TIP3    H268481   0.957   4.497  14.754  0.2032 -1.8867 -1.4440
15664TIP3   OH268482   6.332   0.948   6.083  0.3508  0.1769  0.6405
15664TIP3    H168483   6.319   1.035   6.120  0.5752  0.5468 -0.1351
15664TIP3    H268484   6.288   0.889   6.144 -1.2831  0.9948  0.2873
15665TIP3   OH268485   4.123   0.949  15.571 -0.4456 -0.6304 -0.0840
15665TIP3    H168486   4.073   0.954  15.653 -0.7893  0.5886 -0.3664
15665TIP3    H268487   4.105   1.031  15.527  1.8162 -0.1702 -0.2064
15666TIP3   OH268488   4.575   5.458  12.643  0.3912 -0.7191  0.0905
15666TIP3    H168489   4.535   5.536  12.681 -0.1245 -1.3969  0.9768
15666TIP3    H268490   4.519   5.386  12.672  1.1518 -1.4757 -0.2811
15667TIP3   OH268491   3.430   4.107  16.841 -0.1120  0.4900 -0.0675
15667TIP3    H168492   3.377   4.169  16.790  1.8070  0.6342 -1.9874
15667TIP3    H268493   3.372   4.032  16.855 -1.2993  1.2369 -0.8654
15668TIP3   OH268494   0.833   2.201   1.257  0.0845  0.1129  0.2927
15668TIP3    H168495   0.814   2.202   1.351 -1.3259 -1.1155  0.0487
15668TIP3    H268496   0.758   2.246   1.217  0.1061 -0.3895 -0.3232
15669TIP3   OH268497   6.521   2.774   2.548 -0.3717 -0.4305 -0.0295
15669TIP3    H168498   6.497   2.828   2.473  0.0629  1.7327  1.3701
15669TIP3    H268499   6.444   2.776   2.605  0.1091 -0.2354  0.6185
15670TIP3   OH268500   5.670   5.122   3.418  0.0921  0.1944 -0.1480
15670TIP3    H168501   5.741   5.159   3.365 -0.6997 -0.8562 -1.9743
15670TIP3    H268502   5.655   5.035   3.381 -0.9937 -0.2546  1.3264
15671TIP3   OH268503   0.850   1.224  16.487 -0.2089  0.5775 -0.0055
15671TIP3    H168504   0.844   1.232  16.392 -3.8772  0.9924  0.1982
15671TIP3    H268505   0.813   1.306  16.521 -0.0821 -0.0745  1.7780
15672TIP3   OH268506   0.821   4.232   4.390  0.4833  0.3515  0.1616
15672TIP3    H168507   0.836   4.149   4.345  1.3446  1.1735 -1.0989
15672TIP3    H268508   0.882   4.293   4.349 -0.1003  1.6006  1.1134
15673TIP3   OH268509   0.991   3.186  12.753  0.4943 -0.3015 -0.0364
15673TIP3    H168510   0.948   3.100  12.760  1.3676 -0.6519  1.2141
15673TIP3    H268511   0.926   3.242  12.710 -0.5857 -1.2519  0.3311
15674TIP3   OH268512   4.693   5.216   0.473 -0.2393 -0.1699 -0.4829
15674TIP3    H168513   4.688   5.157   0.398 -0.3459  0.7336 -1.2054
15674TIP3    H268514   4.768   5.273   0.453  0.7244 -0.9359  0.8539
15675TIP3   OH268515   2.444   4.086  13.276 -0.2847  0.0681  0.6287
15675TIP3    H168516   2.405   4.085  13.189 -1.2785  1.5842  1.0346
15675TIP3    H268517   2.510   4.016  13.274 -0.0457  0.3272 -1.4351
15676TIP3   OH268518   1.206   5.283  11.611 -0.0174 -0.4111  0.0493
15676TIP3    H168519   1.213   5.206  11.668  0.3072 -0.8851 -0.6321
15676TIP3    H268520   1.289   5.287  11.564  0.3031  0.8554  0.7019
15677TIP3   OH268521   1.748   1.173  13.905 -0.3047  0.0562  0.3550
15677TIP3    H168522   1.654   1.167  13.923 -0.6583  0.2169 -1.4010
15677TIP3    H268523   1.754   1.214  13.819  1.3858  0.1691  0.5093
15678TIP3   OH268524   6.792   6.391  11.843  0.3193 -0.1078  0.4834
15678TIP3    H168525   6.794   6.300  11.873 -1.2342 -0.3450 -0.1203
15678TIP3    H268526   6.761   6.386  11.753 -1.1770  1.1411  0.9119
15679TIP3   OH268527   2.418   5.620  16.087  0.4033  0.1617  0.9402
15679TIP3    H168528   2.476   5.586  16.019  0.5513 -1.0738  1.6636
15679TIP3    H268529   2.387   5.542  16.133 -0.1902  0.9427  1.8825
15680TIP3   OH268530   1.032   5.926  11.296 -0.0024 -0.3047  0.6231
15680TIP3    H168531   1.087   5.853  11.268  0.6820  0.5076 -0.1587
15680TIP3    H268532   1.088   6.003  11.288 -1.4406  0.6141 -0.7991
15681TIP3   OH268533   6.668   2.550  13.809  0.1247 -0.2315  0.0497
15681TIP3    H168534   6.607   2.623  13.818  0.2333 -0.1644  0.2281
15681TIP3    H268535   6.755   2.589  13.820  0.0846 -0.8241  2.8579
15682TIP3   OH268536   2.333   2.055   1.595  0.1655  0.0998  0.7027
15682TIP3    H168537   2.393   2.125   1.568 -0.4720  0.7159  0.8959
15682TIP3    H268538   2.252   2.100   1.617 -0.1490 -0.6738  1.1190
15683TIP3   OH268539   5.865   4.976   3.784  0.3587  0.5083 -0.2796
15683TIP3    H168540   5.827   4.977   3.872 -1.1106  0.5405 -0.8839
15683TIP3    H268541   5.908   5.061   3.776 -0.3717  0.9212  0.0597
15684TIP3   OH268542   5.291   2.517   3.115  0.6943 -0.1544  0.3453
15684TIP3    H168543   5.274   2.529   3.022  0.4880 -1.7830  0.1556
15684TIP3    H268544   5.245   2.590   3.157  0.6826  0.5169 -0.8055
15685TIP3   OH268545   6.709   1.956   3.248  0.0582  0.6556 -0.0045
15685TIP3    H168546   6.645   1.957   3.177  0.4317  0.1342 -0.3548
15685TIP3    H268547   6.793   1.975   3.206  0.4984 -1.0154  0.0525
15686TIP3   OH268548   6.560   4.379   5.281 -0.3139  0.3610 -0.5148
15686TIP3    H168549   6.558   4.304   5.340 -1.5402 -0.6245 -1.7710
15686TIP3    H268550   6.515   4.449   5.330 -0.2954 -0.0928  0.1592
15687TIP3   OH268551   4.787   2.023  11.641  0.2580 -0.1328  0.0436
15687TIP3    H168552   4.836   1.941  11.645  0.4437 -0.0177  0.1406
15687TIP3    H268553   4.798   2.053  11.551  0.3708 -0.1026  0.0671
15688TIP3   OH268554   2.388   3.349  13.136  0.2098 -0.2797  0.2543
15688TIP3    H168555   2.468   3.357  13.083  0.2314  1.1018  0.4750
15688TIP3    H268556   2.382   3.256  13.157 -0.8697 -1.2816 -3.8803
15689TIP3   OH268557   4.682   2.889   1.607  0.3026 -0.5089  0.3344
15689TIP3    H168558   4.725   2.944   1.541  1.6912  0.6666  2.1536
15689TIP3    H268559   4.592   2.878   1.575  1.2151 -0.7802 -2.2112
15690TIP3   OH268560   6.513   1.094   0.508 -0.1168  0.1605 -0.2076
15690TIP3    H168561   6.554   1.146   0.577  0.0692  1.6180 -1.4072
15690TIP3    H268562   6.439   1.146   0.479 -0.4644 -0.6602 -0.8125
15691TIP3   OH268563   5.386   0.184  14.927  0.3006 -0.2315  0.3823
15691TIP3    H168564   5.394   0.101  14.973  0.0346 -0.1316  0.6077
15691TIP3    H268565   5.466   0.232  14.950 -0.1732  0.1123  1.3320
15692TIP3   OH268566   4.144   4.247   1.899  0.1155  0.3951  0.5283
15692TIP3    H168567   4.217   4.197   1.863 -0.5612  0.2967 -0.7151
15692TIP3    H268568   4.169   4.339   1.886 -0.9237  0.3661 -1.8598
15693TIP3   OH268569   5.229   0.407  11.661 -0.3615 -0.0510  0.1671
15693TIP3    H168570   5.272   0.394  11.576 -0.1569 -1.2035  0.4378
15693TIP3    H268571   5.136   0.389  11.644 -0.6402  1.6691 -0.2422
15694TIP3   OH268572   2.760   4.675  16.900  0.1934 -0.4115  0.1150
15694TIP3    H168573   2.690   4.711  16.844  0.4432  0.6117  0.4624
15694TIP3    H268574   2.772   4.586  16.868  0.6383  0.3039 -1.7745
15695TIP3   OH268575   2.710   0.366   0.175 -0.1056  0.2215  0.4266
15695TIP3    H168576   2.712   0.274   0.146  0.7705  0.5302 -0.5309
15695TIP3    H268577   2.710   0.416   0.094 -1.0566  1.0725  0.9451
15696TIP3   OH268578   6.082   1.972   6.628  0.5352  0.0563  0.0111
15696TIP3    H168579   6.143   2.044   6.645  1.5363 -0.8061  0.0615
15696TIP3    H268580   6.037   1.998   6.547 -0.5865  1.7142  1.1175
15697TIP3   OH268581   2.741   0.089  14.255 -0.1397  0.0730 -0.3404
15697TIP3    H168582   2.648   0.110  14.264 -0.1979 -0.3705  0.0863
15697TIP3    H268583   2.745   0.029  14.180 -0.3759 -1.1073  0.5892
15698TIP3   OH268584   6.343   6.596   5.318  0.8304  0.3319  0.8969
15698TIP3    H168585   6.353   6.689   5.294 -1.5167  0.7600  1.4788
15698TIP3    H268586   6.398   6.585   5.395 -1.9860  2.3056  3.3232
15699TIP3   OH268587   5.215   3.496   1.725 -0.2307 -0.1315 -0.1169
15699TIP3    H168588   5.159   3.419   1.727 -1.7526  0.9420 -0.6709
15699TIP3    H268589   5.159   3.567   1.694  1.2774  1.0987 -0.1472
15700TIP3   OH268590   0.523   1.932   0.350 -0.2034  0.0632  0.0776
15700TIP3    H168591   0.431   1.944   0.374  0.5450  0.1749  3.1097
15700TIP3    H268592   0.525   1.848   0.304 -1.9217  0.4257 -0.7152
15701TIP3   OH268593   5.695   5.808  16.095  0.4887 -0.1500  0.1744
15701TIP3    H168594   5.738   5.792  16.010 -0.6428 -1.0943 -0.2320
15701TIP3    H268595   5.615   5.854  16.072  1.0477  1.1840  0.8949
15702TIP3   OH268596   2.593   0.413   5.219  0.9687  0.4527  0.3895
15702TIP3    H168597   2.585   0.476   5.290  0.3825 -0.6699  1.3485
15702TIP3    H268598   2.684   0.383   5.224  1.1688  1.0069  0.1126
15703TIP3   OH268599   2.398   4.136  15.022  0.2522  0.4310  0.2836
15703TIP3    H168600   2.348   4.194  15.079  1.3078  1.6269  0.0155
15703TIP3    H268601   2.490   4.153  15.045  0.5714 -1.1109  0.1792
15704TIP3   OH268602   5.942   2.971   6.900  0.1045 -0.1328  0.6310
15704TIP3    H168603   5.879   2.901   6.922 -0.1627 -0.2580 -0.5094
15704TIP3    H268604   6.028   2.932   6.917 -0.0961 -0.0702  1.8919
15705TIP3   OH268605   5.901   0.657   2.465 -0.4170 -0.1939  0.3799
15705TIP3    H168606   5.933   0.585   2.519 -0.6363 -0.4020  0.2324
15705TIP3    H268607   5.835   0.617   2.409  1.2468 -0.4313 -1.4883
15706TIP3   OH268608   6.524   2.652  16.214  0.0710  0.0169 -0.2972
15706TIP3    H168609   6.542   2.566  16.251  0.7082 -0.1038 -0.8728
15706TIP3    H268610   6.491   2.704  16.288  3.4202  0.4310  0.9751
15707TIP3   OH268611   0.861   3.519  12.471  0.2726 -0.5547  0.0425
15707TIP3    H168612   0.918   3.494  12.544 -0.0510 -2.0388 -0.1888
15707TIP3    H268613   0.921   3.530  12.397  0.5650  0.6343  0.4478
15708TIP3   OH268614   2.755   5.983   0.751 -0.3675 -0.3068 -0.3487
15708TIP3    H168615   2.824   6.000   0.686  0.0538 -0.1779  0.1288
15708TIP3    H268616   2.705   5.910   0.714 -0.2882 -0.0622 -0.9423
15709TIP3   OH268617   1.546   4.860   2.990 -0.1947  1.0322 -0.3725
15709TIP3    H168618   1.546   4.772   3.029 -1.1748  0.3488 -1.8664
15709TIP3    H268619   1.507   4.848   2.903  0.0096  2.8858 -0.7459
15710TIP3   OH268620   6.013   1.902   1.841  0.1885  0.5913 -0.3991
15710TIP3    H168621   6.030   1.917   1.934  0.3747  0.1778 -0.3658
15710TIP3    H268622   5.989   1.809   1.836  1.5775  0.2562 -0.9659
15711TIP3   OH268623   0.643   3.368  16.884 -1.1181  0.1929  0.0957
15711TIP3    H168624   0.550   3.381  16.867 -1.2707  0.2331  0.9422
15711TIP3    H268625   0.674   3.314  16.811 -1.3602  1.8415 -1.2729
15712TIP3   OH268626   2.283   4.257   4.278 -0.0052 -0.6416  0.1953
15712TIP3    H168627   2.269   4.189   4.343  0.1590  1.2078  2.2421
15712TIP3    H268628   2.368   4.296   4.302  0.2318 -0.1630 -1.3463
15713TIP3   OH268629   5.394   5.467   5.681  0.3169  0.2729 -0.0510
15713TIP3    H168630   5.399   5.437   5.772  0.7053 -0.2236 -0.2343
15713TIP3    H268631   5.397   5.562   5.687 -0.9855  0.2903  0.5416
15714TIP3   OH268632   6.344   2.977  17.212  0.2014  0.4022 -0.0083
15714TIP3    H168633   6.284   3.050  17.226 -0.3675  0.2514 -1.6111
15714TIP3    H268634   6.293   2.912  17.164  1.6060  0.2492 -1.3539
15715TIP3   OH268635   5.199   2.521  16.811 -0.0535 -0.4263 -0.1937
15715TIP3    H168636   5.146   2.530  16.732 -0.5424  0.3800  0.2136
15715TIP3    H268637   5.200   2.427  16.829  0.5546 -0.6830 -1.4830
15716TIP3   OH268638   1.931   4.190   4.507 -0.6531  0.4232  0.0986
15716TIP3    H168639   2.008   4.149   4.547  0.6962  0.7037 -2.1343
15716TIP3    H268640   1.960   4.278   4.483 -1.5894  0.4452 -0.9995
15717TIP3   OH268641   1.750   1.095  15.153 -0.8985  0.1022 -0.1294
15717TIP3    H168642   1.690   1.110  15.079  0.5327  1.5100 -1.0251
15717TIP3    H268643   1.832   1.067  15.112 -0.0568  0.9913  0.9179
15718TIP3   OH268644   3.075   3.525  11.429  0.1371 -0.1657  0.2108
15718TIP3    H168645   3.080   3.490  11.340 -1.9999  0.1790 -0.0880
15718TIP3    H268646   3.027   3.607  11.419  3.7201  2.1296  1.1143
15719TIP3   OH268647   2.243   2.139   3.021 -0.4212  0.1079  0.6060
15719TIP3    H168648   2.307   2.170   2.957  1.0715  1.0757  2.5426
15719TIP3    H268649   2.178   2.209   3.026  0.7453  1.1097  1.9125
15720TIP3   OH268650   3.090   2.796  16.285 -0.2331 -0.2285  0.1250
15720TIP3    H168651   3.180   2.811  16.259 -0.6394  0.7504 -0.7448
15720TIP3    H268652   3.093   2.715  16.336  1.1087 -0.2608  0.0110
15721TIP3   OH268653   1.022   1.271   1.043 -0.1765  0.0856  0.0315
15721TIP3    H168654   0.999   1.236   1.129 -2.5996 -0.9970 -0.9998
15721TIP3    H268655   0.983   1.358   1.042 -1.4374 -0.4605 -0.4653
15722TIP3   OH268656   6.657   3.639  12.802  0.0007 -0.1877  0.0506
15722TIP3    H168657   6.693   3.723  12.829 -0.6477  0.1794 -0.2218
15722TIP3    H268658   6.587   3.622  12.865 -0.6938  0.0788 -0.6402
15723TIP3   OH268659   2.428   1.451  11.825  0.4244  0.0186 -0.7170
15723TIP3    H168660   2.523   1.446  11.833  0.3266 -1.1783 -0.0732
15723TIP3    H268661   2.409   1.411  11.740  0.4758 -0.1690 -0.6422
15724TIP3   OH268662   2.964   1.378   1.211 -0.0942  0.4939 -0.0200
15724TIP3    H168663   3.020   1.335   1.275  0.1259  0.5866 -0.1481
15724TIP3    H268664   3.001   1.466   1.202 -0.5043  0.6934  0.1978
15725TIP3   OH268665   4.867   1.769  13.922  0.2824 -0.1823 -0.1196
15725TIP3    H168666   4.839   1.765  14.014 -1.4251 -1.5889 -0.6815
15725TIP3    H268667   4.786   1.768  13.872  1.2342 -0.4524 -1.6938
15726TIP3   OH268668   0.698   1.808   3.174 -0.5946  0.0483  0.3554
15726TIP3    H168669   0.672   1.881   3.229 -0.4865 -1.2731  2.2057
15726TIP3    H268670   0.779   1.776   3.213  1.1018  0.8996 -2.3168
15727TIP3   OH268671   5.353   2.140  11.030  0.6554 -0.2569 -0.1352
15727TIP3    H168672   5.387   2.210  10.974 -1.5327  1.1024  0.1938
15727TIP3    H268673   5.403   2.149  11.112  1.2387  0.1262 -0.5272
15728TIP3   OH268674   2.655   3.522   4.148 -0.5215 -0.6638  0.1797
15728TIP3    H168675   2.563   3.547   4.157 -0.2030  0.3789  0.5719
15728TIP3    H268676   2.702   3.584   4.204  0.3713 -1.5213  0.3874
15729TIP3   OH268677   0.388   3.931   5.774  0.2174 -0.0824  0.4723
15729TIP3    H168678   0.409   4.021   5.796  0.0605  0.7847 -2.7454
15729TIP3    H268679   0.301   3.935   5.735  0.1826 -1.6516  0.3369
15730TIP3   OH268680   3.970   2.305  16.223 -0.3454  0.5549  1.0688
15730TIP3    H168681   3.884   2.313  16.265 -1.2499 -0.8754 -0.4974
15730TIP3    H268682   4.017   2.242  16.278 -1.4660 -1.1876  0.0783
15731TIP3   OH268683   5.472   1.954   1.361 -0.0257 -0.1295  0.1152
15731TIP3    H168684   5.448   1.988   1.275  2.6029 -1.1185 -1.0590
15731TIP3    H268685   5.551   2.003   1.385  1.6227 -2.6893  0.0812
15732TIP3   OH268686   4.881   0.939  14.289  0.0938  0.0626  0.1325
15732TIP3    H168687   4.852   0.924  14.199 -0.7329 -0.1846  0.4411
15732TIP3    H268688   4.847   1.025  14.312  0.7646  0.3605  0.0283
15733TIP3   OH268689   5.689   3.868   0.326  0.0828 -0.9313 -0.8531
15733TIP3    H168690   5.734   3.929   0.268  0.0985 -0.2312 -0.1108
15733TIP3    H268691   5.596   3.883   0.312  0.0675  0.8398  0.9388
15734TIP3   OH268692   0.083   1.381  15.017  0.0879  0.4277 -0.1176
15734TIP3    H168693   0.105   1.451  15.078 -1.8867  0.8903  0.0991
15734TIP3    H268694   0.047   1.425  14.940  1.4462 -0.2163 -1.1490
15735TIP3   OH268695   3.843   5.458  16.337  0.2803 -0.4893  0.1776
15735TIP3    H168696   3.887   5.378  16.309  1.7512  0.6559 -0.8881
15735TIP3    H268697   3.826   5.505  16.255 -0.1603  0.4790  0.8234
15736TIP3   OH268698   0.651   2.859   1.987 -0.0765 -0.2484 -0.1804
15736TIP3    H168699   0.668   2.953   1.999  1.7611 -0.5246 -0.4619
15736TIP3    H268700   0.613   2.832   2.070  2.9975 -0.0189  1.3807
15737TIP3   OH268701   0.146   2.194  13.037  0.6520 -0.1104 -0.4590
15737TIP3    H168702   0.068   2.162  12.993  0.9855  0.4804 -1.4945
15737TIP3    H268703   0.115   2.268  13.090  0.1043 -1.3496  0.9774
15738TIP3   OH268704   4.457   3.809  11.117  0.3436 -0.3388  0.0578
15738TIP3    H168705   4.468   3.874  11.187  2.3029 -1.1479  0.5624
15738TIP3    H268706   4.363   3.807  11.100  0.0000  0.9420  1.6502
15739TIP3   OH268707   5.239   4.157   4.072 -0.5501  0.0163 -0.1014
15739TIP3    H168708   5.185   4.141   3.994 -0.7349  0.9832 -0.1840
15739TIP3    H268709   5.207   4.241   4.106  0.3749  0.2133  0.2941
15740TIP3   OH268710   6.193   4.018  14.588  0.5047 -0.1059  0.0827
15740TIP3    H168711   6.162   4.016  14.498  1.0742 -1.0166 -0.1008
15740TIP3    H268712   6.222   3.929  14.605 -0.5936 -0.2120  1.5193
15741TIP3   OH268713   1.408   4.134   2.248 -0.3016 -0.3970  0.2348
15741TIP3    H168714   1.381   4.057   2.198  0.2566  0.6233 -1.6669
15741TIP3    H268715   1.435   4.099   2.333 -2.1468 -2.0446  0.1826
15742TIP3   OH268716   5.744   0.147  16.151 -0.0857 -0.2671 -0.2484
15742TIP3    H168717   5.791   0.083  16.205  2.9394  1.5836 -0.5315
15742TIP3    H268718   5.751   0.229  16.201  2.2912  1.3666 -3.0533
15743TIP3   OH268719   6.028   0.030   4.276  0.5566  0.6304 -0.6191
15743TIP3    H168720   6.101  -0.032   4.281  1.6691  1.9612 -0.1719
15743TIP3    H268721   5.994   0.019   4.187  1.2534 -0.0374 -0.8102
15744TIP3   OH268722   2.551   6.281   2.613 -0.1606 -0.1828  0.3555
15744TIP3    H168723   2.643   6.275   2.639  0.1962 -0.9354 -1.0825
15744TIP3    H268724   2.552   6.326   2.529 -1.0869 -0.4572  0.1903
15745TIP3   OH268725   1.737   3.439  16.932 -0.0327 -0.9010  0.0419
15745TIP3    H168726   1.801   3.507  16.955 -0.1666 -0.5821 -0.5188
15745TIP3    H268727   1.697   3.470  16.851 -0.4700 -1.3967  0.0615
15746TIP3   OH268728   3.738   6.315  14.634  0.0064  0.5800 -0.4064
15746TIP3    H168729   3.731   6.289  14.726 -1.3972  1.3884 -0.2665
15746TIP3    H268730   3.649   6.344  14.611 -0.4038 -2.2825 -2.8205
15747TIP3   OH268731   1.286   6.800  15.161  0.0349  0.6027  0.3017
15747TIP3    H168732   1.346   6.746  15.110 -1.2013  0.2729 -0.8333
15747TIP3    H268733   1.221   6.739  15.195 -1.3201  1.3281 -0.9078
15748TIP3   OH268734   0.111   5.514  15.821 -0.1082  0.5447  0.5474
15748TIP3    H168735   0.123   5.420  15.834 -0.7814  0.0758 -2.0013
15748TIP3    H268736   0.200   5.550  15.818  0.1458  0.0308  1.6406
15749TIP3   OH268737   5.789   3.303   1.047 -0.0594 -0.5760 -0.2098
15749TIP3    H168738   5.873   3.307   1.003 -0.2689  2.0902 -0.4036
15749TIP3    H268739   5.725   3.294   0.976 -0.1391  0.2526 -0.2469
15750TIP3   OH268740   4.876   0.624  12.335  0.3703  0.3537  0.2515
15750TIP3    H168741   4.792   0.667  12.317  0.7416  0.6057 -0.9081
15750TIP3    H268742   4.852   0.545  12.383 -0.6831 -0.4287 -1.4778
15751TIP3   OH268743   4.530   5.885   5.807 -0.1941 -0.9688  0.2045
15751TIP3    H168744   4.575   5.833   5.874  0.1383  0.1897  0.8988
15751TIP3    H268745   4.581   5.870   5.728 -0.2033 -1.8384  0.3561
15752TIP3   OH268746   6.259   2.098  12.462  0.0821  0.4227 -0.0241
15752TIP3    H168747   6.251   2.163  12.392 -0.3799  0.1169 -0.2608
15752TIP3    H268748   6.255   2.013  12.416  1.8710  0.2263  0.1530
15753TIP3   OH268749   2.560   0.709  16.227 -0.2225  0.0937 -0.4918
15753TIP3    H168750   2.530   0.618  16.234  1.2210 -0.3677 -0.2850
15753TIP3    H268751   2.588   0.717  16.136  0.0737  0.2001 -0.3906
15754TIP3   OH268752   0.424   3.299  13.932  0.2739  0.0657  0.5608
15754TIP3    H168753   0.485   3.363  13.896  0.5726  0.5342  1.8747
15754TIP3    H268754   0.340   3.323  13.892  1.0018 -0.8685 -1.6028
15755TIP3   OH268755   0.898   0.812   2.115  0.0118  0.0867  0.0515
15755TIP3    H168756   0.894   0.795   2.021 -0.5170 -0.8969  0.2405
15755TIP3    H268757   0.912   0.725   2.154  0.4779  0.5258  0.8609
15756TIP3   OH268758   6.521   6.141   0.294 -0.7343  0.0351 -0.0299
15756TIP3    H168759   6.568   6.223   0.305 -0.6639 -0.0757  0.4696
15756TIP3    H268760   6.480   6.148   0.207 -1.0656  0.7602  0.1875
15757TIP3   OH268761   5.569   5.631  13.201  0.0271  0.3169 -0.2806
15757TIP3    H168762   5.598   5.553  13.249  0.7356  0.9232  0.3060
15757TIP3    H268763   5.481   5.649  13.234  0.2273  0.2993  0.2709
15758TIP3   OH268764   3.465   0.080   1.401 -0.1532 -0.3219  0.2154
15758TIP3    H168765   3.389   0.138   1.399 -0.8480 -1.2636 -1.9280
15758TIP3    H268766   3.531   0.128   1.452 -1.6839  1.1069  0.8850
15759TIP3   OH268767   5.314   6.473   4.993  0.2412  0.0540  0.1257
15759TIP3    H168768   5.300   6.415   5.068  1.6850  0.8611  1.0518
15759TIP3    H268769   5.391   6.437   4.950  1.5739  1.6314  1.1035
15760TIP3   OH268770   1.901   0.670   3.301  0.2153  0.3440  0.4966
15760TIP3    H168771   1.987   0.638   3.275  0.2884 -0.5854  1.8463
15760TIP3    H268772   1.899   0.661   3.397 -1.7253 -0.5114  0.4144
15761TIP3   OH268773   1.458   4.454   4.979 -0.6401 -0.0606  0.1159
15761TIP3    H168774   1.519   4.424   4.911 -0.5111  0.0095  0.2016
15761TIP3    H268775   1.372   4.448   4.937 -0.5543  0.0450 -0.0782
15762TIP3   OH268776   3.872   3.210   3.332  0.0802 -0.1118 -0.3532
15762TIP3    H168777   3.823   3.227   3.412 -0.6501  1.1968 -1.0780
15762TIP3    H268778   3.947   3.157   3.361 -0.5431 -0.2247  1.0825
15763TIP3   OH268779   3.480   0.063   4.198  0.4822 -0.3111 -0.3851
15763TIP3    H168780   3.387   0.057   4.175  0.3989  0.7989 -0.3803
15763TIP3    H268781   3.503   0.154   4.179  0.9897  0.0307  1.7690
15764TIP3   OH268782   0.410   6.641   0.691  0.0487  0.7489 -0.0790
15764TIP3    H168783   0.408   6.603   0.603 -0.7624 -0.2521  0.3651
15764TIP3    H268784   0.350   6.715   0.687  0.1481  0.8111 -0.4209
15765TIP3   OH268785   6.816   1.581  12.384 -0.7364  0.2406 -0.0872
15765TIP3    H168786   6.723   1.561  12.369 -0.5917  0.4482 -1.3263
15765TIP3    H268787   6.816   1.671  12.415 -1.0520 -0.2225  1.3096
15766TIP3   OH268788   4.039   5.398  13.490 -0.2666 -0.3319 -0.0001
15766TIP3    H168789   3.987   5.445  13.425 -0.4582 -0.3067  0.1720
15766TIP3    H268790   4.031   5.306  13.466 -1.8178 -0.4816  1.0654
15767TIP3   OH268791   0.944   1.580   0.713 -0.1015 -0.4368 -0.1548
15767TIP3    H168792   0.869   1.548   0.764 -0.2719  0.5147  0.1926
15767TIP3    H268793   0.999   1.503   0.702  0.3981 -0.4561  2.2523
15768TIP3   OH268794   2.425   5.571   2.293  0.1332  0.3139  0.0472
15768TIP3    H168795   2.367   5.612   2.228 -0.1243 -1.1434 -0.6590
15768TIP3    H268796   2.402   5.478   2.290 -1.4362  0.5094  3.8278
15769TIP3   OH268797   4.397   0.878  15.504 -0.2647 -0.3598  0.3117
15769TIP3    H168798   4.450   0.931  15.563 -1.5491  2.2470 -0.7908
15769TIP3    H268799   4.309   0.882  15.541 -0.7562 -0.0473 -0.8525
15770TIP3   OH268800   2.692   1.874   2.083  0.2767 -0.2971  0.0142
15770TIP3    H168801   2.695   1.969   2.097  1.7623 -0.4960  1.1644
15770TIP3    H268802   2.782   1.845   2.095  0.1687 -1.6382 -2.0925
15771TIP3   OH268803   5.129   4.378   4.173 -0.9758  0.4651 -0.0883
15771TIP3    H168804   5.176   4.437   4.114  0.8893 -0.7948  0.1031
15771TIP3    H268805   5.057   4.431   4.207  0.6579  2.6439  0.0897
15772TIP3   OH268806   0.544   2.213   1.182 -0.5594 -0.5805 -0.5152
15772TIP3    H168807   0.571   2.266   1.108  1.5154 -1.0365 -0.1187
15772TIP3    H268808   0.504   2.275   1.243  2.7607  0.7568  0.4075
15773TIP3   OH268809   5.191   1.592  17.163 -0.4460  0.4056 -0.1985
15773TIP3    H168810   5.243   1.656  17.211 -0.5504 -0.1903  0.7228
15773TIP3    H268811   5.154   1.535  17.231 -0.5055 -0.5149 -0.9930
15774TIP3   OH268812   0.402   2.067  11.237 -0.2245 -0.1528  0.1139
15774TIP3    H168813   0.368   2.041  11.323  0.3688  0.2059  0.4617
15774TIP3    H268814   0.481   2.117  11.257 -1.2760  1.8275 -0.5334
15775TIP3   OH268815   4.049   0.758  13.446  0.3743 -0.0455  0.6741
15775TIP3    H168816   3.997   0.753  13.526  0.6564  0.5164  0.8988
15775TIP3    H268817   3.992   0.724  13.378  0.1426 -0.5619  1.1215
15776TIP3   OH268818   4.238   6.365  13.929  0.5978  0.6224  0.0644
15776TIP3    H168819   4.308   6.424  13.902  1.0766  0.4021  0.8279
15776TIP3    H268820   4.271   6.321  14.007  0.0827 -0.3669 -0.2651
15777TIP3   OH268821   3.512   3.939   4.564  0.1956  0.2954  0.5435
15777TIP3    H168822   3.540   4.026   4.594  1.7093 -0.3090  0.9045
15777TIP3    H268823   3.451   3.909   4.632 -0.9372  1.3859  0.0258
15778TIP3   OH268824   0.323   0.866   2.627  0.2062  0.0952 -0.9236
15778TIP3    H168825   0.301   0.955   2.598 -1.6438 -0.2885 -0.7530
15778TIP3    H268826   0.396   0.879   2.688 -1.6965  1.8023  1.1216
15779TIP3   OH268827   5.638   5.890  10.314 -0.1577  0.4863 -0.3702
15779TIP3    H168828   5.547   5.866  10.332 -0.0884  1.5961  1.5734
15779TIP3    H268829   5.690   5.816  10.346 -0.3879 -0.3152 -1.8306
15780TIP3   OH268830   1.203   6.130   4.757  0.1490 -0.5229  0.0345
15780TIP3    H168831   1.168   6.201   4.810  0.3523  1.4390 -2.4044
15780TIP3    H268832   1.275   6.094   4.810 -0.5256  0.4738  1.6640
15781TIP3   OH268833   1.559   0.760  12.073 -0.5032 -0.2935  0.3147
15781TIP3    H168834   1.542   0.770  11.980 -0.3002 -1.0532  0.1959
15781TIP3    H268835   1.473   0.766  12.114 -0.4646  1.3042  0.1992
15782TIP3   OH268836   4.364   4.534  11.873  0.6244  0.2148  0.1284
15782TIP3    H168837   4.309   4.551  11.950  0.7478 -0.4419  0.3626
15782TIP3    H268838   4.362   4.616  11.824  1.4301  1.0024  1.3766
15783TIP3   OH268839   1.238   3.733   5.307 -0.0271  0.1789  0.3579
15783TIP3    H168840   1.245   3.817   5.352  0.0105 -0.4149  1.4736
15783TIP3    H268841   1.321   3.690   5.324  0.8089  0.7891 -2.0368
15784TIP3   OH268842   6.376   6.063   2.238  0.0369 -0.3628 -0.1664
15784TIP3    H168843   6.355   6.071   2.331 -0.1458  0.1778 -0.2529
15784TIP3    H268844   6.293   6.041   2.196  0.1026 -0.5206 -0.2124
15785TIP3   OH268845   0.072   1.964  14.348  0.4260  0.1603  0.0798
15785TIP3    H168846  -0.003   2.024  14.348 -0.6180 -1.1211  0.6209
15785TIP3    H268847   0.147   2.021  14.360 -0.5118  1.4292  0.0756
15786TIP3   OH268848   0.354   1.790   1.415 -0.3606 -0.2368 -0.4448
15786TIP3    H168849   0.414   1.857   1.446 -1.7833  0.6797  0.4007
15786TIP3    H268850   0.322   1.822   1.331  0.4984 -0.8365 -1.0072
15787TIP3   OH268851   2.459   0.398   0.310  0.0030 -0.4344  0.3212
15787TIP3    H168852   2.534   0.349   0.276  0.3718  0.7520 -0.5991
15787TIP3    H268853   2.408   0.420   0.232  1.0542  2.6443  0.4268
15788TIP3   OH268854   5.054   4.273  14.989 -0.3013 -0.1571  0.3250
15788TIP3    H168855   5.106   4.351  14.969 -0.6558 -0.1128 -0.4340
15788TIP3    H268856   4.963   4.301  14.977 -0.4957 -0.3003  1.4161
15789TIP3   OH268857   3.511   6.013  14.142 -0.5931  0.2199  0.8729
15789TIP3    H168858   3.558   5.983  14.219  0.0958 -2.2278 -0.4308
15789TIP3    H268859   3.552   6.096  14.119  2.2815 -1.2357  0.5298
15790TIP3   OH268860   6.749   1.246  13.825 -0.4038 -0.1991 -0.0148
15790TIP3    H168861   6.704   1.200  13.754 -3.7985 -0.8118  2.4077
15790TIP3    H268862   6.748   1.185  13.898 -2.0261  2.4131  2.2611
15791TIP3   OH268863   5.063   4.555   4.611  0.2602  0.2652 -0.0983
15791TIP3    H168864   5.142   4.505   4.590 -0.2344 -0.9683  0.8690
15791TIP3    H268865   5.093   4.629   4.663  0.8672  0.2779 -0.4719
15792TIP3   OH268866   6.682   1.314   0.947 -0.2172 -0.1108 -0.1121
15792TIP3    H168867   6.682   1.218   0.943  0.4057 -0.0301 -2.9729
15792TIP3    H268868   6.767   1.336   0.986  0.4189 -0.7087 -1.1190
15793TIP3   OH268869   6.383   2.977  15.433  0.6004 -0.0139 -0.6944
15793TIP3    H168870   6.301   3.021  15.455  1.0882 -0.4898  2.2502
15793TIP3    H268871   6.360   2.884  15.428  0.7212 -0.0201 -1.2071
15794TIP3   OH268872   1.717   2.302  14.715 -0.0309 -0.3772 -0.1477
15794TIP3    H168873   1.707   2.288  14.621  1.2140 -1.9343 -0.0769
15794TIP3    H268874   1.810   2.322  14.727 -0.6070  2.0664  0.5050
15795TIP3   OH268875   4.201   3.378   1.576  0.1406 -0.4874 -0.1152
15795TIP3    H168876   4.162   3.463   1.597 -1.3352 -1.2421  0.2676
15795TIP3    H268877   4.229   3.342   1.660  2.1149  0.2429 -0.4339
15796TIP3   OH268878   2.475   1.268   5.967 -0.6608 -0.3541  0.2442
15796TIP3    H168879   2.500   1.265   6.059  0.0833 -2.0793  0.0115
15796TIP3    H268880   2.535   1.331   5.928  0.6680 -1.4577  0.4759
15797TIP3   OH268881   2.508   0.584  11.096 -0.5627 -0.0509  0.7249
15797TIP3    H168882   2.442   0.614  11.033  0.1850  0.9601  0.4054
15797TIP3    H268883   2.489   0.633  11.176  0.1903  0.7222  0.4365
15798TIP3   OH268884   0.992   6.222   1.475 -0.1701  0.4394 -0.5901
15798TIP3    H168885   0.961   6.133   1.461 -0.0201  0.4601 -1.0762
15798TIP3    H268886   0.924   6.278   1.437  0.4661  0.4815 -1.7167
15799TIP3   OH268887   0.938   0.567   4.933 -0.3688 -0.2656  0.1296
15799TIP3    H168888   0.855   0.520   4.935 -0.8547  0.5885  0.8339
15799TIP3    H268889   1.000   0.510   4.978 -0.6195 -0.8256 -0.2396
15800TIP3   OH268890   3.485   4.340  15.630 -0.1331  0.8029 -0.2384
15800TIP3    H168891   3.505   4.289  15.551  0.8901  0.2225  0.3716
15800TIP3    H268892   3.524   4.288  15.701 -0.5147  1.6278  0.5693
15801TIP3   OH268893   2.310   5.043  12.628 -0.2683 -0.0262 -0.1650
15801TIP3    H168894   2.328   4.974  12.564  0.0193  0.0145 -0.1275
15801TIP3    H268895   2.305   5.123  12.576 -3.4101 -0.4195 -0.6146
15802TIP3   OH268896   1.620   6.477   4.052  0.4753 -0.2935  0.3556
15802TIP3    H168897   1.633   6.521   4.136 -0.3199 -1.7739  1.2931
15802TIP3    H268898   1.525   6.477   4.039  0.2510 -3.4618  1.4111
15803TIP3   OH268899   2.229   4.249  12.731 -0.1003 -0.5984  0.5055
15803TIP3    H168900   2.308   4.202  12.704 -0.3589 -0.4921 -0.4350
15803TIP3    H268901   2.178   4.183  12.780  0.9875 -0.4056  1.9179
15804TIP3   OH268902   2.686   3.422   5.755 -0.0178  0.2320 -0.0854
15804TIP3    H168903   2.652   3.462   5.836 -0.9127  0.7691 -0.7082
15804TIP3    H268904   2.723   3.339   5.783  0.3586  0.7525  0.9945
15805TIP3   OH268905   1.656   5.081  12.604 -0.7819 -0.2319 -0.3435
15805TIP3    H168906   1.730   5.103  12.547  0.8186 -0.0732  1.7351
15805TIP3    H268907   1.695   5.071  12.691 -2.9418 -2.0020  0.4609
15806TIP3   OH268908   1.810   3.209  12.201  0.6067  0.6828  0.1182
15806TIP3    H168909   1.832   3.186  12.111  1.0189 -0.8248  0.5763
15806TIP3    H268910   1.894   3.231  12.242  0.2111  3.1690 -0.3260
15807TIP3   OH268911   2.406   1.866  10.586 -0.1273  0.2064  0.4373
15807TIP3    H168912   2.345   1.825  10.525  2.2384 -0.9449 -1.2205
15807TIP3    H268913   2.405   1.959  10.563  0.5330 -0.1769 -1.1819
15808TIP3   OH268914   4.014   1.457   4.171 -0.4360  0.4433  0.2787
15808TIP3    H168915   3.988   1.471   4.262  1.8706  1.8861  0.7635
15808TIP3    H268916   3.931   1.457   4.122 -1.6030  1.1453  2.1976
15809TIP3   OH268917   5.522   2.130  11.239  0.5310  0.0326 -0.0609
15809TIP3    H168918   5.455   2.128  11.308 -0.6555 -1.7243 -1.2087
15809TIP3    H268919   5.603   2.103  11.283 -0.0829 -0.4436  0.7837
15810TIP3   OH268920   4.411   4.302  11.394  0.4610 -0.8083 -0.1308
15810TIP3    H168921   4.446   4.352  11.467 -0.6224 -0.3168  0.0559
15810TIP3    H268922   4.426   4.211  11.417  1.8079 -0.5986 -0.1514
15811TIP3   OH268923   1.980   4.660  14.824 -0.1522 -0.7807  0.2895
15811TIP3    H168924   1.963   4.594  14.892  0.3640 -0.0830  1.1042
15811TIP3    H268925   1.981   4.743  14.871  0.6924 -0.3346 -0.4961
15812TIP3   OH268926   3.867   2.277   5.913 -0.9114  0.2627  0.7987
15812TIP3    H168927   3.941   2.227   5.948  0.0451  2.5847  2.1911
15812TIP3    H268928   3.794   2.255   5.970 -0.5142  0.3926  1.3603
15813TIP3   OH268929   1.910   4.790  15.837 -0.4959  0.2647  0.1067
15813TIP3    H168930   1.910   4.759  15.928 -2.5506 -0.4249 -0.1173
15813TIP3    H268931   1.991   4.754  15.800 -0.0287 -0.0972  1.4492
15814TIP3   OH268932   3.621   4.743   0.143 -0.2948  0.1847  0.4343
15814TIP3    H168933   3.538   4.776   0.179 -0.6232  0.0927 -0.2158
15814TIP3    H268934   3.594   4.683   0.074  0.3123  0.9245 -0.4682
15815TIP3   OH268935   1.488   4.939   5.400 -0.7338 -0.6263  0.3846
15815TIP3    H168936   1.551   5.009   5.416 -0.4892 -0.6488 -0.4703
15815TIP3    H268937   1.403   4.984   5.396 -0.4433 -0.1819 -1.4567
15816TIP3   OH268938   3.709   3.405  14.371  0.0393 -0.0284 -0.3250
15816TIP3    H168939   3.783   3.460  14.345 -0.0617  0.5731  0.6381
15816TIP3    H268940   3.738   3.361  14.451 -0.3369 -0.4434 -0.4094
15817TIP3   OH268941   2.752   6.014  16.225 -0.1483  0.1809 -0.1451
15817TIP3    H168942   2.842   6.008  16.194  0.6006 -0.7608  2.0727
15817TIP3    H268943   2.724   5.922  16.234 -0.3916  0.4130  1.6906
15818TIP3   OH268944   3.637   5.520  12.179  0.7002  0.4324  0.5439
15818TIP3    H168945   3.681   5.479  12.253  2.3951  0.4219 -0.4447
15818TIP3    H268946   3.596   5.599  12.217  0.2542 -0.3733  1.7744
15819TIP3   OH268947   6.518   0.841   5.152 -0.1055  0.1316  0.1320
15819TIP3    H168948   6.521   0.748   5.174  0.3902 -0.4898 -2.4097
15819TIP3    H268949   6.598   0.878   5.189  0.3915 -0.7438 -0.0685
15820TIP3   OH268950   4.603   5.931   3.935  0.1838 -0.1037  0.1505
15820TIP3    H168951   4.692   5.941   3.969 -0.0901  0.7376  0.6401
15820TIP3    H268952   4.612   5.943   3.840  1.1103 -3.5437 -0.2753
15821TIP3   OH268953   6.546   5.064  16.841  0.2333  0.5745  0.3457
15821TIP3    H168954   6.526   4.994  16.778  1.7295 -0.1923  0.6856
15821TIP3    H268955   6.480   5.054  16.910  0.0620 -0.1312  0.0862
15822TIP3   OH268956   2.100   1.184  11.409  0.2678  0.4214 -0.1817
15822TIP3    H168957   2.110   1.117  11.342  0.3779  0.1419  0.1144
15822TIP3    H268958   2.099   1.267  11.360 -0.0970  0.1938 -0.5636
15823TIP3   OH268959   5.820   6.506   4.519  0.3208  0.0897 -0.2196
15823TIP3    H168960   5.749   6.442   4.516 -0.3324  0.6508  2.0629
15823TIP3    H268961   5.884   6.474   4.455 -1.1570 -1.4180 -0.9868
15824TIP3   OH268962   0.805   3.220  16.594  0.5313  0.1353 -0.8803
15824TIP3    H168963   0.792   3.312  16.574 -0.9638  0.5417  1.6300
15824TIP3    H268964   0.723   3.178  16.567  1.3688 -0.5404 -2.4021
15825TIP3   OH268965   0.661   2.014   4.880 -0.6488 -0.4928 -0.9312
15825TIP3    H168966   0.673   2.086   4.942  0.2335 -0.0299 -1.6221
15825TIP3    H268967   0.635   2.056   4.798 -1.0136 -1.0310 -1.0934
15826TIP3   OH268968   0.264   4.266   0.729 -0.5281  0.6713 -0.8588
15826TIP3    H168969   0.317   4.345   0.738 -0.4566  0.5171  0.0664
15826TIP3    H268970   0.318   4.207   0.677  0.3200  0.4193  0.2931
15827TIP3   OH268971   4.844   3.551   1.459 -0.7501 -0.4147 -0.1364
15827TIP3    H168972   4.847   3.470   1.510 -0.0796  0.5508  1.3847
15827TIP3    H268973   4.842   3.522   1.368 -0.7920 -2.1419  0.4040
15828TIP3   OH268974   4.693   5.210   5.477 -0.5651 -0.1781 -0.1704
15828TIP3    H168975   4.698   5.191   5.570  1.9969 -0.9189 -0.3955
15828TIP3    H268976   4.678   5.125   5.436  1.6486 -0.3973 -0.6017
15829TIP3   OH268977   5.550   1.522   3.944 -0.0669 -0.1671  0.7312
15829TIP3    H168978   5.593   1.463   4.005  0.2434  0.5979  1.2627
15829TIP3    H268979   5.512   1.465   3.877  1.7560 -0.8642  0.2517
15830TIP3   OH268980   0.930   0.972  11.910  0.5496  0.0314 -1.1905
15830TIP3    H168981   0.986   0.895  11.911  0.7672  0.1886  1.0722
15830TIP3    H268982   0.958   1.021  11.832  3.5826  0.1268 -0.0759
15831TIP3   OH268983   2.013   3.494   4.532 -0.3857 -0.2173 -0.4426
15831TIP3    H168984   1.983   3.585   4.535 -0.3990 -0.2392  0.1102
15831TIP3    H268985   2.106   3.500   4.512 -1.1650 -0.2213 -4.3539
15832TIP3   OH268986   4.735   4.893  17.292 -0.3503  0.4670  0.6006
15832TIP3    H168987   4.676   4.918  17.221 -0.1949  1.2403  0.7337
15832TIP3    H268988   4.685   4.832  17.345 -0.8249  0.6645  0.3792
15833TIP3   OH268989   6.767   4.323  12.933 -0.1729  0.2738  0.0468
15833TIP3    H168990   6.810   4.344  12.850 -0.3763 -0.2802 -0.2003
15833TIP3    H268991   6.816   4.373  12.998 -0.7374  1.6144 -0.5452
15834TIP3   OH268992   4.771   5.546   4.009  0.6953  0.3423  0.3296
15834TIP3    H168993   4.739   5.566   4.097 -0.7733  3.6077 -0.8716
15834TIP3    H268994   4.711   5.479   3.976  0.6879 -0.2023  1.4095
15835TIP3   OH268995   0.343   5.216  12.576  0.0433 -0.2710 -0.0656
15835TIP3    H168996   0.300   5.160  12.512  1.1033 -0.2137 -0.8330
15835TIP3    H268997   0.376   5.290  12.526  1.3173 -0.4697  0.4400
15836TIP3   OH268998   3.796   1.323  12.414  0.4767 -0.7753 -0.0330
15836TIP3    H168999   3.791   1.272  12.333 -0.1083 -1.3824  0.3677
15836TIP3    H269000   3.729   1.391  12.404  0.4628 -0.7986 -0.0952
15837TIP3   OH269001   3.070   5.236  11.621  0.7614  1.2354  0.2915
15837TIP3    H169002   3.017   5.314  11.602  1.2100  1.2377 -1.0043
15837TIP3    H269003   3.117   5.219  11.539  0.7821 -0.3109  0.6168
15838TIP3   OH269004   6.584   0.439  16.048  0.8754 -0.4036 -0.3757
15838TIP3    H169005   6.496   0.474  16.034  1.2044  0.0501 -1.3405
15838TIP3    H269006   6.638   0.516  16.065  1.1757 -0.6380 -0.2639
15839TIP3   OH269007   6.010   5.100  14.767 -0.5267  0.2365  0.3095
15839TIP3    H169008   6.044   5.119  14.679 -1.5714 -0.2014 -0.1920
15839TIP3    H269009   6.048   5.014  14.789 -2.6232 -1.0568 -0.9555
15840TIP3   OH269010   0.344   1.155  16.305  0.0457 -0.5843 -0.2042
15840TIP3    H169011   0.297   1.113  16.233  0.5387 -0.7959 -0.4013
15840TIP3    H269012   0.292   1.135  16.383 -0.1504 -0.8793 -0.4120
15841TIP3   OH269013   5.102   2.918   2.668  0.2464  0.2000 -0.1728
15841TIP3    H169014   5.131   2.946   2.581 -1.7987  1.6548 -0.4336
15841TIP3    H269015   5.148   2.977   2.728 -2.3330  2.7923 -0.6047
15842TIP3   OH269016   4.673   0.609   0.504  0.0319  0.2504 -0.1159
15842TIP3    H169017   4.754   0.660   0.512 -0.5795  1.0866  0.7920
15842TIP3    H269018   4.702   0.523   0.473  1.4063  0.1446  1.4442
15843TIP3   OH269019   0.838   0.983  12.158 -0.0751  0.0865 -0.3464
15843TIP3    H169020   0.837   0.962  12.064 -2.9688 -0.6241 -0.2128
15843TIP3    H269021   0.811   1.075  12.161  0.5403  0.2634 -0.2358
15844TIP3   OH269022   0.106   4.131  12.097  0.3928 -0.8230  0.2649
15844TIP3    H169023   0.128   4.045  12.062  1.5454 -0.9161  1.1861
15844TIP3    H269024   0.191   4.175  12.106 -0.1694  0.3447 -0.0223
15845TIP3   OH269025   6.577   6.262  14.714  0.0451  0.4057  0.4920
15845TIP3    H169026   6.634   6.203  14.664 -0.8681 -0.6587  0.6771
15845TIP3    H269027   6.533   6.205  14.776 -2.9275  0.8158 -1.1637
15846TIP3   OH269028   2.985   0.662   2.477  0.6483  0.0581 -0.3353
15846TIP3    H169029   2.954   0.744   2.518 -0.7850  0.3871 -2.0021
15846TIP3    H269030   2.985   0.681   2.384  1.0843 -1.6030 -0.6839
15847TIP3   OH269031   2.452   4.941  12.852  0.2476  0.0878  0.0357
15847TIP3    H169032   2.530   4.911  12.807 -0.0526 -0.1999 -0.2906
15847TIP3    H269033   2.402   4.987  12.785  0.4930  0.9299  0.4238
15848TIP3   OH269034   0.219   2.807   1.604 -0.4422 -0.2228 -0.0572
15848TIP3    H169035   0.309   2.837   1.598 -0.5809  0.1817 -0.1401
15848TIP3    H269036   0.183   2.822   1.516 -0.0823 -2.0178 -0.5237
15849TIP3   OH269037   3.786   3.607   3.016  0.5663  0.2917  0.3611
15849TIP3    H169038   3.798   3.560   2.934  0.2092  1.4423 -0.3583
15849TIP3    H269039   3.818   3.546   3.083  1.9377 -0.1974 -0.7194
15850TIP3   OH269040   3.138   0.308  13.054  0.3152 -0.2928  0.2923
15850TIP3    H169041   3.121   0.216  13.072 -0.7149 -0.4970 -1.5672
15850TIP3    H269042   3.069   0.334  12.993  0.7109  1.6547  0.6429
15851TIP3   OH269043   2.085   0.331   0.966 -0.2624  0.1670 -0.4745
15851TIP3    H169044   2.113   0.328   1.058 -1.6092  2.6528  0.0503
15851TIP3    H269045   2.051   0.244   0.949 -0.2587 -0.2481  1.4827
15852TIP3   OH269046   3.633   5.407   4.093  0.6783  0.0305 -0.5169
15852TIP3    H169047   3.717   5.427   4.051  0.4158  0.7346 -0.7203
15852TIP3    H269048   3.648   5.324   4.138  1.0271 -0.6232 -1.8172
15853TIP3   OH269049   2.083   3.290   0.503 -0.3230 -0.6222 -0.4080
15853TIP3    H169050   2.130   3.213   0.471 -0.1101 -1.1269  1.0775
15853TIP3    H269051   2.148   3.360   0.500 -0.4557 -0.5283 -1.5567
15854TIP3   OH269052   6.448   1.329  11.963  0.0862  0.5673  0.0832
15854TIP3    H169053   6.453   1.241  11.926 -2.0176  0.8748 -1.0013
15854TIP3    H269054   6.506   1.327  12.039 -1.3868 -2.3217  1.1718
15855TIP3   OH269055   5.062   0.522   2.519  0.0023  0.5109 -0.0304
15855TIP3    H169056   5.011   0.497   2.442  1.0711  0.2629 -0.6639
15855TIP3    H269057   5.122   0.449   2.533 -1.2032 -0.1190  1.9361
15856TIP3   OH269058   0.821   1.401   4.877  0.3338  0.2145 -0.4817
15856TIP3    H169059   0.908   1.361   4.867  1.6399  2.3083  1.8674
15856TIP3    H269060   0.784   1.359   4.954 -0.3193  0.0573 -0.8843
15857TIP3   OH269061   5.413   1.819  15.372 -0.1934  0.0470 -0.5363
15857TIP3    H169062   5.398   1.888  15.437  0.4151  1.1419 -1.5530
15857TIP3    H269063   5.425   1.740  15.425 -1.6477  0.5506  0.6114
15858TIP3   OH269064   1.498   4.961  14.913  0.4746  0.0254 -0.4883
15858TIP3    H169065   1.489   4.866  14.905 -2.0307  0.0839  1.1151
15858TIP3    H269066   1.408   4.994  14.912  1.3040  2.3687 -0.8859
15859TIP3   OH269067   3.338   4.438   4.774 -0.2777  0.0502 -0.1304
15859TIP3    H169068   3.300   4.510   4.823  1.1530  0.9144 -0.2818
15859TIP3    H269069   3.432   4.443   4.791 -0.0664 -1.2631 -0.8116
15860TIP3   OH269070   0.437   5.907  14.468  0.5520  0.2262  0.0973
15860TIP3    H169071   0.353   5.912  14.424  1.3217 -0.8339 -1.5486
15860TIP3    H269072   0.417   5.868  14.553 -0.5322 -0.6753 -0.5524
15861TIP3   OH269073   2.154   5.146  13.428 -0.0817  0.1186  0.0996
15861TIP3    H169074   2.214   5.072  13.446  0.5035  0.8158  1.0589
15861TIP3    H269075   2.210   5.223  13.431 -1.3136  0.9441  2.6193
15862TIP3   OH269076   3.026   3.989   0.502 -0.1835  0.4086 -0.3714
15862TIP3    H169077   2.992   3.903   0.525 -0.7416  0.5745 -0.5613
15862TIP3    H269078   3.054   3.981   0.411 -0.7655  0.5792 -0.5711
15863TIP3   OH269079   6.090   0.223   1.334  0.2200  0.5020  0.2783
15863TIP3    H169080   6.086   0.300   1.391  0.1273  0.6463  0.0778
15863TIP3    H269081   6.007   0.224   1.286 -0.3011 -0.3956  1.1373
15864TIP3   OH269082   4.874   0.475   0.813  0.3013 -0.7432 -0.8835
15864TIP3    H169083   4.916   0.409   0.757 -0.0810 -1.4342 -0.3532
15864TIP3    H269084   4.850   0.546   0.752  1.2207 -0.8376 -1.3619
15865TIP3   OH269085   4.286   6.028   5.803  0.2366 -0.5834  0.2030
15865TIP3    H169086   4.362   5.970   5.798  0.6669 -0.0307  0.3282
15865TIP3    H269087   4.308   6.092   5.871 -0.5970 -0.7905  0.6834
15866TIP3   OH269088   0.824   1.000   3.136 -0.4516 -0.3372  0.1357
15866TIP3    H169089   0.893   0.935   3.127  1.1600  1.2010  1.1698
15866TIP3    H269090   0.847   1.050   3.214 -0.9380  2.2955 -1.3161
15867TIP3   OH269091   3.401   2.181  11.924  0.5081  0.0572  0.1301
15867TIP3    H169092   3.313   2.199  11.958  1.2380  0.4164  1.9062
15867TIP3    H269093   3.453   2.165  12.003  2.0538 -0.0237 -0.9096
15868TIP3   OH269094   3.636   1.104   2.152  0.0280 -0.1277 -0.1604
15868TIP3    H169095   3.640   1.171   2.084 -0.2591 -0.8531 -0.9071
15868TIP3    H269096   3.713   1.120   2.206 -1.0650  1.9662  0.8020
15869TIP3   OH269097   2.667   6.170  15.784 -0.0102 -0.2872 -0.3380
15869TIP3    H169098   2.627   6.084  15.796 -2.1924  0.8984  1.3586
15869TIP3    H269099   2.745   6.169  15.840  0.3459 -1.3668 -0.8428
15870TIP3   OH269100   4.234   5.025   4.621  0.2932 -0.2283  0.1323
15870TIP3    H169101   4.169   5.054   4.557 -1.3791 -1.5627  1.1837
15870TIP3    H269102   4.258   5.104   4.669 -0.9596  0.1683  0.0983
15871TIP3   OH269103   1.284   0.828   5.602 -0.1329  0.3872 -0.4951
15871TIP3    H169104   1.325   0.836   5.515  0.2107 -0.4096 -0.4138
15871TIP3    H269105   1.239   0.743   5.599 -0.4993  0.5637 -0.0473
15872TIP3   OH269106   3.763   6.388  11.074  0.1339 -0.1899  0.4963
15872TIP3    H169107   3.772   6.427  10.987 -0.0588 -1.3615 -0.0474
15872TIP3    H269108   3.822   6.312  11.073 -1.7453 -1.6791  0.5358
15873TIP3   OH269109   2.634   6.362  11.333  0.1294 -0.1193 -0.0150
15873TIP3    H169110   2.691   6.311  11.277  1.6605  0.4209  1.0320
15873TIP3    H269111   2.545   6.333  11.310  0.7844 -0.6587 -1.9327
15874TIP3   OH269112   2.059   5.643  15.090 -0.1404  0.6287 -0.1050
15874TIP3    H169113   2.102   5.727  15.074 -0.1230  0.8027  0.8428
15874TIP3    H269114   1.966   5.665  15.093 -0.1117  0.6607  0.4697
15875TIP3   OH269115   4.875   1.447  12.482  0.2329  0.4203 -0.5825
15875TIP3    H169116   4.865   1.414  12.393 -0.6804 -0.4643 -0.1687
15875TIP3    H269117   4.969   1.460  12.493  0.2141  2.1934 -2.2485
15876TIP3   OH269118   5.368   1.422   0.804 -0.4294  0.2165 -0.3589
15876TIP3    H169119   5.415   1.452   0.882  0.6453  3.0715 -2.0618
15876TIP3    H269120   5.372   1.495   0.743 -2.2117 -1.5656 -2.7185
15877TIP3   OH269121   2.590   2.838  11.057  0.1689  0.0192 -0.1125
15877TIP3    H169122   2.560   2.870  10.972 -1.0164 -1.8250 -0.4175
15877TIP3    H269123   2.685   2.830  11.047  0.1313  0.5290 -0.9979
15878TIP3   OH269124   0.342   3.653  13.743  0.0965 -0.1260 -0.6041
15878TIP3    H169125   0.342   3.704  13.823 -1.8777 -2.4220  0.9339
15878TIP3    H269126   0.417   3.594  13.752 -1.4358 -1.9270  0.6258
15879TIP3   OH269127   0.332   4.823  11.028  0.0208  0.7379  0.2299
15879TIP3    H169128   0.303   4.733  11.015 -0.0585  0.6152  1.1995
15879TIP3    H269129   0.310   4.868  10.946 -1.9504  0.3966  0.5633
15880TIP3   OH269130   4.538   4.974   5.783  0.5667 -0.3878 -0.3037
15880TIP3    H169131   4.626   4.988   5.750  0.2399 -0.9033 -1.4201
15880TIP3    H269132   4.492   5.056   5.767  0.8967 -0.0454  0.4747
15881TIP3   OH269133   2.410   3.722  14.336  0.4499  0.1434 -0.0266
15881TIP3    H169134   2.457   3.648  14.296  0.2644 -0.2496  0.4828
15881TIP3    H269135   2.338   3.681  14.383  0.5389  0.6322  0.5295
15882TIP3   OH269136   1.900   4.920  15.452 -0.2124 -0.2745 -0.6824
15882TIP3    H169137   1.909   5.006  15.492  0.8410 -0.4151 -0.6126
15882TIP3    H269138   1.902   4.938  15.358 -0.5208 -0.1652 -0.6675
15883TIP3   OH269139   0.506   1.670   0.229 -0.4168  0.1183  0.6899
15883TIP3    H169140   0.413   1.650   0.219 -0.4572  0.4672  0.3685
15883TIP3    H269141   0.534   1.700   0.142  0.1051 -0.4337  0.6619
15884TIP3   OH269142   3.841   4.369  15.339  0.3704  0.3398  0.4709
15884TIP3    H169143   3.931   4.337  15.345  0.6941  1.2180  0.3268
15884TIP3    H269144   3.804   4.322  15.264  1.7637  2.4483 -1.6214
15885TIP3   OH269145   1.239   3.904   1.542 -0.2332  0.4084  0.4587
15885TIP3    H169146   1.232   3.889   1.448 -0.4115  0.0442  0.5285
15885TIP3    H269147   1.149   3.913   1.572 -0.2384 -0.6156  0.7728
15886TIP3   OH269148   3.830   5.703   1.066 -0.7572  0.3637 -0.2322
15886TIP3    H169149   3.768   5.721   1.136 -2.6056  0.5766 -1.8564
15886TIP3    H269150   3.851   5.789   1.030 -1.6537  0.1095 -1.4179
15887TIP3   OH269151   6.721   6.535   3.722  0.4951 -0.3011 -0.3144
15887TIP3    H169152   6.671   6.490   3.654  1.6091 -0.8356 -0.7858
15887TIP3    H269153   6.808   6.545   3.684  0.8883  0.1491  0.7153
15888TIP3   OH269154   6.438   4.855  16.710  0.6901  0.4219 -0.0154
15888TIP3    H169155   6.368   4.795  16.736  0.7153  0.0800 -0.7137
15888TIP3    H269156   6.517   4.801  16.710  1.4362  1.3790  3.2700
15889TIP3   OH269157   6.492   4.131   1.686 -0.1366  0.2594  0.4066
15889TIP3    H169158   6.483   4.074   1.609 -0.7290  2.2017 -0.9779
15889TIP3    H269159   6.434   4.091   1.751 -0.5482 -0.7219 -0.5384
15890TIP3   OH269160   3.815   0.678  12.240  0.9731  0.5166 -0.1348
15890TIP3    H169161   3.727   0.642  12.228  0.9338 -0.2632  2.3223
15890TIP3    H269162   3.821   0.697  12.334  3.2515  1.0646 -0.3564
15891TIP3   OH269163   0.195   1.604  17.268 -0.2147  0.1093 -0.3800
15891TIP3    H169164   0.231   1.533  17.215 -1.4708 -0.6894 -0.1820
15891TIP3    H269165   0.100   1.592  17.263 -0.3762  0.4033  1.5157
15892TIP3   OH269166   6.636   6.224   2.895  0.4574  0.2710  0.5491
15892TIP3    H169167   6.662   6.177   2.817  1.8033  0.8673  0.6219
15892TIP3    H269168   6.715   6.272   2.922 -0.2734  0.8731  1.6776
15893TIP3   OH269169   3.063   5.893  14.035  0.0279 -0.7266  0.0576
15893TIP3    H169170   3.144   5.930  13.999 -0.3818  0.6377  0.5268
15893TIP3    H269171   3.058   5.928  14.124 -1.7177  0.2103 -0.3875
15894TIP3   OH269172   6.514   0.277   2.619 -0.1630 -0.1454 -1.1486
15894TIP3    H169173   6.525   0.301   2.711 -0.5780 -1.6980 -0.6654
15894TIP3    H269174   6.470   0.352   2.579  0.8682  0.9310 -0.3034
15895TIP3   OH269175   2.006   4.987  14.637 -0.2358 -0.1726 -0.2232
15895TIP3    H169176   1.952   5.065  14.621 -0.6429 -0.7373 -1.7004
15895TIP3    H269177   1.946   4.913  14.626  0.1149 -0.7138  1.3029
15896TIP3   OH269178   0.742   3.405  15.910  0.0493  0.0080  0.7679
15896TIP3    H169179   0.647   3.399  15.923  0.3519 -1.2556  2.5333
15896TIP3    H269180   0.771   3.313  15.907  1.1795  0.3880 -0.0652
15897TIP3   OH269181   2.564   6.702   0.210 -0.0158 -1.1243 -0.2009
15897TIP3    H169182   2.490   6.677   0.154 -0.2270 -0.2125 -0.3360
15897TIP3    H269183   2.631   6.732   0.149 -0.0099 -0.7372 -0.0046
15898TIP3   OH269184   4.625   6.540  10.785  0.0335 -0.7622  1.0007
15898TIP3    H169185   4.614   6.629  10.817  0.3590 -0.8254  1.2930
15898TIP3    H269186   4.659   6.492  10.860  0.4636 -0.9910  0.6609
15899TIP3   OH269187   6.142   6.626  13.475  0.3302 -0.5438  0.4327
15899TIP3    H169188   6.147   6.716  13.509 -0.3162  0.1468 -1.2257
15899TIP3    H269189   6.140   6.637  13.380  0.2930 -2.3308  0.2158
15900TIP3   OH269190   2.975   5.137  14.844  0.3988  0.0352 -0.1241
15900TIP3    H169191   3.003   5.224  14.817  0.8092 -0.1574 -0.3220
15900TIP3    H269192   3.055   5.094  14.874  0.2893 -0.4531 -0.5151
15901TIP3   OH269193   1.119   6.332   4.153 -0.7832  0.0455 -0.7266
15901TIP3    H169194   1.099   6.403   4.214  2.4090  1.1271 -0.8620
15901TIP3    H269195   1.067   6.258   4.185 -1.6084  1.4841  1.3890
15902TIP3   OH269196   4.744   3.873  11.265 -0.2699 -0.1319  0.1499
15902TIP3    H169197   4.663   3.920  11.280 -0.3699 -0.0645 -0.5766
15902TIP3    H269198   4.758   3.823  11.345 -0.3670  0.8205  0.7691
15903TIP3   OH269199   3.841   0.228  12.797 -0.0404 -0.4085 -0.6169
15903TIP3    H169200   3.865   0.315  12.829  1.9377 -2.0931  2.6301
15903TIP3    H269201   3.756   0.211  12.838 -0.5784  0.0664 -1.5016
15904TIP3   OH269202   4.903   3.901  13.537  0.4635 -0.7144 -0.2198
15904TIP3    H169203   4.983   3.849  13.542  0.9905  0.1516  0.6530
15904TIP3    H269204   4.837   3.849  13.582  1.0722 -0.4889  0.9488
15905TIP3   OH269205   6.803   3.871  15.545 -0.1562 -0.1210 -0.9551
15905TIP3    H169206   6.844   3.790  15.575  0.7312 -0.0981 -2.0462
15905TIP3    H269207   6.748   3.844  15.471  0.7592  0.3702 -1.8311
15906TIP3   OH269208   1.097   2.225  15.257  0.4877  0.2174 -0.2041
15906TIP3    H169209   1.110   2.299  15.197 -2.2353  2.1302  1.3855
15906TIP3    H269210   1.060   2.156  15.203 -0.1526  1.2577 -1.1237
15907TIP3   OH269211   1.622   3.584   5.612 -0.0135 -0.3661 -0.0165
15907TIP3    H169212   1.616   3.570   5.707  0.7303  2.1543  0.4359
15907TIP3    H269213   1.665   3.505   5.579  0.9407 -0.6920  1.9344
15908TIP3   OH269214   5.822   2.946   3.303  0.1470  0.2385  0.9678
15908TIP3    H169215   5.850   3.035   3.323 -0.8818  0.7386  0.1984
15908TIP3    H269216   5.864   2.892   3.370  1.7411  1.1482  0.7027
15909TIP3   OH269217   4.271   3.445  12.403  0.9689 -0.0088  0.0894
15909TIP3    H169218   4.200   3.404  12.355  0.6003  0.2659  0.3958
15909TIP3    H269219   4.284   3.388  12.479  1.9705 -0.7840 -0.6519
15910TIP3   OH269220   3.082   6.173  10.359  0.1967 -0.1997 -0.0868
15910TIP3    H169221   2.996   6.156  10.319  0.2062 -0.7979  0.1546
15910TIP3    H269222   3.134   6.096  10.338 -0.4318 -1.4611  2.8490
15911TIP3   OH269223   0.915   5.040  13.374  0.4378 -0.3337 -0.5296
15911TIP3    H169224   0.934   4.991  13.454 -0.5052 -0.1329 -0.1825
15911TIP3    H269225   0.898   4.972  13.308 -1.9181 -0.4833  0.2041
15912TIP3   OH269226   5.106   6.110  13.329 -0.5507  0.0863  0.6620
15912TIP3    H169227   5.172   6.176  13.350  0.7605 -1.1145  0.3533
15912TIP3    H269228   5.118   6.042  13.395 -1.4532 -0.1541  0.5845
15913TIP3   OH269229   4.512   3.046  12.590 -0.6114  0.2507  0.2155
15913TIP3    H169230   4.582   3.045  12.525 -0.4977  0.6921  0.3337
15913TIP3    H269231   4.478   3.135  12.587 -0.8056  0.1875  0.5499
15914TIP3   OH269232   2.766   2.344   2.302 -0.4926 -0.2123 -0.2692
15914TIP3    H169233   2.792   2.253   2.315 -0.2756 -0.1692 -0.4059
15914TIP3    H269234   2.747   2.350   2.208 -0.3932 -0.0857 -0.2802
15915TIP3   OH269235   6.160   6.342   6.277 -0.3232  0.2389  0.1080
15915TIP3    H169236   6.156   6.376   6.188  0.4107 -0.9417 -0.3793
15915TIP3    H269237   6.124   6.253   6.271 -0.5470  0.2592  1.0354
15916TIP3   OH269238   4.492   0.103  14.895 -0.1093 -0.0864  0.3696
15916TIP3    H169239   4.527   0.014  14.893  0.1059  0.0014  0.2956
15916TIP3    H269240   4.402   0.093  14.864  0.2115 -0.1416 -0.5552
15917TIP3   OH269241   4.091   0.386   2.539 -0.0240 -0.4966 -0.8741
15917TIP3    H169242   4.106   0.460   2.480 -1.2800  1.3695  1.0593
15917TIP3    H269243   4.135   0.411   2.621 -0.5570 -1.8294 -0.1621
15918TIP3   OH269244   3.361   6.620   1.083 -0.0420 -0.4976  0.3263
15918TIP3    H169245   3.451   6.609   1.113  0.3941 -1.7996 -1.3349
15918TIP3    H269246   3.353   6.714   1.064  0.6297 -0.2053  1.4541
15919TIP3   OH269247   2.307   0.101  12.696  0.5345  0.1101  0.7239
15919TIP3    H169248   2.280   0.022  12.648  1.6751  0.3093 -0.2817
15919TIP3    H269249   2.328   0.164  12.627 -2.4355  2.0318  1.5157
15920TIP3   OH269250   1.075   2.048  17.201  0.4354  0.6116  0.1316
15920TIP3    H169251   1.126   1.971  17.224 -1.8963 -0.7349  0.9299
15920TIP3    H269252   1.054   2.036  17.108  1.0605  0.8951 -0.0525
15921TIP3   OH269253   0.714   4.290  13.266 -0.1797  0.0422 -0.0917
15921TIP3    H169254   0.672   4.366  13.306  2.0420  0.0478  2.3605
15921TIP3    H269255   0.784   4.267  13.327  0.0008 -3.1805 -1.4313
15922TIP3   OH269256   3.546   3.440   5.026 -0.5234  0.1804  0.4077
15922TIP3    H169257   3.504   3.358   5.001  1.1593 -1.4105  2.6357
15922TIP3    H269258   3.637   3.417   5.043  1.0347  3.2853 -2.8444
15923TIP3   OH269259   6.311   3.887  12.337  0.7356 -0.3739  0.0881
15923TIP3    H169260   6.271   3.826  12.276  1.4731  0.6416 -1.4192
15923TIP3    H269261   6.292   3.850  12.424  1.5648 -2.9896 -0.8093
15924TIP3   OH269262   6.786   5.972   2.168 -0.3851  0.3282  0.4474
15924TIP3    H169263   6.727   5.943   2.238  1.4336  1.4860  2.5132
15924TIP3    H269264   6.798   6.066   2.183  0.3546  0.5227 -1.2017
15925TIP3   OH269265   4.187   0.276  13.207  0.0559 -0.0216  0.1398
15925TIP3    H169266   4.158   0.240  13.123  1.2898 -0.3087 -0.1765
15925TIP3    H269267   4.231   0.203  13.251 -0.7972  0.0566  1.1547
15926TIP3   OH269268   2.229   5.899  17.161  0.0053 -0.1467  0.4470
15926TIP3    H169269   2.150   5.935  17.201  0.9189  0.5998  1.6009
15926TIP3    H269270   2.292   5.970  17.163  0.9194 -0.9337  0.1067
15927TIP3   OH269271   1.731   3.310  12.498 -0.0797 -0.0605  0.5488
15927TIP3    H169272   1.799   3.304  12.431 -0.8173  0.5346 -0.2586
15927TIP3    H269273   1.773   3.276  12.577  0.8846 -0.5155 -0.1422
15928TIP3   OH269274   3.781   6.629  15.456  0.1020 -0.1140 -0.4714
15928TIP3    H169275   3.713   6.563  15.453  1.7366 -2.0253  2.5078
15928TIP3    H269276   3.776   6.666  15.544  1.4821  1.2603 -0.9364
15929TIP3   OH269277   4.275   4.159   3.355 -0.2817 -0.0393 -0.3452
15929TIP3    H169278   4.188   4.187   3.383  0.0078  1.9191 -1.3574
15929TIP3    H269279   4.335   4.197   3.420 -0.0695 -0.3181 -0.3743
15930TIP3   OH269280   0.611   6.724   5.197  0.2961  0.2104  0.2320
15930TIP3    H169281   0.601   6.755   5.287 -0.0338  2.4162 -0.5385
15930TIP3    H269282   0.682   6.777   5.161  0.2447 -0.4600 -0.8886
15931TIP3   OH269283   2.738   0.386   5.838  0.3006  0.4283  0.6464
15931TIP3    H169284   2.818   0.404   5.888 -0.7141  0.7566  2.1658
15931TIP3    H269285   2.683   0.335   5.897  0.7585 -2.8560 -1.5934
15932TIP3   OH269286   0.531   3.921   2.697 -0.0968 -0.8949 -0.3506
15932TIP3    H169287   0.448   3.954   2.730 -0.3686  1.3800 -3.0494
15932TIP3    H269288   0.589   3.920   2.773 -1.3630  1.7626  0.7169
15933TIP3   OH269289   0.643   2.533  12.362  0.3037  0.3678  0.0306
15933TIP3    H169290   0.733   2.530  12.394  0.7475 -0.2297 -1.2174
15933TIP3    H269291   0.609   2.617  12.392  0.5827 -0.2913  2.2961
15934TIP3   OH269292   2.763   5.539  10.571  0.3679  0.1682  0.0771
15934TIP3    H169293   2.799   5.450  10.577  2.1616  0.7369 -1.6334
15934TIP3    H269294   2.674   5.531  10.604  0.2256 -2.4502 -0.8376
15935TIP3   OH269295   4.339   5.572  14.512 -0.0880  0.6126  0.4113
15935TIP3    H169296   4.395   5.512  14.561 -0.2618  1.5421  1.7782
15935TIP3    H269297   4.369   5.659  14.538 -0.2170  1.1208 -1.1098
15936TIP3   OH269298   1.737   3.372  13.245 -0.0973  0.8597  0.5245
15936TIP3    H169299   1.739   3.317  13.323 -1.5741  0.0661  0.0290
15936TIP3    H269300   1.776   3.318  13.176  0.2513  1.1755  0.4671
15937TIP3   OH269301   3.869   0.469  12.929 -0.5688 -0.6846  0.3848
15937TIP3    H169302   3.962   0.478  12.951 -0.3199 -1.6412 -0.2589
15937TIP3    H269303   3.823   0.492  13.010  0.1756  1.2481  0.2865
15938TIP3   OH269304   2.806   1.152  13.430  0.2651 -0.3364  0.4908
15938TIP3    H169305   2.852   1.153  13.514  0.1635  1.2926  0.5429
15938TIP3    H269306   2.717   1.124  13.452  0.5131 -0.9181  0.7705
15939TIP3   OH269307   0.980   1.231   4.538  0.1978  0.1380  0.3512
15939TIP3    H169308   0.900   1.215   4.487  1.0237 -0.8602 -0.6558
15939TIP3    H269309   1.042   1.266   4.475  1.4700 -1.8124  0.4944
15940TIP3   OH269310   5.880   3.500   1.833 -1.1878 -0.2464 -0.1195
15940TIP3    H169311   5.944   3.486   1.764 -1.3738  0.3142 -0.4092
15940TIP3    H269312   5.928   3.545   1.902 -1.0384 -0.6700  0.0512
15941TIP3   OH269313   4.812   5.394  12.796  0.3398 -0.0129  0.5504
15941TIP3    H169314   4.753   5.429  12.729  0.0438  0.8993  1.2837
15941TIP3    H269315   4.776   5.425  12.879  1.3860 -0.1249  1.0550
15942TIP3   OH269316   0.694   0.045   1.578  0.0498  0.4631 -0.3545
15942TIP3    H169317   0.607   0.007   1.569  0.2234  0.6372 -3.0555
15942TIP3    H269318   0.730   0.045   1.490  1.7052  2.9942  0.2663
15943TIP3   OH269319   4.324   3.744  15.347 -0.2108  0.1351  0.0942
15943TIP3    H169320   4.332   3.693  15.267 -0.8986  0.1494  0.0065
15943TIP3    H269321   4.270   3.819  15.322 -1.3455 -0.4209  0.8194
15944TIP3   OH269322   6.685   1.438   4.752 -0.6442 -0.0631 -0.1186
15944TIP3    H169323   6.596   1.461   4.777 -0.4208 -1.3650  2.0614
15944TIP3    H269324   6.736   1.447   4.833  1.3782  1.4506 -1.5087
15945TIP3   OH269325   2.410   1.046   4.564 -0.3088 -0.0433 -0.0809
15945TIP3    H169326   2.350   1.074   4.633 -1.7286  1.5447 -1.8794
15945TIP3    H269327   2.370   0.966   4.530 -0.8583  0.4168 -0.5456
15946TIP3   OH269328   2.702   4.450  16.598  0.0720  0.1886  0.2579
15946TIP3    H169329   2.649   4.498  16.534  0.5903 -0.7614 -0.8949
15946TIP3    H269330   2.654   4.459  16.681 -1.5199 -0.0518 -0.6163
15947TIP3   OH269331   0.922   5.641   3.810 -0.2258  0.3663  0.2627
15947TIP3    H169332   0.882   5.568   3.857  2.1383 -0.5096  1.0277
15947TIP3    H269333   0.911   5.619   3.718 -0.8460 -0.2085  0.4670
15948TIP3   OH269334   2.925   1.110   4.558 -0.7242 -0.1659 -0.0163
15948TIP3    H169335   3.020   1.099   4.564 -0.7370  0.5773  2.1727
15948TIP3    H269336   2.913   1.182   4.496  0.2552  1.0055  1.1102
15949TIP3   OH269337   6.068   4.295   1.914 -0.2368 -0.2876 -0.0486
15949TIP3    H169338   6.052   4.203   1.936  0.3385 -0.4611 -0.3468
15949TIP3    H269339   6.143   4.293   1.854  1.2675  0.5470  1.7316
15950TIP3   OH269340   2.822   5.578   3.504  0.4839 -0.2122  0.2224
15950TIP3    H169341   2.819   5.510   3.437  0.4158  0.3812 -0.3806
15950TIP3    H269342   2.745   5.562   3.558  0.8286 -1.0188  0.4767
15951TIP3   OH269343   1.651   4.378   3.301 -0.2013  0.0510  0.3642
15951TIP3    H169344   1.618   4.351   3.216 -1.0181  0.0250  0.6848
15951TIP3    H269345   1.716   4.312   3.325 -1.7202 -1.2691  0.8602
15952TIP3   OH269346   6.269   5.266   3.387 -0.5200 -0.2367 -1.1618
15952TIP3    H169347   6.305   5.234   3.304  1.3731 -1.5593  0.1184
15952TIP3    H269348   6.280   5.193   3.448 -0.4001  1.2516  0.6711
15953TIP3   OH269349   2.562   3.187  11.425 -0.5694 -0.5468 -0.0719
15953TIP3    H169350   2.491   3.241  11.459  1.9720  2.4533  0.5952
15953TIP3    H269351   2.596   3.140  11.502  0.0029  0.1804  0.1225
15954TIP3   OH269352   3.681   0.830  13.465 -0.0866  0.2810 -0.4154
15954TIP3    H169353   3.731   0.792  13.392  0.2660  0.3329 -0.2010
15954TIP3    H269354   3.722   0.915  13.480 -0.8415  0.7343 -0.8587
15955TIP3   OH269355   1.429   2.657  13.566 -0.4983  0.8468  0.5112
15955TIP3    H169356   1.395   2.707  13.492  1.0328 -2.0123 -2.2753
15955TIP3    H269357   1.358   2.597  13.589  0.3889 -0.9653 -1.3142
15956TIP3   OH269358   3.612   6.802   5.006 -0.1026 -0.5099 -0.2676
15956TIP3    H169359   3.577   6.714   5.018 -0.9791 -0.1276  0.0215
15956TIP3    H269360   3.704   6.796   5.034 -0.1465 -1.3369 -0.3026
15957TIP3   OH269361   4.434   4.310   3.981 -0.1183 -0.4209  0.1185
15957TIP3    H169362   4.351   4.337   3.940 -0.8666  1.1827  2.5880
15957TIP3    H269363   4.407   4.265   4.060  1.3482 -2.1422 -0.3507
15958TIP3   OH269364   2.172   4.819   5.189  0.1618 -0.3973  0.4349
15958TIP3    H169365   2.262   4.835   5.158 -0.4853  1.1888 -0.6681
15958TIP3    H269366   2.175   4.729   5.223  1.2375 -1.8630 -3.1959
15959TIP3   OH269367   1.718   0.870   6.700 -0.3416 -0.5588  0.1493
15959TIP3    H169368   1.779   0.797   6.705 -0.4220 -0.6674 -0.4480
15959TIP3    H269369   1.772   0.948   6.712 -0.1511 -0.6757  0.0485
15960TIP3   OH269370   2.538   6.653   3.053 -0.4685 -0.3252 -0.3255
15960TIP3    H169371   2.608   6.594   3.025  0.9108  1.2415 -0.2235
15960TIP3    H269372   2.507   6.616   3.136  0.2605 -1.0012 -0.3519
15961TIP3   OH269373   5.350   4.402  11.589  0.0314 -0.1496  0.1153
15961TIP3    H169374   5.289   4.334  11.562 -0.2218  0.0653  0.1443
15961TIP3    H269375   5.295   4.480  11.600  0.6167  0.5694 -1.8975
15962TIP3   OH269376   6.024   2.505   4.237 -0.3010  0.6959 -0.5650
15962TIP3    H169377   6.093   2.559   4.276 -0.6788 -0.1741  1.3452
15962TIP3    H269378   6.020   2.535   4.146  1.1359  2.2208 -0.1674
15963TIP3   OH269379   0.702   5.858  15.051  0.2048  1.1018 -0.6844
15963TIP3    H169380   0.623   5.878  15.100  0.8389 -0.9868  1.2867
15963TIP3    H269381   0.674   5.852  14.960 -1.4332  2.6684 -0.3126
15964TIP3   OH269382   0.073   3.624  11.636 -0.3036  0.2128  0.2612
15964TIP3    H169383   0.090   3.557  11.702 -1.1514  0.9719  1.2619
15964TIP3    H269384   0.085   3.707  11.682  1.6032  0.7833 -1.1857
15965TIP3   OH269385   3.394   1.795  15.196 -0.2818  0.4162  0.2648
15965TIP3    H169386   3.340   1.735  15.145 -1.7055  1.4769  0.4786
15965TIP3    H269387   3.483   1.783  15.162 -1.0266  0.3199 -1.7013
15966TIP3   OH269388   2.017   4.377   4.741  0.3642 -0.2107  0.2123
15966TIP3    H169389   1.947   4.352   4.682  1.3839  1.0046 -1.5602
15966TIP3    H269390   2.035   4.468   4.720  1.4143 -0.0464  1.7254
15967TIP3   OH269391   5.895   4.238  14.837 -0.3382  0.0196  0.1571
15967TIP3    H169392   5.980   4.278  14.821  0.5901 -1.8645  0.3223
15967TIP3    H269393   5.832   4.301  14.801  1.2803 -0.4642 -3.7110
15968TIP3   OH269394   0.279   0.488  15.158  0.4029  0.4700 -0.3408
15968TIP3    H169395   0.344   0.470  15.226  1.4431  0.6008 -1.2613
15968TIP3    H269396   0.275   0.584  15.154  1.4778  0.4832 -1.4788
15969TIP3   OH269397   6.259   2.911  16.005  0.3721 -0.2707 -0.1661
15969TIP3    H169398   6.172   2.944  16.028 -1.2148 -2.9376 -2.0766
15969TIP3    H269399   6.317   2.947  16.073 -2.2984  1.0256  1.5170
15970TIP3   OH269400   3.670   2.435   5.781 -0.1755 -0.1813  0.6297
15970TIP3    H169401   3.703   2.502   5.721 -1.0993 -1.1025 -0.9366
15970TIP3    H269402   3.748   2.385   5.806 -0.0909 -1.1353 -1.5080
15971TIP3   OH269403   2.679   2.033   1.319 -0.3796 -0.2698  0.4231
15971TIP3    H169404   2.686   1.956   1.263  0.6670 -0.6226  1.0099
15971TIP3    H269405   2.633   2.002   1.397 -2.4866  0.3992 -0.5483
15972TIP3   OH269406   6.042   0.256  15.938  0.3375  0.1040  0.0876
15972TIP3    H169407   5.950   0.271  15.913  0.6612 -0.8923 -1.7769
15972TIP3    H269408   6.052   0.161  15.936  1.2567  0.1829  0.9093
15973TIP3   OH269409   2.499   2.055   1.009 -0.8046  0.4981  0.3520
15973TIP3    H169410   2.423   2.046   1.067 -0.8242 -2.2310 -0.0548
15973TIP3    H269411   2.563   1.993   1.043 -0.6691 -0.8550 -2.2553
15974TIP3   OH269412   5.180   3.752   4.281  0.3100  0.6465  0.0708
15974TIP3    H169413   5.186   3.661   4.308  0.6737  0.0301 -2.0003
15974TIP3    H269414   5.187   3.802   4.363  0.5309 -1.1527  1.1747
15975TIP3   OH269415   0.742   1.883   6.297  0.0901 -0.0061  0.0951
15975TIP3    H169416   0.666   1.941   6.307  0.8595  1.1951 -0.9356
15975TIP3    H269417   0.709   1.808   6.247 -0.5135  0.2965  0.0396
15976TIP3   OH269418   1.841   2.638   1.549 -0.8127 -0.0080 -0.0307
15976TIP3    H169419   1.841   2.732   1.532 -0.0236  0.3950  2.0440
15976TIP3    H269420   1.766   2.605   1.499 -0.5127  1.5516 -1.5715
15977TIP3   OH269421   2.226   6.274   4.913  0.2595  0.1069  0.6816
15977TIP3    H169422   2.307   6.229   4.889  0.1825  0.2056  0.2442
15977TIP3    H269423   2.245   6.311   5.000  0.6596  0.0716  0.6114
15978TIP3   OH269424   4.382   2.175   3.766 -0.1660 -0.3190 -0.2755
15978TIP3    H169425   4.348   2.265   3.756 -1.4717 -0.8784 -1.0165
15978TIP3    H269426   4.425   2.175   3.852 -2.6246  0.2598  1.0112
15979TIP3   OH269427   2.360   3.653   5.677  0.1941 -0.2699  0.1676
15979TIP3    H169428   2.297   3.716   5.644  0.9924  0.4702  0.0518
15979TIP3    H269429   2.364   3.586   5.609 -2.9128 -2.0628  1.6086
15980TIP3   OH269430   3.659   1.386   4.314  0.0512 -0.0156  0.2830
15980TIP3    H169431   3.605   1.396   4.236  0.3306  0.6121  0.1680
15980TIP3    H269432   3.643   1.296   4.343 -1.3140  0.2782  0.4457
15981TIP3   OH269433   3.780   5.400   5.798 -1.0579  0.1671  0.0193
15981TIP3    H169434   3.762   5.321   5.747 -0.2759 -1.0364  1.5728
15981TIP3    H269435   3.812   5.463   5.734 -1.9035 -0.6938 -1.2732
15982TIP3   OH269436   0.693   4.779   2.098  0.4515  0.5001  0.2845
15982TIP3    H169437   0.602   4.802   2.079  0.5874  2.6038  1.9805
15982TIP3    H269438   0.725   4.852   2.151  3.0590 -0.3466 -0.0810
15983TIP3   OH269439   5.115   1.874  13.463 -0.0578  0.0924  0.3869
15983TIP3    H169440   5.139   1.801  13.521 -0.3480 -1.0459 -0.8970
15983TIP3    H269441   5.119   1.836  13.375  0.8183  1.9128 -0.3762
15984TIP3   OH269442   6.035   2.964   2.260  0.4812  0.0614  0.2038
15984TIP3    H169443   5.983   2.966   2.340 -0.8230  0.5413 -0.6310
15984TIP3    H269444   6.107   2.903   2.279 -0.8315 -1.2416  1.1302
15985TIP3   OH269445   6.513   4.807   2.827 -0.2834 -0.1712 -0.1472
15985TIP3    H169446   6.566   4.878   2.791 -0.1202 -0.0397  0.3463
15985TIP3    H269447   6.545   4.797   2.917  0.1411 -1.3093 -0.4198
15986TIP3   OH269448   0.743   4.769  11.111  0.0354  0.1493  0.0676
15986TIP3    H169449   0.669   4.712  11.092 -0.9192  1.2725  0.4067
15986TIP3    H269450   0.813   4.708  11.138  0.4222 -1.1861 -3.7302
15987TIP3   OH269451   3.521   1.780  13.736 -0.4526 -0.1541  0.0542
15987TIP3    H169452   3.576   1.855  13.756 -1.7446  0.4495  1.4717
15987TIP3    H269453   3.433   1.817  13.728 -0.8276 -1.2637 -1.0049
15988TIP3   OH269454   3.756   1.669   0.567  0.1886  0.1965  0.1966
15988TIP3    H169455   3.717   1.725   0.634  0.9813  2.1811 -0.9398
15988TIP3    H269456   3.736   1.714   0.485  1.6232 -0.7309 -0.6776
15989TIP3   OH269457   4.361   6.673  12.369  0.3077  0.0253  0.1444
15989TIP3    H169458   4.410   6.600  12.331 -0.3465  0.3323 -1.3269
15989TIP3    H269459   4.422   6.747  12.367  0.2235  0.0809 -0.4721
15990TIP3   OH269460   0.916   6.582  12.166 -0.4484  0.5961  0.1598
15990TIP3    H169461   0.875   6.567  12.251 -0.7527  0.8915  0.0664
15990TIP3    H269462   0.862   6.534  12.104 -0.2945  0.4771  0.1175
15991TIP3   OH269463   0.950   3.339   5.431 -0.1042  0.2281 -0.3234
15991TIP3    H169464   0.876   3.318   5.488 -0.9411  1.1933 -1.0216
15991TIP3    H269465   0.976   3.256   5.393 -2.0598  0.1281 -1.5267
15992TIP3   OH269466   1.621   5.060  14.145  0.1481  0.1717  0.1266
15992TIP3    H169467   1.709   5.057  14.183 -0.1377  1.3737  0.9377
15992TIP3    H269468   1.620   5.141  14.094 -0.1392 -0.4006 -0.7919
15993TIP3   OH269469   1.931   2.241   2.777 -0.0152 -0.1457  0.0499
15993TIP3    H169470   1.839   2.219   2.792 -0.1437 -1.4070 -2.3793
15993TIP3    H269471   1.978   2.159   2.790  0.5973  0.1586 -0.2215
15994TIP3   OH269472   1.754   2.022  11.918 -0.2651  0.1257 -0.0384
15994TIP3    H169473   1.774   2.115  11.930 -0.2577 -0.0161  1.1307
15994TIP3    H269474   1.820   1.990  11.857  0.8140  0.5063  0.9090
15995TIP3   OH269475   4.958   1.764   3.703  0.1606  1.4683  0.6486
15995TIP3    H169476   4.935   1.799   3.617  1.5199  1.0425  0.1028
15995TIP3    H269477   4.875   1.765   3.752 -0.9031  0.4800 -1.0776
15996TIP3   OH269478   0.575   4.017   6.138  0.1550 -0.1987 -0.3112
15996TIP3    H169479   0.503   4.063   6.182  1.1035 -0.1642  1.2747
15996TIP3    H269480   0.654   4.061   6.171  0.8661  0.6074 -3.0137
15997TIP3   OH269481   1.312   5.546   3.316 -0.3415 -0.3784 -0.2353
15997TIP3    H169482   1.266   5.503   3.388 -0.7679 -1.0103 -0.8749
15997TIP3    H269483   1.266   5.629   3.304  0.1356  0.0170  0.6417
15998TIP3   OH269484   0.215   0.592  15.804 -0.0300 -0.3930 -0.2225
15998TIP3    H169485   0.189   0.549  15.722 -0.2337  0.6408 -0.7106
15998TIP3    H269486   0.141   0.649  15.825  0.5407  0.2598  0.0246
15999TIP3   OH269487   3.592   1.905  16.334  0.3021  0.1723  0.6297
15999TIP3    H169488   3.564   1.816  16.352 -1.5640  0.8368  1.0880
15999TIP3    H269489   3.642   1.898  16.252 -1.5926 -0.9882 -0.4559
16000TIP3   OH269490   1.424   2.757  12.689  0.0856 -0.1772 -0.0974
16000TIP3    H169491   1.395   2.811  12.763 -2.1871 -0.5492 -0.6693
16000TIP3    H269492   1.379   2.674  12.702 -1.1074  0.0762 -2.3968
16001TIP3   OH269493   6.106   5.651   3.729 -0.0837 -0.0876  0.3469
16001TIP3    H169494   6.109   5.569   3.679  0.2436 -0.5256  1.0718
16001TIP3    H269495   6.198   5.670   3.749 -0.2721 -0.4443  1.6124
16002TIP3   OH269496   1.167   5.664  14.080 -0.0503  0.3522  0.0813
16002TIP3    H169497   1.204   5.721  14.013  0.1478  1.2398  0.9282
16002TIP3    H269498   1.196   5.703  14.163 -1.4865  0.0956  0.7163
16003TIP3   OH269499   4.721   0.687   2.714 -0.0559  0.6847  0.2569
16003TIP3    H169500   4.761   0.618   2.767  0.9431  2.1263  1.3871
16003TIP3    H269501   4.789   0.713   2.652 -0.8308 -0.1580 -0.9866
16004TIP3   OH269502   4.567   3.762  12.153  0.2926 -0.6459 -0.5987
16004TIP3    H169503   4.475   3.749  12.127 -0.3684  0.5506  1.0885
16004TIP3    H269504   4.609   3.798  12.074 -1.1922  0.8254 -0.7528
16005TIP3   OH269505   0.124   3.533   0.625 -0.0532  0.0773 -0.2807
16005TIP3    H169506   0.219   3.530   0.611 -0.0294  0.0550 -0.1115
16005TIP3    H269507   0.112   3.500   0.714 -0.1655  0.8001 -0.0332
16006TIP3   OH269508   2.147   1.733   2.131  0.2948  0.4210 -0.0831
16006TIP3    H169509   2.103   1.767   2.053  1.2511  1.5868 -0.1156
16006TIP3    H269510   2.150   1.807   2.192  0.8512 -0.0851  0.5117
16007TIP3   OH269511   2.274   1.767   5.682 -0.4114  0.2326  0.0294
16007TIP3    H169512   2.222   1.728   5.611  3.2186 -1.7031 -1.6778
16007TIP3    H269513   2.318   1.841   5.641  0.3682  0.1340  0.6901
16008TIP3   OH269514   1.811   6.767  17.105  0.2425 -0.4480  0.0438
16008TIP3    H169515   1.819   6.798  17.195  0.5747 -1.4002  0.3484
16008TIP3    H269516   1.799   6.846  17.053  0.9208  0.1766  0.8264
16009TIP3   OH269517   5.887   4.998  12.940  0.6014 -0.0672 -0.1343
16009TIP3    H169518   5.917   4.977  13.029 -0.1467  0.2719  0.2057
16009TIP3    H269519   5.804   5.045  12.954  1.4496  1.6790 -0.9407
16010TIP3   OH269520   5.816   5.102   2.927  0.2288  0.2364  0.3501
16010TIP3    H169521   5.885   5.096   2.992  0.2654  1.0702  0.4010
16010TIP3    H269522   5.792   5.012   2.907  0.3691 -0.0226  1.3594
16011TIP3   OH269523   2.609   0.069   4.492 -0.0790  0.1570 -0.0566
16011TIP3    H169524   2.556   0.123   4.550 -1.5520  0.9805 -2.0945
16011TIP3    H269525   2.683   0.124   4.468 -0.7085  0.6923 -0.8070
16012TIP3   OH269526   6.417   1.799   4.999 -0.0122  0.3005 -0.2969
16012TIP3    H169527   6.379   1.857   4.934  1.2419  0.2535 -1.0950
16012TIP3    H269528   6.369   1.818   5.080 -2.3273 -0.4063 -1.4587
16013TIP3   OH269529   1.651   0.780   3.224  0.3243  0.5916  0.6524
16013TIP3    H169530   1.612   0.830   3.296  0.8905  3.2559 -0.8270
16013TIP3    H269531   1.737   0.753   3.257 -0.0802  0.3703  1.5492
16014TIP3   OH269532   4.095   0.181  10.315 -0.2206  0.0191  0.0596
16014TIP3    H169533   4.058   0.265  10.341 -0.8695  0.1288 -1.1525
16014TIP3    H269534   4.184   0.181  10.351 -0.4457  0.9479  0.6101
16015TIP3   OH269535   4.583   6.298   0.395  0.2598 -0.1785  0.0326
16015TIP3    H169536   4.644   6.341   0.335 -0.5494 -0.9121 -1.3370
16015TIP3    H269537   4.639   6.250   0.456  1.0761 -0.1849 -0.7118
16016TIP3   OH269538   4.235   0.986   2.285 -0.3836 -0.4656  0.1423
16016TIP3    H169539   4.177   0.936   2.227  1.5336 -1.5997 -0.8653
16016TIP3    H269540   4.261   1.062   2.233 -0.6674 -0.1468  0.4614
16017TIP3   OH269541   2.846   0.193  16.221  0.4411  0.3850  0.0055
16017TIP3    H169542   2.889   0.275  16.247  0.2632  0.1151  1.1598
16017TIP3    H269543   2.911   0.126  16.240 -0.0474  0.0921  0.6705
16018TIP3   OH269544   5.348   1.883   5.892  0.1806 -0.1790 -0.2992
16018TIP3    H169545   5.353   1.978   5.883 -2.5851 -0.1643 -2.3963
16018TIP3    H269546   5.345   1.868   5.986  2.5066  1.6734  0.0931
16019TIP3   OH269547   5.148   6.041  13.762 -0.2296  0.2288 -0.2973
16019TIP3    H169548   5.149   6.135  13.741  2.0877  0.3036  0.1041
16019TIP3    H269549   5.131   5.999  13.677  0.6238  0.9267 -0.8293
16020TIP3   OH269550   2.720   4.518   2.639  0.3634 -0.1611 -0.7348
16020TIP3    H169551   2.801   4.551   2.679  0.0032  0.2723 -0.3642
16020TIP3    H269552   2.739   4.517   2.545  1.1925 -1.1168 -0.5739
16021TIP3   OH269553   3.153   2.046  10.582  0.3202  0.9842  0.1392
16021TIP3    H169554   3.073   2.098  10.592 -0.2649  0.2608 -0.6189
16021TIP3    H269555   3.149   2.013  10.492 -0.2835 -1.9002  1.1566
16022TIP3   OH269556   0.568   0.441   1.056  0.1281  0.3474  0.7291
16022TIP3    H169557   0.611   0.480   1.132  0.8893 -0.5255  0.7598
16022TIP3    H269558   0.629   0.374   1.027 -1.6168 -1.5546  1.3370
16023TIP3   OH269559   2.345   4.394  12.340  0.0843 -0.4990 -0.0963
16023TIP3    H169560   2.288   4.439  12.278  1.9505 -0.8268 -2.1302
16023TIP3    H269561   2.418   4.455  12.354  0.9275 -1.4552 -0.2350
16024TIP3   OH269562   0.792   6.475  11.873 -0.0457 -0.1835  0.0273
16024TIP3    H169563   0.764   6.564  11.898 -0.5184 -0.0680 -0.9195
16024TIP3    H269564   0.777   6.470  11.779 -0.5104 -1.4588  0.1604
16025TIP3   OH269565   5.343   4.445   0.744  0.2147 -0.4011  0.0575
16025TIP3    H169566   5.286   4.418   0.672 -0.1833 -1.8008  0.8882
16025TIP3    H269567   5.301   4.411   0.822  0.3844  1.5221  1.0241
16026TIP3   OH269568   0.974   2.510   1.561  0.1719 -0.4220 -0.1101
16026TIP3    H169569   0.888   2.521   1.603  0.0201 -1.4090 -0.1290
16026TIP3    H269570   0.995   2.417   1.576  1.6693  0.0458  0.7206
16027TIP3   OH269571   5.435   0.344   6.109 -0.4781 -0.4281 -0.2085
16027TIP3    H169572   5.428   0.263   6.160 -1.0114  0.6400  1.4514
16027TIP3    H269573   5.350   0.386   6.119 -0.2524  0.2820 -1.1838
16028TIP3   OH269574   1.905   4.868   3.563 -0.1413 -0.2446  0.0785
16028TIP3    H169575   1.925   4.865   3.656 -0.3000 -1.5785  0.0725
16028TIP3    H269576   1.852   4.947   3.553  3.0281  2.0186  0.4576
16029TIP3   OH269577   5.315   1.434   4.692 -0.1262  0.7955 -0.4590
16029TIP3    H169578   5.320   1.412   4.785 -0.2387  0.6598 -0.4846
16029TIP3    H269579   5.355   1.360   4.647 -0.6962  0.5503 -0.5587
16030TIP3   OH269580   4.401   6.488   5.656  0.6446 -0.9484  0.2508
16030TIP3    H169581   4.475   6.495   5.595 -0.0614  1.9337 -0.3132
16030TIP3    H269582   4.440   6.454   5.737  2.5084  0.0120 -0.2195
16031TIP3   OH269583   5.731   3.923  14.807  0.0765 -0.0124  0.0031
16031TIP3    H169584   5.702   3.831  14.803 -1.1053  0.3517  0.0384
16031TIP3    H269585   5.826   3.917  14.817  0.0050 -1.2397  0.1127
16032TIP3   OH269586   0.325   6.512  10.696 -0.6780  0.4468 -0.3799
16032TIP3    H169587   0.397   6.484  10.640 -1.8170 -0.9239 -1.1755
16032TIP3    H269588   0.328   6.608  10.692 -0.5245  0.3815 -2.5183
16033TIP3   OH269589   4.671   0.735   3.942 -0.0357 -0.3558  0.0523
16033TIP3    H169590   4.602   0.707   4.003 -1.1276 -0.6927 -1.3029
16033TIP3    H269591   4.670   0.669   3.872  0.7087  0.3994 -0.6860
16034TIP3   OH269592   2.274   0.193  14.481  0.4084 -0.3179 -0.6236
16034TIP3    H169593   2.234   0.264  14.432 -0.3026 -0.2045  0.1214
16034TIP3    H269594   2.344   0.235  14.531  0.8143 -0.3529 -1.1617
16035TIP3   OH269595   4.789   4.220   5.098 -0.2828  0.1875 -0.5896
16035TIP3    H169596   4.740   4.146   5.132 -0.9537 -0.3744 -2.7269
16035TIP3    H269597   4.732   4.259   5.032  1.6238  0.2541 -2.2577
16036TIP3   OH269598   1.312   2.475  15.788  0.2240 -0.1255  0.0050
16036TIP3    H169599   1.377   2.499  15.854 -0.0245  1.3685 -0.2758
16036TIP3    H269600   1.228   2.482  15.833  0.0978  0.2481 -0.2884
16037TIP3   OH269601   2.133   4.536  12.179 -0.0669  0.3345  0.2992
16037TIP3    H169602   2.076   4.510  12.252  0.3545 -1.0619  0.1411
16037TIP3    H269603   2.073   4.551  12.106 -0.1734 -1.8462 -0.0663
16038TIP3   OH269604   2.616   5.524  15.925 -0.2531 -0.0980 -0.4038
16038TIP3    H169605   2.588   5.434  15.942 -0.5683 -0.2787 -1.7769
16038TIP3    H269606   2.682   5.516  15.857 -0.4363  0.7199 -0.6910
16039TIP3   OH269607   5.832   4.572   0.072  0.6678  0.0697  0.2675
16039TIP3    H169608   5.742   4.552   0.097  0.2115 -0.0700 -1.3993
16039TIP3    H269609   5.878   4.585   0.155 -0.1232 -3.1105  1.2807
16040TIP3   OH269610   1.654   1.854   5.043 -0.0804  0.0787 -0.3226
16040TIP3    H169611   1.622   1.844   5.133 -0.6018 -1.6598 -0.6716
16040TIP3    H269612   1.748   1.834   5.049  0.0727  0.8739 -0.0202
16041TIP3   OH269613   2.553   0.985  11.193  0.7141 -0.3417  0.5133
16041TIP3    H169614   2.539   1.077  11.217 -0.7860 -0.3462 -0.2393
16041TIP3    H269615   2.635   0.985  11.144  0.5516  0.6657  0.2247
16042TIP3   OH269616   4.687   3.875  12.378  0.0088 -0.3187  0.5272
16042TIP3    H169617   4.765   3.924  12.354 -1.2314  1.3171 -0.3227
16042TIP3    H269618   4.667   3.821  12.302 -0.2950  0.0999  0.3030
16043TIP3   OH269619   4.063   5.122   3.326  0.2626 -0.1654 -0.9137
16043TIP3    H169620   4.135   5.069   3.359 -0.9141 -1.8622 -0.9980
16043TIP3    H269621   4.044   5.086   3.239  0.0317  0.9761 -1.3481
16044TIP3   OH269622   0.187   1.996   6.194  0.2939 -0.5282  0.1467
16044TIP3    H169623   0.127   2.070   6.181 -1.6566 -2.2076 -0.5922
16044TIP3    H269624   0.226   2.012   6.280  0.1422  1.4999 -0.1276
16045TIP3   OH269625   3.221   4.333   0.337  0.8982  0.1369  0.4639
16045TIP3    H169626   3.200   4.241   0.354 -1.6549  0.5431 -0.2583
16045TIP3    H269627   3.201   4.345   0.244  2.3462  1.1377  0.2715
16046TIP3   OH269628   1.630   6.736  15.421  0.4087 -0.1641  0.8839
16046TIP3    H169629   1.641   6.779  15.336  0.7589 -0.7410  0.6316
16046TIP3    H269630   1.581   6.799  15.474 -0.7783 -0.2307 -0.0963
16047TIP3   OH269631   2.032   0.879   2.859 -0.2449  0.1149  0.2735
16047TIP3    H169632   2.016   0.905   2.768  2.3262  0.5933 -0.0940
16047TIP3    H269633   2.003   0.788   2.864  0.8795 -0.3583 -1.4246
16048TIP3   OH269634   0.180   4.770   1.738  0.4344 -0.1712 -0.0517
16048TIP3    H169635   0.262   4.722   1.729  1.0912  0.8821  0.1751
16048TIP3    H269636   0.205   4.862   1.726 -0.1368  0.4958  3.2039
16049TIP3   OH269637   3.128   4.555  16.040 -0.9204 -0.4697 -0.5295
16049TIP3    H169638   3.153   4.472  16.079  0.2622 -0.0295 -0.3367
16049TIP3    H269639   3.081   4.531  15.960 -1.3265 -1.3279 -0.0379
16050TIP3   OH269640   4.039   2.956   0.098  0.4634 -0.2099 -0.5233
16050TIP3    H169641   4.073   3.018   0.034 -2.2339  1.6608 -0.2030
16050TIP3    H269642   4.076   2.985   0.182  0.8448 -0.2907 -0.6629
16051TIP3   OH269643   2.649   4.768  16.213  0.2583  0.3633 -0.1704
16051TIP3    H169644   2.737   4.733  16.231  0.1597  0.5299  0.6540
16051TIP3    H269645   2.655   4.860  16.237  0.1052  0.5824 -0.9695
16052TIP3   OH269646   1.615   4.031  15.882 -0.1942 -0.2565 -0.0169
16052TIP3    H169647   1.701   4.049  15.919  0.0241 -2.4917  0.6475
16052TIP3    H269648   1.634   3.986  15.799 -0.7256 -0.0554 -0.2521
16053TIP3   OH269649   5.814   2.659  14.077  0.6768  0.0671 -0.2198
16053TIP3    H169650   5.790   2.656  13.985  1.5050  1.1727 -0.4789
16053TIP3    H269651   5.731   2.655  14.124  0.1277  1.5225 -1.0541
16054TIP3   OH269652   1.291   1.600   4.914  0.5813 -0.0813  0.3422
16054TIP3    H169653   1.354   1.570   4.979  1.4492  0.0533 -0.4409
16054TIP3    H269654   1.272   1.690   4.939  0.8155 -0.0715  0.4841
16055TIP3   OH269655   5.056   5.147   6.336  0.3749 -0.2582 -0.2307
16055TIP3    H169656   5.115   5.087   6.290 -0.3313 -0.4158 -0.9315
16055TIP3    H269657   5.035   5.101   6.417 -0.9549 -1.4193 -1.1992
16056TIP3   OH269658   5.709   1.964   5.906  0.4583 -0.1024  0.2419
16056TIP3    H169659   5.704   1.989   5.998 -0.0172  0.4297  0.0790
16056TIP3    H269660   5.702   1.868   5.906  3.5841 -0.3622  0.9557
16057TIP3   OH269661   4.268   3.140   0.514 -0.3194 -0.2780  1.2428
16057TIP3    H169662   4.213   3.193   0.571  0.8299 -0.8072  2.8719
16057TIP3    H269663   4.339   3.199   0.488 -1.1593  0.1504 -0.1873
16058TIP3   OH269664   5.538   0.267  15.567  0.8163 -0.0801  0.5493
16058TIP3    H169665   5.626   0.293  15.541  0.8638  0.3457  1.1281
16058TIP3    H269666   5.512   0.203  15.500  1.0669  0.7253 -0.3328
16059TIP3   OH269667   2.309   6.272  15.781  0.0732  0.1244  0.4345
16059TIP3    H169668   2.363   6.243  15.708  0.0192  1.6485 -0.2361
16059TIP3    H269669   2.227   6.223  15.772 -0.4387  1.2627 -1.3133
16060TIP3   OH269670   4.189   1.778   3.422  0.0741 -0.1619 -0.5983
16060TIP3    H169671   4.228   1.726   3.491  1.2518  1.7793  0.2307
16060TIP3    H269672   4.117   1.825   3.464  0.4111  0.5613 -0.8050
16061TIP3   OH269673   1.007   4.374   2.744  0.3877 -0.1644  0.2653
16061TIP3    H169674   0.964   4.291   2.767  2.3887 -2.0465 -2.3324
16061TIP3    H269675   1.074   4.386   2.811 -0.5096 -0.2120  1.1629
16062TIP3   OH269676   1.033   3.759  16.403  0.3666 -0.6962  0.2788
16062TIP3    H169677   1.050   3.813  16.480  2.9253 -0.1561 -0.6152
16062TIP3    H269678   1.021   3.821  16.332 -2.0755 -1.1926  0.2039
16063TIP3   OH269679   2.020   3.638   5.538 -0.2190 -0.7347 -0.2960
16063TIP3    H169680   1.968   3.593   5.604  1.6514 -1.1538  0.9331
16063TIP3    H269681   2.054   3.569   5.482 -0.0441 -0.5680 -0.3963
16064TIP3   OH269682   0.678   1.462  16.512  0.4740 -0.0172  0.7070
16064TIP3    H169683   0.645   1.436  16.598 -0.7253 -1.7135 -0.2201
16064TIP3    H269684   0.600   1.467  16.457  1.4155 -0.8513 -0.7404
16065TIP3   OH269685   4.748   4.903   1.040 -0.2140 -0.9015  0.2499
16065TIP3    H169686   4.712   4.937   0.958  0.2962 -1.4067 -0.1964
16065TIP3    H269687   4.686   4.929   1.107 -0.1016  0.4500 -0.1544
16066TIP3   OH269688   2.617   2.141  14.575 -0.3745 -1.0532  0.5267
16066TIP3    H169689   2.521   2.141  14.581 -0.4832  1.2308 -0.7476
16066TIP3    H269690   2.643   2.057  14.613 -2.7403 -0.6792  3.1736
16067TIP3   OH269691   5.639   4.070  16.491  0.2098  0.4489 -0.1413
16067TIP3    H169692   5.584   4.144  16.465  0.3011  0.2948 -0.7705
16067TIP3    H269693   5.581   3.994  16.488  0.0627  0.5215  0.7094
16068TIP3   OH269694   4.149   1.714   4.892 -0.1134  0.0077  1.1834
16068TIP3    H169695   4.219   1.735   4.830  0.3883 -2.4276  0.8758
16068TIP3    H269696   4.186   1.645   4.947 -1.6035  0.0695  2.3079
16069TIP3   OH269697   0.191   1.838   4.740 -0.2617  0.1978  0.3686
16069TIP3    H169698   0.239   1.770   4.693  0.2720  1.3854 -0.8194
16069TIP3    H269699   0.200   1.814   4.832  2.8885  0.5676  0.2032
16070TIP3   OH269700   5.311   1.462  12.044  0.3955  0.2574  0.0555
16070TIP3    H169701   5.303   1.421  11.958 -0.9132  1.2003 -0.2829
16070TIP3    H269702   5.402   1.491  12.049  0.6131 -0.2709 -0.7881
16071TIP3   OH269703   5.325   3.729  16.659  0.3519 -0.1572  0.1647
16071TIP3    H169704   5.354   3.663  16.595  1.6141  1.1313 -0.6260
16071TIP3    H269705   5.253   3.775  16.615  0.4120 -0.0688  0.1576
16072TIP3   OH269706   2.796   5.994   5.685 -0.0061 -0.3520 -0.1188
16072TIP3    H169707   2.875   6.041   5.713  0.1243  0.2221 -1.3964
16072TIP3    H269708   2.829   5.926   5.626 -0.5677  0.7633 -1.7507
16073TIP3   OH269709   4.413   6.676  10.510  0.6906 -0.1994  0.0583
16073TIP3    H169710   4.352   6.685  10.583 -0.0126  1.3658 -0.6906
16073TIP3    H269711   4.425   6.582  10.501 -1.4274 -0.5455  0.3866
16074TIP3   OH269712   2.999   6.305  12.292 -0.0750 -0.4248  0.5973
16074TIP3    H169713   3.048   6.318  12.211 -0.7197 -0.0410  0.2647
16074TIP3    H269714   2.965   6.392  12.314 -0.3165 -0.6205  1.0168
16075TIP3   OH269715   5.818   5.328  10.544 -0.3053  0.2161 -0.4417
16075TIP3    H169716   5.826   5.353  10.452 -1.3131  2.2795  0.0098
16075TIP3    H269717   5.854   5.403  10.592  2.4227 -1.7974  0.8184
16076TIP3   OH269718   6.769   6.059   4.858 -0.1675 -0.2788 -0.0521
16076TIP3    H169719   6.838   6.108   4.901  0.0622 -2.1462  1.7876
16076TIP3    H269720   6.708   6.035   4.928  0.3870 -3.6741 -0.6185
16077TIP3   OH269721   3.021   5.257  12.125  0.1140  0.0012  0.3337
16077TIP3    H169722   3.058   5.203  12.195 -0.2598 -0.7722 -0.0598
16077TIP3    H269723   3.062   5.343  12.137  1.3193 -0.5806  0.4821
16078TIP3   OH269724   5.665   0.977  11.439 -0.2000  0.6871 -0.2385
16078TIP3    H169725   5.735   1.008  11.381 -0.1083  0.2639 -0.3570
16078TIP3    H269726   5.658   1.044  11.507  1.3178  0.0247  0.5986
16079TIP3   OH269727   4.710   0.819  17.045  0.4431  0.7775 -0.2706
16079TIP3    H169728   4.746   0.811  17.134  0.4056  0.7232 -0.2607
16079TIP3    H269729   4.785   0.848  16.992  1.0403 -1.3804 -0.6537
16080TIP3   OH269730   2.766   3.717  16.796 -0.5320  0.2350  0.6895
16080TIP3    H169731   2.815   3.727  16.715  0.9008  1.7939  1.7430
16080TIP3    H269732   2.820   3.658  16.849 -0.7402  0.4134  1.1001
16081TIP3   OH269733   6.315   0.780   1.244  0.3250  0.1780  0.2493
16081TIP3    H169734   6.256   0.827   1.303  0.1961 -0.9238  1.0131
16081TIP3    H269735   6.401   0.785   1.287  0.0728 -1.3265  0.9524
16082TIP3   OH269736   2.566   4.186   5.064  0.8127 -0.2723  0.4198
16082TIP3    H169737   2.525   4.172   4.979  2.4712 -0.1743 -0.4235
16082TIP3    H269738   2.518   4.259   5.103 -1.2549 -1.6039  0.4400
16083TIP3   OH269739   2.729   5.640   5.355  0.0101  0.1486 -0.0916
16083TIP3    H169740   2.775   5.559   5.376 -0.4251  0.2224  1.1921
16083TIP3    H269741   2.728   5.643   5.260  1.9737 -0.2449 -0.1509
16084TIP3   OH269742   5.901   3.992   1.611  0.1368 -0.4254  0.4228
16084TIP3    H169743   5.888   4.082   1.639  0.8291 -0.0620 -0.3870
16084TIP3    H269744   5.850   3.983   1.531  1.7142 -0.1237 -0.6404
16085TIP3   OH269745   5.280   3.399   5.486  0.5006 -0.1655 -0.1727
16085TIP3    H169746   5.306   3.491   5.495 -0.6931  0.3158 -1.4666
16085TIP3    H269747   5.201   3.392   5.540 -0.2485 -0.0482 -1.2301
16086TIP3   OH269748   1.436   3.328   3.867  0.0124  0.6697 -0.4684
16086TIP3    H169749   1.340   3.327   3.877 -0.1822 -0.5581 -2.1683
16086TIP3    H269750   1.453   3.399   3.806  0.1973  1.0125 -0.0150
16087TIP3   OH269751   0.420   1.644  17.040 -0.0496  0.6210  0.4281
16087TIP3    H169752   0.416   1.720  17.098  0.6651  2.6277 -2.0676
16087TIP3    H269753   0.481   1.670  16.971 -0.7641 -1.7618 -1.1496
16088TIP3   OH269754   5.058   3.440   2.038  0.0478  0.5549 -0.4750
16088TIP3    H169755   5.035   3.438   2.131  0.4793 -0.4949 -0.3829
16088TIP3    H269756   5.031   3.355   2.005  0.6808  0.6074 -1.1300
16089TIP3   OH269757   6.155   6.458   2.053  0.2512 -0.0519  0.5593
16089TIP3    H169758   6.179   6.400   1.981  0.7346  0.1523  0.5523
16089TIP3    H269759   6.104   6.403   2.112 -1.4677  0.1632 -0.6659
16090TIP3   OH269760   5.083   4.034   1.243  0.3023 -0.2281  0.3437
16090TIP3    H169761   5.005   3.978   1.238  0.2632 -0.1009 -0.7460
16090TIP3    H269762   5.066   4.094   1.315 -0.5204 -0.3367  0.2416
16091TIP3   OH269763   2.912   1.652   2.714  0.5903  0.2005  0.2008
16091TIP3    H169764   2.968   1.589   2.759  0.7311  0.3608  0.2500
16091TIP3    H269765   2.907   1.727   2.773 -0.4372 -0.1779  0.6226
16092TIP3   OH269766   2.462   5.675  16.478 -0.6579  0.1880  0.0436
16092TIP3    H169767   2.439   5.582  16.478  2.6576 -0.7156 -0.3123
16092TIP3    H269768   2.502   5.689  16.564  0.4461  0.8168 -0.5540
16093TIP3   OH269769   5.698   6.754   0.318 -0.7282  0.2679  0.5276
16093TIP3    H169770   5.750   6.696   0.373 -1.1808  0.6715  1.3759
16093TIP3    H269771   5.656   6.814   0.379  0.3684  2.0161 -0.3780
16094TIP3   OH269772   1.850   5.999   2.780 -0.0339 -0.3313  0.4203
16094TIP3    H169773   1.806   6.007   2.695 -2.5907  0.6898  1.8040
16094TIP3    H269774   1.861   5.905   2.792  1.6600 -0.4468 -1.6524
16095TIP3   OH269775   6.372   2.929   1.456 -0.0047  0.2464 -0.9111
16095TIP3    H169776   6.339   2.998   1.398 -0.8761  0.9132  0.3327
16095TIP3    H269777   6.321   2.940   1.536  1.7096 -0.1645  0.2538
16096TIP3   OH269778   1.148   6.721   0.537 -0.3708 -0.4560 -0.0334
16096TIP3    H169779   1.204   6.692   0.609  1.8121  0.3670 -1.3795
16096TIP3    H269780   1.122   6.810   0.561  0.3585 -0.1794 -0.2703
16097TIP3   OH269781   2.138   6.122  13.358 -0.1667 -0.1411 -0.2505
16097TIP3    H169782   2.073   6.153  13.421  0.2767 -0.2407  0.2501
16097TIP3    H269783   2.200   6.071  13.410  1.9533  2.3659 -0.2280
16098TIP3   OH269784   5.576   2.373   1.020  0.3661  0.5423  0.2469
16098TIP3    H169785   5.620   2.457   1.030 -0.8548  1.2269 -0.0542
16098TIP3    H269786   5.604   2.340   0.935 -0.8106  1.6437 -0.5800
16099TIP3   OH269787   5.679   5.830  15.749 -0.4317  0.0270 -0.4206
16099TIP3    H169788   5.606   5.849  15.807  1.1721 -1.3334  2.1248
16099TIP3    H269789   5.735   5.907  15.755  0.6980 -0.9109  1.4081
16100TIP3   OH269790   2.682   0.357   1.808 -0.4339  0.4454  0.2320
16100TIP3    H169791   2.629   0.432   1.835 -0.5996  0.6333 -0.6101
16100TIP3    H269792   2.773   0.384   1.825 -0.4345  1.1793 -0.8773
16101TIP3   OH269793   6.735   0.014   0.783 -0.0123 -0.0403 -0.0851
16101TIP3    H169794   6.765   0.088   0.730  0.6327 -0.3931 -0.2219
16101TIP3    H269795   6.810  -0.045   0.786 -1.2186 -1.7132 -1.7790
16102TIP3   OH269796   0.055   4.975   1.460  0.0950  0.1221 -0.1254
16102TIP3    H169797   0.002   4.945   1.533  0.1523 -1.3943 -0.6929
16102TIP3    H269798   0.116   4.903   1.442 -2.1834 -1.0264 -3.8340
16103TIP3   OH269799   5.142   2.569  16.107  0.2001  0.2417 -0.6994
16103TIP3    H169800   5.163   2.637  16.043 -0.2829  1.2430  0.1985
16103TIP3    H269801   5.047   2.577  16.120  0.5607  1.1554  1.4089
16104TIP3   OH269802   4.105   0.898   5.195  0.4953  0.1589  0.2603
16104TIP3    H169803   4.127   0.931   5.282 -1.8608 -1.6835  1.6259
16104TIP3    H269804   4.021   0.855   5.207  0.2621 -0.3632 -2.9064
16105TIP3   OH269805   5.961   0.739   5.344 -0.4634 -0.1376  0.1271
16105TIP3    H169806   5.929   0.813   5.395 -0.6388  0.7781 -1.2887
16105TIP3    H269807   6.052   0.761   5.324  0.1461 -1.3201  1.5507
16106TIP3   OH269808   1.033   3.246   6.091 -0.1470  0.2849  0.1648
16106TIP3    H169809   0.997   3.158   6.108  1.3710 -0.4574 -0.3422
16106TIP3    H269810   1.060   3.278   6.177  0.5328 -0.3184  0.1869
16107TIP3   OH269811   2.452   3.723  15.246 -0.9185  0.2880 -0.3783
16107TIP3    H169812   2.508   3.728  15.323 -0.5338  0.0719 -0.6413
16107TIP3    H269813   2.510   3.744  15.173 -1.4036  1.0411 -0.5610
16108TIP3   OH269814   0.512   0.613  13.140  0.7393 -0.1228 -0.4707
16108TIP3    H169815   0.434   0.634  13.090 -1.4068 -2.1211  1.9175
16108TIP3    H269816   0.583   0.616  13.076 -1.6062 -0.6186 -3.1898
16109TIP3   OH269817   5.709   2.326   0.775 -0.0977 -0.1501  0.3020
16109TIP3    H169818   5.654   2.331   0.697  1.0049  0.0133 -0.4586
16109TIP3    H269819   5.743   2.415   0.787 -1.2235  0.1325  1.6818
16110TIP3   OH269820   3.774   3.803   3.676  0.3898  0.3116 -0.1756
16110TIP3    H169821   3.836   3.841   3.614  1.2570 -0.1967  0.3671
16110TIP3    H269822   3.754   3.716   3.640  0.0244  0.4530 -0.3224
16111TIP3   OH269823   5.520   0.399  12.941 -0.3433  0.3250  0.4675
16111TIP3    H169824   5.488   0.310  12.936  0.6402 -0.2939  3.8165
16111TIP3    H269825   5.530   0.427  12.850 -0.1882 -3.1322 -0.6287
16112TIP3   OH269826   6.207   1.435  16.213 -0.0270  0.3225  0.2121
16112TIP3    H169827   6.256   1.515  16.192  0.4684  0.2736  1.1452
16112TIP3    H269828   6.268   1.383  16.264 -0.0762 -1.0112 -1.0703
16113TIP3   OH269829   4.548   1.206   3.188 -0.4337 -0.2714  0.0768
16113TIP3    H169830   4.468   1.226   3.236  0.5210 -0.8101  1.9272
16113TIP3    H269831   4.546   1.112   3.174 -0.0604 -0.3055  0.2427
16114TIP3   OH269832   2.244   4.473  11.928  0.7152  0.1007  1.1562
16114TIP3    H169833   2.205   4.532  11.863  0.6979  0.3218  1.3692
16114TIP3    H269834   2.248   4.524  12.008  1.4572  0.0836  1.1344
16115TIP3   OH269835   4.145   2.434   3.922 -0.0010 -0.0082 -0.1996
16115TIP3    H169836   4.128   2.522   3.956  1.8948  0.0850  0.5650
16115TIP3    H269837   4.133   2.376   3.997  0.6466 -0.1988 -0.2449
16116TIP3   OH269838   6.324   0.227   1.447 -0.1698  0.0364  0.1895
16116TIP3    H169839   6.378   0.238   1.369  0.2010 -0.1924  0.4110
16116TIP3    H269840   6.237   0.206   1.413  0.4165 -1.9584 -0.1450
16117TIP3   OH269841   5.042   4.834  11.802 -0.0289  0.1364  0.4184
16117TIP3    H169842   5.000   4.763  11.754 -0.1609 -2.0206  3.5895
16117TIP3    H269843   4.971   4.893  11.826 -0.5637 -0.9344  1.5025
16118TIP3   OH269844   4.056   5.625  14.572  0.1191 -0.7208  0.2757
16118TIP3    H169845   4.146   5.650  14.592  0.5978 -1.2496 -1.1503
16118TIP3    H269846   4.047   5.640  14.478 -1.8608  1.0550  0.7123
16119TIP3   OH269847   3.661   6.041  12.122 -0.5814  0.2690  0.4991
16119TIP3    H169848   3.681   6.093  12.044 -2.2831 -0.4609 -0.4741
16119TIP3    H269849   3.745   6.005  12.149  0.0995  0.8735 -0.7670
16120TIP3   OH269850   4.041   1.058  10.738 -0.1622 -0.4986 -0.0087
16120TIP3    H169851   4.031   1.045  10.644 -0.1573  1.0957 -0.2492
16120TIP3    H269852   3.956   1.093  10.767  0.4416  0.7558  0.2515
16121TIP3   OH269853   5.971   1.723  17.039 -0.2303  0.1848 -0.3849
16121TIP3    H169854   6.007   1.729  16.950  0.1584  1.2744 -0.1501
16121TIP3    H269855   6.038   1.676  17.089 -1.1513 -1.9094 -1.0368
16122TIP3   OH269856   4.977   0.482  11.381 -0.7223  0.1427  0.5480
16122TIP3    H169857   4.951   0.456  11.470  0.7181 -1.3512  0.5475
16122TIP3    H269858   5.029   0.408  11.348  0.4711  1.5319 -0.7772
16123TIP3   OH269859   1.189   1.833  13.681 -0.1476 -0.2927  0.3720
16123TIP3    H169860   1.270   1.791  13.709  0.3246  0.8101  0.6834
16123TIP3    H269861   1.198   1.924  13.709 -0.3067  0.4928 -2.0199
16124TIP3   OH269862   2.829   4.631  11.752  0.6638  1.1584 -0.2137
16124TIP3    H169863   2.923   4.614  11.750  0.5489  0.2940  0.8791
16124TIP3    H269864   2.790   4.555  11.709  0.2320 -0.7446  3.2990
16125TIP3   OH269865   4.187   0.202   5.779 -0.5921 -0.1038 -0.2186
16125TIP3    H169866   4.160   0.288   5.748 -3.3791 -0.2239  1.6052
16125TIP3    H269867   4.256   0.174   5.719  0.1657  3.2580 -0.9985
16126TIP3   OH269868   5.587   4.126   1.378  0.8874  0.4974 -0.4981
16126TIP3    H169869   5.651   4.055   1.386  1.0609  0.9960  3.2146
16126TIP3    H269870   5.508   4.092   1.419 -0.3477  0.9646 -2.4449
16127TIP3   OH269871   0.684   6.197  14.083  0.9521 -0.3013 -0.3753
16127TIP3    H169872   0.657   6.105  14.091 -0.1372 -0.0019 -0.6053
16127TIP3    H269873   0.689   6.228  14.173  0.5805 -0.3760 -0.3261
16128TIP3   OH269874   2.355   0.853  12.558 -0.2451  0.3113 -0.3219
16128TIP3    H169875   2.327   0.937  12.594 -1.9914  0.2644 -1.5294
16128TIP3    H269876   2.435   0.832  12.606 -0.3867  2.1333  0.7515
16129TIP3   OH269877   3.784   6.376  14.022 -0.2447 -0.4713 -0.5030
16129TIP3    H169878   3.734   6.305  13.983  0.9085 -1.3153 -0.4762
16129TIP3    H269879   3.722   6.419  14.081 -1.5912 -0.0556 -2.1804
16130TIP3   OH269880   0.691   3.166  16.152  0.4291  0.6333  0.3180
16130TIP3    H169881   0.672   3.073  16.137  2.2900  0.3646 -0.5488
16130TIP3    H269882   0.653   3.210  16.076  1.3659  0.3270 -0.3470
16131TIP3   OH269883   2.727   4.082   3.100 -0.3151 -0.0291  0.0101
16131TIP3    H169884   2.753   4.127   3.181 -2.6649  0.0242  0.7522
16131TIP3    H269885   2.641   4.117   3.079 -0.0474 -0.5951 -2.1336
16132TIP3   OH269886   3.601   1.533   5.448  0.7796 -0.3967 -0.6928
16132TIP3    H169887   3.648   1.606   5.408  1.0530 -0.4270 -0.4305
16132TIP3    H269888   3.582   1.562   5.537  0.0461 -0.2712 -0.8816
16133TIP3   OH269889   6.099   5.867  12.206 -0.5860 -0.4083  0.0076
16133TIP3    H169890   6.167   5.809  12.240  0.0734  0.2904 -0.1087
16133TIP3    H269891   6.147   5.932  12.154 -1.5608 -1.5351 -2.3921
16134TIP3   OH269892   5.138   1.712  13.239  0.5775  0.6514 -0.1839
16134TIP3    H169893   5.145   1.617  13.236  1.6320  0.7201 -0.0323
16134TIP3    H269894   5.134   1.739  13.148 -2.8938  0.2698 -0.2488
16135TIP3   OH269895   2.013   5.120  15.588  0.0654  0.4908 -0.0660
16135TIP3    H169896   2.042   5.153  15.503  0.3338  0.1185 -0.1186
16135TIP3    H269897   2.089   5.074  15.623  0.0894  1.0128  0.5655
16136TIP3   OH269898   6.334   1.866  17.006  0.9545  0.2263  0.2546
16136TIP3    H169899   6.261   1.807  16.989  1.0505 -0.2234  1.3575
16136TIP3    H269900   6.293   1.946  17.041  1.0206 -0.2300  1.3915
16137TIP3   OH269901   3.193   3.180   3.993  0.3432 -0.1067  0.4713
16137TIP3    H169902   3.111   3.204   3.951  0.2613  0.9012  1.1866
16137TIP3    H269903   3.207   3.248   4.059  1.6206 -0.4029  0.5245
16138TIP3   OH269904   1.403   3.208  12.845  0.1854 -0.6868 -0.1085
16138TIP3    H169905   1.338   3.249  12.902  0.3773  3.4496 -2.6445
16138TIP3    H269906   1.352   3.181  12.768  0.8669 -0.9338 -0.4725
16139TIP3   OH269907   0.648   0.277  16.802 -0.0409  0.2547 -0.2881
16139TIP3    H169908   0.679   0.186  16.793 -0.5870  0.0298  0.1312
16139TIP3    H269909   0.566   0.270  16.850 -0.7902  0.8514 -1.4735
16140TIP3   OH269910   0.018   5.979  15.674 -0.2430 -0.0550 -0.5249
16140TIP3    H169911  -0.047   6.041  15.707 -0.2323  0.6547 -1.7824
16140TIP3    H269912  -0.033   5.916  15.622 -0.2076 -0.8886  0.4300
16141TIP3   OH269913   0.085   5.749   1.282 -0.0692 -0.0631 -0.9161
16141TIP3    H169914   0.064   5.772   1.372  2.1302 -0.4782 -0.2572
16141TIP3    H269915   0.173   5.711   1.287  0.7591  1.3808 -3.4398
16142TIP3   OH269916   0.677   1.528   4.393  0.7389 -0.3291  0.6398
16142TIP3    H169917   0.722   1.509   4.476 -1.7345  0.0677  2.1288
16142TIP3    H269918   0.604   1.585   4.418 -0.6611 -1.0403 -1.6759
16143TIP3   OH269919   1.990   3.288   1.394  0.4728 -0.3728  0.3662
16143TIP3    H169920   1.934   3.363   1.415  0.9295  0.8521 -2.5150
16143TIP3    H269921   2.000   3.292   1.299  4.2408 -1.4392  0.6385
16144TIP3   OH269922   2.108   2.748   0.585  0.1520 -0.1559  0.0589
16144TIP3    H169923   2.100   2.675   0.524 -0.5838 -0.8655  0.9886
16144TIP3    H269924   2.038   2.809   0.559 -1.3382 -1.2879  1.2924
16145TIP3   OH269925   3.599   2.787  15.698  0.0891  0.2034 -0.4607
16145TIP3    H169926   3.676   2.738  15.728 -0.7652 -0.6609  0.3576
16145TIP3    H269927   3.575   2.746  15.614 -1.0204 -1.2481  0.5401
16146TIP3   OH269928   4.261   2.747   1.190 -0.6500  0.4732  0.1067
16146TIP3    H169929   4.259   2.653   1.172 -0.5738  0.4662  0.1378
16146TIP3    H269930   4.245   2.754   1.284  0.8641  0.4187  0.3766
16147TIP3   OH269931   1.391   5.321   2.964 -0.5621  0.7802 -0.4055
16147TIP3    H169932   1.421   5.374   2.890  2.7496 -1.7355 -0.9218
16147TIP3    H269933   1.383   5.233   2.930 -0.7137 -0.1065  1.8236
16148TIP3   OH269934   4.034   3.359   3.521 -0.2612  0.1022 -0.5590
16148TIP3    H169935   4.036   3.431   3.458 -1.5039 -0.5304 -1.3480
16148TIP3    H269936   3.949   3.368   3.565  1.2107  1.4553  2.1547
16149TIP3   OH269937   1.199   4.394   4.890 -0.4646 -0.3969 -0.3940
16149TIP3    H169938   1.185   4.367   4.799 -3.9477  1.8718 -0.6219
16149TIP3    H269939   1.149   4.330   4.941 -1.1992  0.2374 -0.3132
16150TIP3   OH269940   4.529   2.305   2.120 -0.0905 -0.3371 -0.1588
16150TIP3    H169941   4.453   2.362   2.134  0.0362 -0.4070  0.8878
16150TIP3    H269942   4.502   2.245   2.051 -1.8227 -1.8008  1.7178
16151TIP3   OH269943   5.413   1.212   4.542 -0.5189  0.0889 -0.2931
16151TIP3    H169944   5.458   1.162   4.609 -0.2513 -0.4452 -0.8715
16151TIP3    H269945   5.481   1.238   4.480 -0.2359  3.1180  1.1609
16152TIP3   OH269946   1.115   2.103  14.075  0.1380 -0.3316  0.6972
16152TIP3    H169947   1.050   2.156  14.122  0.6830  0.0583  1.0209
16152TIP3    H269948   1.133   2.153  13.995  0.9814  0.2161  1.2098
16153TIP3   OH269949   5.006   6.087   0.977 -0.4186  0.1441  0.2864
16153TIP3    H169950   5.075   6.049   0.923  0.2816  0.6578  0.7974
16153TIP3    H269951   5.054   6.131   1.048 -1.3162 -0.7773  1.4934
16154TIP3   OH269952   3.491   4.481  13.122  0.2347  0.3528  0.5322
16154TIP3    H169953   3.458   4.408  13.070  2.5002 -0.7889  0.6249
16154TIP3    H269954   3.500   4.553  13.059 -1.6376  0.4527  0.3591
16155TIP3   OH269955   3.381   3.951   3.628  0.0252  0.3130 -0.1158
16155TIP3    H169956   3.324   3.992   3.692 -0.1590  0.2399 -0.2330
16155TIP3    H269957   3.351   3.860   3.623  0.3374  0.2025  0.0360
16156TIP3   OH269958   4.704   1.410   4.385  0.2004 -0.1930 -0.3247
16156TIP3    H169959   4.614   1.402   4.417  0.9943  0.1299  2.1445
16156TIP3    H269960   4.727   1.501   4.403  0.1761  0.4779 -3.3924
16157TIP3   OH269961   4.414   5.556  16.815 -0.5907  0.0600 -0.6097
16157TIP3    H169962   4.384   5.482  16.761 -2.3105  0.1525  0.1928
16157TIP3    H269963   4.343   5.570  16.878  1.3910 -0.0904  1.7501
16158TIP3   OH269964   0.815   1.219  14.962  0.2618  0.3181  0.1559
16158TIP3    H169965   0.722   1.232  14.947 -0.4303 -2.5988  1.5908
16158TIP3    H269966   0.844   1.299  15.006 -1.8501  0.6930  0.9202
16159TIP3   OH269967   5.741   0.583   0.518  0.8384 -0.2199 -0.4748
16159TIP3    H169968   5.733   0.570   0.612  0.6957 -0.0302 -0.4593
16159TIP3    H269969   5.706   0.503   0.479 -0.7283  0.4023 -0.3958
16160TIP3   OH269970   6.622   3.788  13.058 -0.3889  0.4257 -0.3241
16160TIP3    H169971   6.650   3.879  13.066  1.1522  0.0311 -1.0063
16160TIP3    H269972   6.550   3.790  12.995 -1.4090  1.3565  0.8503
16161TIP3   OH269973   4.739   2.699   1.776  0.0778  0.6914  0.2400
16161TIP3    H169974   4.739   2.737   1.689  0.1894 -0.4307 -0.2558
16161TIP3    H269975   4.769   2.770   1.833  1.3597  1.0130 -0.8085
16162TIP3   OH269976   5.592   2.281  16.884  0.4052 -0.1944 -0.1878
16162TIP3    H169977   5.533   2.356  16.873 -0.3024 -0.5073  1.3401
16162TIP3    H269978   5.612   2.253  16.795  0.0418  1.3177 -0.7666
16163TIP3   OH269979   4.339   5.134   6.603  0.2913  0.1652 -0.1449
16163TIP3    H169980   4.369   5.070   6.539  0.0815 -0.6726  0.5863
16163TIP3    H269981   4.291   5.082   6.667 -0.3124  1.1232  0.1828
16164TIP3   OH269982   2.242   0.750   0.093  0.2839 -0.6909 -0.6512
16164TIP3    H169983   2.165   0.790   0.135 -0.8520 -3.3472 -0.1416
16164TIP3    H269984   2.242   0.786   0.004  0.8823  2.5362  0.5686
16165TIP3   OH269985   5.636   2.979   0.419 -0.0433  0.6331 -0.1755
16165TIP3    H169986   5.638   2.895   0.372 -0.9219  0.1555  0.6258
16165TIP3    H269987   5.553   2.979   0.466 -0.0373  1.9499 -0.1388
16166TIP3   OH269988   5.098   6.195  14.479  0.0029 -0.8541 -0.3408
16166TIP3    H169989   5.183   6.222  14.442 -0.7936 -0.5474 -2.0010
16166TIP3    H269990   5.091   6.244  14.561  1.2729 -0.5945 -0.3798
16167TIP3   OH269991   2.754   0.607   4.513 -0.1646  0.1676  0.0864
16167TIP3    H169992   2.795   0.690   4.534 -0.5247  0.6084 -0.9409
16167TIP3    H269993   2.774   0.592   4.421 -2.1844  0.3417 -0.4196
16168TIP3   OH269994   6.139   0.991  16.217 -0.4431  0.0406 -0.3395
16168TIP3    H169995   6.126   0.963  16.308 -1.9165  0.4375 -0.4182
16168TIP3    H269996   6.168   0.912  16.171 -3.4560 -1.1159 -0.3381
16169TIP3   OH269997   0.701   3.435  12.930  0.5637 -0.0448 -0.3913
16169TIP3    H169998   0.612   3.418  12.899  0.9629 -0.6806 -1.1954
16169TIP3    H269999   0.700   3.526  12.957  0.2625  0.5644 -2.4238
16170TIP3   OH270000   5.335   5.557   1.622  0.2683  0.7849 -0.0524
16170TIP3    H170001   5.430   5.555   1.610  0.6900  1.6826  2.8356
16170TIP3    H270002   5.323   5.584   1.713 -2.7931  2.7716 -0.9843
16171TIP3   OH270003   0.865   4.340   0.948 -0.4961 -0.2520  0.1055
16171TIP3    H170004   0.898   4.252   0.930 -0.3896 -0.2199  0.1391
16171TIP3    H270005   0.916   4.370   1.024  0.2961  0.2893 -0.6342
16172TIP3   OH270006   0.579   3.403  12.123  0.2487  0.0628  0.5725
16172TIP3    H170007   0.655   3.347  12.110 -0.1218 -0.7621  1.8845
16172TIP3    H270008   0.611   3.474  12.179  0.2567  0.1283  0.4830
16173TIP3   OH270009   4.299   4.393  12.851 -0.5670 -0.8970 -0.0538
16173TIP3    H170010   4.250   4.418  12.773 -0.6593 -1.3420 -0.1388
16173TIP3    H270011   4.387   4.373  12.819 -0.5928 -1.0365 -0.0422
16174TIP3   OH270012   3.510   5.212  13.648 -0.0980  0.2465  0.0282
16174TIP3    H170013   3.457   5.264  13.708  1.8125 -0.1636  2.1373
16174TIP3    H270014   3.555   5.149  13.705  3.8649  1.6058 -1.4717
16175TIP3   OH270015   1.666   4.638   3.762  0.1118 -0.2866 -0.2164
16175TIP3    H170016   1.593   4.684   3.804  0.2736 -0.9460  0.7896
16175TIP3    H270017   1.730   4.707   3.745 -0.3936  0.1593 -0.3657
16176TIP3   OH270018   6.286   4.688  15.362  0.2935 -0.8140  0.3707
16176TIP3    H170019   6.327   4.725  15.440 -0.0052  1.1227 -0.3777
16176TIP3    H270020   6.209   4.742  15.347  0.2050 -1.3326 -1.1190
16177TIP3   OH270021   5.000   1.004  12.193 -0.2336 -0.2757 -0.7117
16177TIP3    H170022   4.934   1.049  12.141 -1.1051 -0.3520  0.3140
16177TIP3    H270023   4.995   0.912  12.165  0.9186  0.0836 -2.1536
16178TIP3   OH270024   6.749   0.275  15.872  0.0372 -0.0838  0.0594
16178TIP3    H170025   6.704   0.318  15.945 -0.3606 -1.0180  0.3644
16178TIP3    H270026   6.750   0.341  15.803 -1.4818  0.0672  0.1651
16179TIP3   OH270027   4.124   3.657   1.963 -0.6856  0.4594  0.5850
16179TIP3    H170028   4.068   3.642   2.038 -1.1221  1.5913  0.4961
16179TIP3    H270029   4.124   3.752   1.951  1.8064  0.5470  1.0175
16180TIP3   OH270030   3.471   2.234   5.435 -0.1763 -0.3591 -0.0839
16180TIP3    H170031   3.519   2.207   5.514  0.4007  0.7338 -0.0653
16180TIP3    H270032   3.509   2.318   5.411 -1.7335  0.2717 -0.3694
16181TIP3   OH270033   1.370   0.978  14.966 -0.3160  0.1388  0.0679
16181TIP3    H170034   1.366   0.914  15.036  1.1662  1.5511  1.4950
16181TIP3    H270035   1.283   0.975  14.925 -0.5205 -2.1602  0.6298
16182TIP3   OH270036   1.949   5.644  16.251  0.5999  0.7342 -0.4584
16182TIP3    H170037   1.901   5.703  16.310  0.7081 -0.1754  0.5631
16182TIP3    H270038   2.041   5.661  16.271  0.6562  0.8459 -0.8033
16183TIP3   OH270039   4.514   4.435  11.677  0.1321 -0.0273  1.1982
16183TIP3    H170040   4.455   4.485  11.733  1.5843  1.4989  1.3757
16183TIP3    H270041   4.577   4.499  11.645  0.9938 -1.4260  0.0620
16184TIP3   OH270042   0.098   0.758   2.754  0.0369 -0.5487 -0.4021
16184TIP3    H170043   0.180   0.796   2.723 -0.0017 -0.5652 -0.5217
16184TIP3    H270044   0.121   0.716   2.837  0.7762 -3.1589 -1.8950
16185TIP3   OH270045   6.344   5.737  15.829  0.3952  0.5794 -0.0396
16185TIP3    H170046   6.335   5.832  15.824 -3.0721  0.2680 -0.7725
16185TIP3    H270047   6.364   5.720  15.921  1.1070  2.0255  0.0862
16186TIP3   OH270048   2.581   3.391   4.795 -0.1315  0.3064  0.4011
16186TIP3    H170049   2.515   3.454   4.825 -0.8763 -0.9928  1.5810
16186TIP3    H270050   2.574   3.319   4.858  0.9384 -0.7953 -0.7367
16187TIP3   OH270051   1.166   4.627   5.295  0.4060 -0.3313 -0.3004
16187TIP3    H170052   1.159   4.722   5.285 -1.5681 -0.1571  2.3319
16187TIP3    H270053   1.256   4.606   5.270  0.8783  2.2205 -0.8058
16188TIP3   OH270054   1.334   4.341  16.315 -1.0810 -0.2492 -0.2171
16188TIP3    H170055   1.257   4.380  16.357 -2.1310  0.2464 -2.5266
16188TIP3    H270056   1.340   4.384  16.230  0.3919 -1.9340 -1.0087
16189TIP3   OH270057   3.540   0.566  12.279  0.1892  0.3149  0.0295
16189TIP3    H170058   3.508   0.629  12.343  2.4490  0.3538  1.1656
16189TIP3    H270059   3.530   0.481  12.321  0.0042  0.1766 -0.2880
16190TIP3   OH270060   2.859   0.229   3.116 -0.5732 -0.4646 -0.3911
16190TIP3    H170061   2.880   0.255   3.206 -1.2502 -0.1475 -0.3272
16190TIP3    H270062   2.851   0.311   3.068 -1.6589 -0.5804 -0.4209
16191TIP3   OH270063   2.591   5.402   4.566  0.2802 -0.1482 -0.4872
16191TIP3    H170064   2.533   5.477   4.581  0.2935 -0.2998  0.3735
16191TIP3    H270065   2.534   5.332   4.537  0.0586 -0.2344  0.1494
16192TIP3   OH270066   2.169   1.016   2.633  0.2832  0.1804  0.3224
16192TIP3    H170067   2.232   1.054   2.694 -1.9764  2.1816  1.4619
16192TIP3    H270068   2.128   1.090   2.590 -1.8119 -1.0438  0.1230
16193TIP3   OH270069   6.115   3.510   4.999  0.6415  0.2446  0.4092
16193TIP3    H170070   6.145   3.421   5.017  0.4152 -0.3074 -1.7689
16193TIP3    H270071   6.041   3.524   5.057  0.8531 -0.8923  0.9522
16194TIP3   OH270072   3.890   5.969   1.121 -0.4213 -0.7898 -0.0773
16194TIP3    H170073   3.804   5.934   1.101  0.2851 -2.1286 -0.8962
16194TIP3    H270074   3.915   6.018   1.042  0.3516 -2.0138 -0.6084
16195TIP3   OH270075   0.875   1.003   2.618 -0.4893 -0.3767 -0.1698
16195TIP3    H170076   0.925   1.048   2.686 -1.3281 -1.1966  1.0057
16195TIP3    H270077   0.819   1.071   2.581 -0.0614  0.0670 -0.0140
16196TIP3   OH270078   6.525   1.964  12.435 -0.5029 -0.2183 -0.5894
16196TIP3    H170079   6.446   2.003  12.474 -0.5640 -0.1055 -0.8239
16196TIP3    H270080   6.597   2.019  12.467 -0.7259  0.9146 -2.0184
16197TIP3   OH270081   3.501   1.028  14.966  0.1347 -0.5329  0.7310
16197TIP3    H170082   3.587   1.066  14.947  0.4853 -0.4813  2.3547
16197TIP3    H270083   3.456   1.097  15.016 -2.1594  0.8370 -3.0457
16198TIP3   OH270084   6.382   5.947   0.866 -0.2856 -0.0115 -0.3210
16198TIP3    H170085   6.360   5.856   0.886  0.9781 -0.5660 -1.4319
16198TIP3    H270086   6.471   5.958   0.898 -0.9339  1.2499  1.0809
16199TIP3   OH270087   5.826   2.608   1.297 -0.3258 -0.5833  0.2353
16199TIP3    H170088   5.733   2.585   1.304 -0.1221 -0.8222  2.2911
16199TIP3    H270089   5.826   2.701   1.274 -1.0798 -1.0666 -1.8265
16200TIP3   OH270090   2.299   5.662  12.276  0.1048 -0.0130  0.2961
16200TIP3    H170091   2.282   5.613  12.196 -2.7292  2.3498 -0.6217
16200TIP3    H270092   2.382   5.706  12.260  0.1978 -0.5701 -0.8142
16201TIP3   OH270093   0.902   4.877   1.171  0.0336 -0.0750 -0.1863
16201TIP3    H170094   0.844   4.909   1.102  1.1771  0.5959 -0.8629
16201TIP3    H270095   0.863   4.907   1.253 -0.5228  0.4399 -0.6411
16202TIP3   OH270096   5.670   4.193   3.379  0.0276 -0.0658  0.2663
16202TIP3    H170097   5.696   4.130   3.447 -0.6514  0.8250  1.3823
16202TIP3    H270098   5.730   4.267   3.390  0.5931 -0.3555 -0.8078
16203TIP3   OH270099   5.031   1.501   1.339  0.6345 -0.3357  0.2856
16203TIP3    H170100   5.070   1.428   1.387  3.7531  1.5744  0.8502
16203TIP3    H270101   5.056   1.579   1.389  0.8052  1.4158 -2.3866
16204TIP3   OH270102   4.005   0.711   4.522 -0.2015 -0.2370  0.3671
16204TIP3    H170103   4.059   0.787   4.539  0.6072 -0.3032 -1.7029
16204TIP3    H270104   3.915   0.743   4.529  0.1285  0.9989 -0.7452
16205TIP3   OH270105   3.661   5.756   4.735 -0.3535 -0.9240  0.3582
16205TIP3    H170106   3.678   5.746   4.829  1.3713 -0.8250  0.0755
16205TIP3    H270107   3.597   5.828   4.730  0.6328  0.0535  1.3867
16206TIP3   OH270108   4.157   1.749  14.138  0.2432 -0.3123 -0.2469
16206TIP3    H170109   4.242   1.718  14.107  0.3907  0.5144 -0.6818
16206TIP3    H270110   4.125   1.678  14.194  1.4976 -0.3631  0.4212
16207TIP3   OH270111   2.569   5.113   1.124 -0.7158  0.3652  0.1917
16207TIP3    H170112   2.641   5.103   1.186 -0.0554  0.1416 -0.6180
16207TIP3    H270113   2.530   5.198   1.146  1.2187  1.5423 -0.8848
16208TIP3   OH270114   5.913   2.406  14.169 -0.4767  0.0423  0.8867
16208TIP3    H170115   6.002   2.371  14.158 -0.7292 -0.4116  0.2031
16208TIP3    H270116   5.921   2.499  14.148 -0.5102 -0.3693 -1.0993
16209TIP3   OH270117   3.250   0.634   2.136  0.2492  0.0217  0.5979
16209TIP3    H170118   3.310   0.638   2.210  0.4446  1.0015  0.3824
16209TIP3    H270119   3.285   0.562   2.082  0.1359 -0.6590  1.4155
16210TIP3   OH270120   3.031   5.217   6.039  0.8701  0.0029 -0.2376
16210TIP3    H170121   3.109   5.181   5.996  0.1392 -1.5156 -0.3557
16210TIP3    H270122   3.053   5.219   6.132  1.7234  1.3536 -0.4705
16211TIP3   OH270123   6.514   0.925   4.037 -0.4407  0.7430  0.2631
16211TIP3    H170124   6.513   0.834   4.010 -1.3524  0.7340  0.2867
16211TIP3    H270125   6.421   0.948   4.048 -0.1849  1.3719  1.2596
16212TIP3   OH270126   1.041   1.918  16.264 -0.4617  0.1783  0.1791
16212TIP3    H170127   0.960   1.888  16.222 -0.7845  0.3362  0.6918
16212TIP3    H270128   1.049   2.010  16.237 -1.1191  0.5269  1.1512
16213TIP3   OH270129   0.018   2.407  10.598  0.0157  0.0413  0.3359
16213TIP3    H170130   0.048   2.422  10.687  0.2490 -0.6862  0.3850
16213TIP3    H270131   0.019   2.311  10.588 -1.1020  0.0656 -0.0616
16214TIP3   OH270132   3.833   6.349   3.544  0.1575  0.3257  0.1183
16214TIP3    H170133   3.875   6.265   3.525  1.3961  1.0855 -0.5891
16214TIP3    H270134   3.903   6.413   3.533 -1.4238  1.7193 -2.0312
16215TIP3   OH270135   6.814   4.539  12.141  0.4185  0.5235  0.5582
16215TIP3    H170136   6.815   4.581  12.056  1.4643  2.4310  1.4852
16215TIP3    H270137   6.903   4.550  12.175 -0.1114  0.2406  2.1182
16216TIP3   OH270138   1.644   3.187  14.159  0.2431  0.0675 -0.0521
16216TIP3    H170139   1.598   3.126  14.217  0.5588 -0.1720 -0.0467
16216TIP3    H270140   1.721   3.213  14.209  0.4674 -0.0662 -0.3248
16217TIP3   OH270141   6.115   6.802  17.080  0.0398  0.7808 -0.3945
16217TIP3    H170142   6.103   6.891  17.047  1.2347  1.0287 -0.1843
16217TIP3    H270143   6.209   6.786  17.074 -0.2397 -0.7704 -1.1828
16218TIP3   OH270144   1.643   3.384   5.404  0.2267 -0.0634 -0.6830
16218TIP3    H170145   1.615   3.293   5.415 -0.0034 -0.0619 -1.2505
16218TIP3    H270146   1.707   3.381   5.333  1.2824  0.0143  0.2461
16219TIP3   OH270147   2.492   5.648  15.027  0.3407  0.2142 -0.5890
16219TIP3    H170148   2.576   5.613  15.055 -0.4731 -1.3801 -0.0972
16219TIP3    H270149   2.443   5.571  14.997 -2.2259  0.6094  2.3880
16220TIP3   OH270150   4.327   1.751  16.406  0.4143  0.6499  0.2608
16220TIP3    H170151   4.242   1.790  16.383  0.6877  1.8665  1.2277
16220TIP3    H270152   4.305   1.679  16.466 -0.0152  0.1651 -0.4770
16221TIP3   OH270153   4.667   1.563  16.003 -0.5482  0.1450 -0.2997
16221TIP3    H170154   4.731   1.630  15.978 -0.6458  0.9272  1.4858
16221TIP3    H270155   4.623   1.600  16.080 -1.8836 -1.1837 -0.4032
16222TIP3   OH270156   2.327   3.269   2.648  0.5887 -0.0490 -0.0980
16222TIP3    H170157   2.355   3.360   2.651  2.3269 -0.5521 -0.4176
16222TIP3    H270158   2.404   3.221   2.616  0.1000 -1.7884  1.2502
16223TIP3   OH270159   3.483   2.986   1.426  0.6117 -0.4263 -0.0130
16223TIP3    H170160   3.507   2.968   1.517  1.5832 -0.1049 -0.2089
16223TIP3    H270161   3.388   2.999   1.429  0.8526  1.1659  1.2086
16224TIP3   OH270162   0.495   1.281  15.357  0.1067  0.7625 -0.4166
16224TIP3    H170163   0.510   1.364  15.310  0.0373  0.0185 -1.7842
16224TIP3    H270164   0.405   1.287  15.387 -0.4342  0.5158 -1.9279
16225TIP3   OH270165   3.039   4.052   5.380 -0.5491 -0.3334 -0.5836
16225TIP3    H170166   3.040   3.997   5.458 -0.4353  2.4700  1.4522
16225TIP3    H270167   2.946   4.060   5.357 -0.7271  0.1735  0.2801
16226TIP3   OH270168   5.606   5.989  14.589 -0.1902  0.1147 -0.4633
16226TIP3    H170169   5.635   6.044  14.661 -1.2895  0.5848 -0.3737
16226TIP3    H270170   5.562   5.915  14.630  0.6298 -0.4640 -0.6072
16227TIP3   OH270171   4.460   4.546  12.433  0.3424 -0.6052 -0.1518
16227TIP3    H170172   4.513   4.581  12.361 -0.4012  1.1941  0.1540
16227TIP3    H270173   4.516   4.555  12.510 -0.7783  2.4037  0.3785
16228TIP3   OH270174   6.059   2.034  11.174  0.0501  0.0841 -0.3121
16228TIP3    H170175   6.070   2.126  11.195  0.3920 -0.3874  1.6773
16228TIP3    H270176   6.129   2.015  11.111  0.3725  1.0368 -0.2419
16229TIP3   OH270177   6.085   5.036   1.503  0.3625 -0.2644  0.1275
16229TIP3    H170178   6.138   4.967   1.543  1.5695  0.1518 -0.7531
16229TIP3    H270179   6.136   5.116   1.515 -0.7828  0.3931  0.6578
16230TIP3   OH270180   1.576   5.020   5.060 -0.4395  0.5087 -0.3649
16230TIP3    H170181   1.482   5.022   5.080 -0.2113  1.5218  0.6629
16230TIP3    H270182   1.595   5.107   5.026 -0.0628 -0.0142 -1.4985
16231TIP3   OH270183   1.388   2.536  12.337 -0.2171  0.2510 -0.4881
16231TIP3    H170184   1.388   2.538  12.241  1.1543  0.5057 -0.4913
16231TIP3    H270185   1.305   2.493  12.360 -1.0792  1.2210 -1.7481
16232TIP3   OH270186   1.828   0.845  17.144 -0.8981  0.3703  0.2836
16232TIP3    H170187   1.772   0.823  17.218 -2.4027  2.2858 -0.2240
16232TIP3    H270188   1.815   0.775  17.081  0.3534 -1.2461  1.7775
16233TIP3   OH270189   0.215   4.908  14.034 -0.1699  0.1983 -0.3048
16233TIP3    H170190   0.310   4.903  14.046 -0.2925  0.7967  1.0904
16233TIP3    H270191   0.193   4.998  14.061 -1.3659 -0.5432  1.2418
16234TIP3   OH270192   1.907   2.017   1.637 -0.0755 -0.7763  0.1525
16234TIP3    H170193   1.902   2.049   1.727 -0.2200 -1.7328  0.4821
16234TIP3    H270194   1.832   1.959   1.627 -0.0868 -0.6407 -0.5974
16235TIP3   OH270195   3.443   2.796  11.884  0.1439 -0.7009 -0.3239
16235TIP3    H170196   3.462   2.783  11.791  1.4133  1.0016 -0.3246
16235TIP3    H270197   3.520   2.840  11.918 -0.0953 -1.7642  1.6725
16236TIP3   OH270198   0.120   0.896   1.748 -0.3840 -0.1376  0.3827
16236TIP3    H170199   0.129   0.847   1.666  2.8400  1.8975 -0.5672
16236TIP3    H270200   0.127   0.829   1.816 -0.5401 -1.5542 -0.9556
16237TIP3   OH270201   3.866   1.400  11.133 -0.8940 -0.5682 -0.1527
16237TIP3    H170202   3.784   1.425  11.090  0.0337  0.3071 -1.4565
16237TIP3    H270203   3.861   1.443  11.219 -2.2756 -1.4259  0.2153
16238TIP3   OH270204   3.987   1.322  15.845  0.4089  0.0417  0.0876
16238TIP3    H170205   4.044   1.309  15.921 -0.0018  1.2198  0.6049
16238TIP3    H270206   3.916   1.377  15.877 -0.8281 -1.1205 -0.6574
16239TIP3   OH270207   2.701   1.306   4.912 -0.0893 -0.0456  0.0640
16239TIP3    H170208   2.654   1.388   4.899  0.0688  0.0311 -0.0161
16239TIP3    H270209   2.681   1.253   4.834 -0.3950 -0.1810  0.2329
16240TIP3   OH270210   0.350   2.053  16.840  0.4752 -0.1233 -0.0635
16240TIP3    H170211   0.305   2.055  16.756  0.0182 -0.2229  0.1788
16240TIP3    H270212   0.280   2.041  16.905  0.8392 -0.2179  0.3173
16241TIP3   OH270213   4.714   4.995   3.480  0.3538  0.1576 -0.2102
16241TIP3    H170214   4.634   5.048   3.485  0.7221  0.6693  0.3601
16241TIP3    H270215   4.773   5.037   3.543  1.0618 -0.2277 -0.6288
16242TIP3   OH270216   5.006   0.850  12.533  0.4651  0.3585 -0.1204
16242TIP3    H170217   4.975   0.817  12.449  0.7470  1.2917 -0.5976
16242TIP3    H270218   4.925   0.870  12.582  0.2513 -2.8115  0.9319
16243TIP3   OH270219   5.990   3.490   4.409 -0.1081  0.2625  0.1283
16243TIP3    H170220   5.910   3.451   4.443 -0.3978  1.2530  0.5941
16243TIP3    H270221   6.041   3.513   4.487  0.7438 -0.5883 -0.1670
16244TIP3   OH270222   5.846   1.387   0.018  0.7201 -0.3044 -0.0573
16244TIP3    H170223   5.835   1.324  -0.054  2.0052 -2.4215  1.5374
16244TIP3    H270224   5.848   1.333   0.096 -0.0888  1.9319  1.5498
16245TIP3   OH270225   3.571   2.142  12.132 -0.5847  0.0241  0.1523
16245TIP3    H170226   3.649   2.122  12.080 -2.0259  0.0249 -2.0795
16245TIP3    H270227   3.591   2.226  12.174  1.4750 -1.0552  1.4091
16246TIP3   OH270228   6.809   2.559  15.347 -0.3527 -0.2116  0.3128
16246TIP3    H170229   6.799   2.489  15.282 -0.9057 -1.2365  1.4907
16246TIP3    H270230   6.725   2.605  15.346 -0.4312 -0.3517  0.4416
16247TIP3   OH270231   4.595   4.673  16.729  0.4476 -0.5341  1.0103
16247TIP3    H170232   4.599   4.763  16.761  0.2911  0.2302 -1.0097
16247TIP3    H270233   4.505   4.646  16.743  0.8446 -0.8901  2.9359
16248TIP3   OH270234   2.260   4.320  16.178 -0.6913  0.6972  0.4900
16248TIP3    H170235   2.352   4.296  16.167 -0.7020  0.6022  0.5970
16248TIP3    H270236   2.247   4.321  16.273 -1.3264 -1.3492  0.4560
16249TIP3   OH270237   1.746   3.888   1.155  0.5193  0.1857  0.1389
16249TIP3    H170238   1.728   3.864   1.246 -0.8701 -0.2008 -0.2173
16249TIP3    H270239   1.720   3.811   1.105  0.8975  0.5450 -0.6144
16250TIP3   OH270240   3.030   1.898  14.569 -0.1704 -0.0495  0.3434
16250TIP3    H170241   3.070   1.937  14.647 -3.5033 -0.1450  2.1886
16250TIP3    H270242   3.062   1.951  14.496  2.8077  0.1948  1.7500
16251TIP3   OH270243   6.640   6.699   1.699  0.1088 -0.1668 -0.3678
16251TIP3    H170244   6.648   6.685   1.605  0.2992  0.7257 -0.4894
16251TIP3    H270245   6.680   6.784   1.714 -2.6232  1.0946  0.0917
16252TIP3   OH270246   5.470   0.711   1.294  0.3617 -0.0570  0.3330
16252TIP3    H170247   5.515   0.796   1.295 -0.4339  0.3857 -1.0969
16252TIP3    H270248   5.379   0.732   1.274  0.0893 -1.2207  0.3072
16253TIP3   OH270249   1.338   3.062   2.493  0.1983 -0.0213  0.5251
16253TIP3    H170250   1.354   2.973   2.460 -2.2125 -0.6073  0.8455
16253TIP3    H270251   1.313   3.112   2.415 -1.8447 -0.5046  0.8299
16254TIP3   OH270252   3.704   3.241   0.006  0.4135  0.0702  0.2061
16254TIP3    H170253   3.795   3.245  -0.023  0.1277  1.4434 -0.5430
16254TIP3    H270254   3.706   3.274   0.096  0.3231  2.7158 -0.6940
16255TIP3   OH270255   1.502   3.110  13.073  0.1850  0.3047 -0.4589
16255TIP3    H170256   1.474   3.154  12.993  0.1267  0.5574 -0.2985
16255TIP3    H270257   1.481   3.171  13.143  2.1206  0.9518 -0.4161
16256TIP3   OH270258   2.025   3.471  15.504 -0.0276 -0.8421  0.7696
16256TIP3    H170259   2.040   3.479  15.598 -0.2854  0.9281  0.6625
16256TIP3    H270260   2.092   3.526  15.464 -0.8464 -0.4210 -0.0319
16257TIP3   OH270261   3.599   5.012  13.826 -0.0960  0.6990 -0.0349
16257TIP3    H170262   3.641   4.964  13.897 -1.0648 -0.9770 -0.5712
16257TIP3    H270263   3.512   5.032  13.859 -1.0835 -1.3797 -1.2472
16258TIP3   OH270264   1.865   2.822   0.845 -0.8351  0.1927 -0.3560
16258TIP3    H170265   1.894   2.912   0.832 -1.5572  0.2142 -1.9507
16258TIP3    H270266   1.834   2.820   0.935  1.6879  0.8232  0.5540
16259TIP3   OH270267   5.899   6.766   1.019  0.1420  0.4695 -0.0302
16259TIP3    H170268   5.967   6.767   0.952 -1.4145 -0.2966 -1.6752
16259TIP3    H270269   5.922   6.692   1.076  0.2501 -0.3040 -1.0588
16260TIP3   OH270270   5.051   3.367   1.563 -0.4981  0.5817  0.8935
16260TIP3    H170271   5.078   3.459   1.563  2.2111 -0.1636 -0.5391
16260TIP3    H270272   5.096   3.328   1.489 -0.3748 -2.2828  2.3736
16261TIP3   OH270273   2.684   1.846   0.087  0.3840 -0.0124  0.4780
16261TIP3    H170274   2.674   1.934   0.051 -1.2058  0.2002  1.3796
16261TIP3    H270275   2.726   1.859   0.172  1.3680 -0.2503  0.0345
16262TIP3   OH270276   1.962   3.599  13.491 -0.3660  0.1262  0.2246
16262TIP3    H170277   1.972   3.634  13.402  0.4934  0.7930  0.5804
16262TIP3    H270278   2.010   3.660  13.547  2.4348 -2.3234  0.6857
16263TIP3   OH270279   0.839   0.333  12.986 -0.1388 -0.4291  0.0718
16263TIP3    H170280   0.809   0.319  13.076 -1.2206  0.6346 -0.1102
16263TIP3    H270281   0.900   0.407  12.993  0.3382 -0.8172  0.0330
16264TIP3   OH270282   3.167   3.021  14.590  0.1659 -0.1113 -0.3037
16264TIP3    H170283   3.231   3.017  14.519 -1.3023 -0.3307 -1.6416
16264TIP3    H270284   3.193   3.098  14.641  2.0968 -0.8043 -0.2258
16265TIP3   OH270285   5.567   6.785   4.359 -0.0727 -0.0628  0.2688
16265TIP3    H170286   5.615   6.852   4.408 -1.4269 -0.6040  2.3623
16265TIP3    H270287   5.634   6.722   4.332  1.2127  2.0144 -1.6308
16266TIP3   OH270288   1.398   6.575   0.983 -0.1885 -0.0490 -0.0054
16266TIP3    H170289   1.337   6.509   1.013 -3.0555  2.7368  0.5475
16266TIP3    H270290   1.408   6.635   1.057  0.9732  1.1069 -1.0510
16267TIP3   OH270291   2.543   1.499  12.454  0.1121  0.0453 -0.2938
16267TIP3    H170292   2.575   1.428  12.511  0.2732  0.9877  0.8019
16267TIP3    H270293   2.448   1.497  12.466  0.1982  0.6923  0.5619
16268TIP3   OH270294   6.575   5.583   5.397  0.4992  0.0552 -0.4372
16268TIP3    H170295   6.653   5.638   5.383  0.5882  0.1792  0.5410
16268TIP3    H270296   6.502   5.640   5.374  0.6457  0.2467 -0.4337
16269TIP3   OH270297   3.019   2.208   4.583 -0.1064  0.0600 -0.0585
16269TIP3    H170298   3.016   2.252   4.498 -0.2257 -2.2020 -1.2881
16269TIP3    H270299   3.107   2.170   4.586  0.2818  1.0357  1.3377
16270TIP3   OH270300   1.211   3.224   1.848 -0.0149 -0.5233 -0.2843
16270TIP3    H170301   1.207   3.136   1.886 -0.1243 -1.6815 -2.8382
16270TIP3    H270302   1.249   3.278   1.917 -0.8879 -2.3581  1.6981
16271TIP3   OH270303   3.153   3.053   2.536  0.5748  0.3813  0.3447
16271TIP3    H170304   3.074   3.079   2.584  0.0950 -0.6352  0.1328
16271TIP3    H270305   3.223   3.056   2.601  0.1672  0.3024  0.7879
16272TIP3   OH270306   1.078   5.326  15.015 -0.1567 -0.0234 -0.1601
16272TIP3    H170307   1.060   5.323  14.920  0.6388 -2.4362 -0.2678
16272TIP3    H270308   1.025   5.254  15.051  2.2769 -1.4072  0.7333
16273TIP3   OH270309   4.673   4.976   4.481 -0.1857  0.2386  0.6085
16273TIP3    H170310   4.722   5.052   4.511 -0.4106  0.3988  0.5681
16273TIP3    H270311   4.583   4.992   4.510 -0.3657  0.2988  0.0285
16274TIP3   OH270312   6.259   1.693   2.695  0.0356 -0.1589 -0.2161
16274TIP3    H170313   6.267   1.675   2.788  0.5078  1.0901 -0.0074
16274TIP3    H270314   6.327   1.759   2.677 -1.2095  0.9258 -1.0638
16275TIP3   OH270315   5.166   5.693  15.268  0.1674  0.2346  0.4332
16275TIP3    H170316   5.080   5.650  15.271 -1.1688  2.8519  2.8011
16275TIP3    H270317   5.211   5.662  15.347  1.8147 -1.8324 -1.2732
16276TIP3   OH270318   4.754   0.590   1.081  0.1784 -0.3647 -0.3742
16276TIP3    H170319   4.697   0.640   1.024  0.7112 -0.3605 -0.9059
16276TIP3    H270320   4.785   0.517   1.027  1.6187  0.2918 -0.4742
16277TIP3   OH270321   2.036   5.098  11.303  0.2410 -0.3713 -0.4797
16277TIP3    H170322   2.120   5.053  11.307 -0.2630 -1.3825 -0.9124
16277TIP3    H270323   2.042   5.153  11.225  0.5370 -0.3841 -0.4654
16278TIP3   OH270324   3.136   2.860  13.979  0.0852 -0.0516  0.0846
16278TIP3    H170325   3.070   2.798  13.951  0.2353 -0.2628  0.1914
16278TIP3    H270326   3.158   2.910  13.901 -0.2272  0.0441  0.0596
16279TIP3   OH270327   2.101   0.764  13.682  0.2550 -1.0481  0.5537
16279TIP3    H170328   2.173   0.701  13.692  0.0603 -1.0374  2.1927
16279TIP3    H270329   2.032   0.730  13.739 -0.6449 -0.4745 -0.1792
16280TIP3   OH270330   0.253   4.250   0.301  0.0714 -0.1436  0.4431
16280TIP3    H170331   0.244   4.172   0.356 -0.3354 -0.8999 -0.6913
16280TIP3    H270332   0.347   4.262   0.292  0.1396 -0.2433  0.9700
16281TIP3   OH270333   6.752   4.156  11.491  0.3409  0.3956  0.2794
16281TIP3    H170334   6.660   4.137  11.473  0.6316 -2.3313  1.3994
16281TIP3    H270335   6.755   4.170  11.586  0.9202  1.6801  0.0874
16282TIP3   OH270336   4.045   3.347  14.066  0.2317 -0.5597 -0.3716
16282TIP3    H170337   4.127   3.334  14.115  0.0012  0.2558  0.2407
16282TIP3    H270338   4.072   3.342  13.974  0.5333 -2.8960 -0.1887
16283TIP3   OH270339   6.742   1.843  17.062 -0.0691 -0.4454  0.1926
16283TIP3    H170340   6.674   1.816  17.124  1.6710  0.2307  2.4989
16283TIP3    H270341   6.768   1.763  17.018  1.3835 -1.7483  3.2139
16284TIP3   OH270342   1.253   0.498  12.257  0.4253  0.7307 -0.1422
16284TIP3    H170343   1.301   0.416  12.257  0.3840  0.6905  1.5877
16284TIP3    H270344   1.313   0.560  12.299 -0.3042  1.1299  0.2982
16285TIP3   OH270345   0.193   1.746   5.076 -0.2418 -0.0267 -0.2594
16285TIP3    H170346   0.195   1.746   5.172  1.3542 -3.1226 -0.2298
16285TIP3    H270347   0.284   1.764   5.051 -1.1830  3.7396 -1.3037
16286TIP3   OH270348   4.321   5.271   1.340  0.0437  0.1051 -0.3904
16286TIP3    H170349   4.343   5.306   1.427 -0.9403  1.8746 -0.8279
16286TIP3    H270350   4.406   5.254   1.299  0.5471  1.2132  0.1583
16287TIP3   OH270351   4.442   2.145   1.611  0.2328 -0.3913  0.0746
16287TIP3    H170352   4.390   2.199   1.551  0.8271 -0.5629 -0.5983
16287TIP3    H270353   4.393   2.064   1.619  0.2400 -0.4353 -0.3193
16288TIP3   OH270354   6.644   3.435  12.632  0.3796 -0.5162 -0.3626
16288TIP3    H170355   6.664   3.513  12.684  0.5191  0.2365 -1.5212
16288TIP3    H270356   6.657   3.362  12.692 -0.1346  0.3777  0.8470
16289TIP3   OH270357   5.255   3.109  13.580  0.0918 -0.5067  0.5869
16289TIP3    H170358   5.161   3.125  13.566  0.0529  0.2741  1.6681
16289TIP3    H270359   5.293   3.112  13.493 -1.0027 -1.5424  0.0570
16290TIP3   OH270360   3.722   3.818   3.963  0.9386 -0.1344 -0.0605
16290TIP3    H170361   3.717   3.787   3.873  1.7864 -0.4578  0.0050
16290TIP3    H270362   3.656   3.888   3.968  0.1617 -0.8178 -0.6384
16291TIP3   OH270363   3.706   4.920  15.422  0.9299 -0.3116 -0.1328
16291TIP3    H170364   3.661   4.851  15.375 -2.7030  2.3728 -0.7692
16291TIP3    H270365   3.682   4.907  15.514 -0.2545  0.4429 -0.3297
16292TIP3   OH270366   5.807   3.246   4.543 -0.1449 -0.2954  0.0180
16292TIP3    H170367   5.754   3.167   4.556  0.3383 -0.4669  0.9547
16292TIP3    H270368   5.897   3.216   4.556  0.0321  0.4319  0.4266
16293TIP3   OH270369   3.150   2.281   6.376 -0.1614 -0.2886  0.6904
16293TIP3    H170370   3.242   2.283   6.403 -0.3917  0.7328  1.4453
16293TIP3    H270371   3.102   2.270   6.458 -0.7119 -0.8774  0.2918
16294TIP3   OH270372   0.787   3.184   4.006 -0.0909 -0.3454  0.3411
16294TIP3    H170373   0.845   3.109   3.991  0.5028  0.1628  0.0580
16294TIP3    H270374   0.763   3.179   4.098  0.2902 -0.6438  0.4240
16295TIP3   OH270375   1.657   3.793   2.973  0.2549  0.2185 -0.3287
16295TIP3    H170376   1.721   3.735   3.013  0.8920  1.8232  1.0616
16295TIP3    H270377   1.710   3.859   2.927 -0.4210  0.7693 -0.3347
16296TIP3   OH270378   3.598   4.697  15.345 -0.3909  0.4073 -0.4839
16296TIP3    H170379   3.587   4.627  15.281 -0.0129 -0.3250  0.2557
16296TIP3    H270380   3.509   4.727  15.364 -0.5315  0.3040 -0.9926
16297TIP3   OH270381   3.896   4.017   1.515 -0.1295  0.4614  0.0892
16297TIP3    H170382   3.940   3.984   1.437  1.7443  2.1693  0.3710
16297TIP3    H270383   3.809   4.044   1.485  0.4982  0.8896 -1.3343
16298TIP3   OH270384   3.207   5.736   1.959 -0.2798 -0.3351  0.4517
16298TIP3    H170385   3.192   5.778   2.044 -1.0187  1.0602 -0.3498
16298TIP3    H270386   3.291   5.690   1.969  1.0342  2.1301  1.0632
16299TIP3   OH270387   0.549   0.102  11.894 -0.0957 -0.4050 -0.2107
16299TIP3    H170388   0.495   0.052  11.956  1.2401 -0.7375  0.6924
16299TIP3    H270389   0.485   0.153  11.845 -1.2842 -1.0361  0.6194
16300TIP3   OH270390   0.864   4.297  15.558 -0.0420 -0.1921 -0.0769
16300TIP3    H170391   0.893   4.289  15.467  0.3402  1.0089 -0.0661
16300TIP3    H270392   0.936   4.260  15.609  0.5970  0.9291 -0.1581
16301TIP3   OH270393   6.732   4.594  13.769 -0.1828  0.0400 -0.7196
16301TIP3    H170394   6.677   4.536  13.822  0.6523 -2.2486 -2.2673
16301TIP3    H270395   6.807   4.615  13.826 -0.9791  0.4320  0.2001
16302TIP3   OH270396   5.838   0.204  11.531 -0.1131  0.4436  0.2308
16302TIP3    H170397   5.797   0.277  11.578  0.2151  0.0384  1.1565
16302TIP3    H270398   5.784   0.128  11.552 -2.7789  1.0665 -3.8506
16303TIP3   OH270399   3.464   3.752  15.838 -0.2438 -0.2216  0.1197
16303TIP3    H170400   3.528   3.685  15.861 -0.1046 -0.1219  0.0245
16303TIP3    H270401   3.393   3.704  15.794 -0.0655 -0.2821 -0.0989
16304TIP3   OH270402   6.130   4.823  12.699  0.3502  0.4402  0.8043
16304TIP3    H170403   6.061   4.847  12.637  2.4156  1.2509 -1.2824
16304TIP3    H270404   6.121   4.729  12.710 -0.6946  0.4390  0.0313
16305TIP3   OH270405   6.203   6.270   6.668  0.1102  0.2162 -0.1461
16305TIP3    H170406   6.236   6.202   6.609  1.6545  0.7381  0.0881
16305TIP3    H270407   6.165   6.336   6.610  0.2284 -0.0067 -0.4774
16306TIP3   OH270408   5.509   2.250   4.323  0.1022  0.0001 -0.3683
16306TIP3    H170409   5.504   2.163   4.283 -1.2071  0.0988 -0.4431
16306TIP3    H270410   5.585   2.246   4.380 -0.8686 -1.7142  0.8426
16307TIP3   OH270411   6.658   5.317   1.517  0.3839 -0.0983 -0.2788
16307TIP3    H170412   6.743   5.299   1.477  0.3166 -0.7961 -0.1100
16307TIP3    H270413   6.598   5.256   1.474 -0.0156  0.3082 -0.3143
16308TIP3   OH270414   5.878   0.159  15.321 -0.5875  0.4783  0.3540
16308TIP3    H170415   5.887   0.199  15.407 -0.2914  1.1048  0.0303
16308TIP3    H270416   5.951   0.194  15.270 -0.7339  0.0731 -0.1400
16309TIP3   OH270417   1.171   3.451  15.113 -0.0178  0.6048  0.5134
16309TIP3    H170418   1.080   3.443  15.141  0.2892  0.0464  1.3787
16309TIP3    H270419   1.208   3.518  15.172  0.5714 -0.4145  1.3214
16310TIP3   OH270420   6.712   0.666  15.450 -0.1646 -0.0213 -0.4233
16310TIP3    H170421   6.696   0.605  15.379 -0.0070  1.0295 -1.3781
16310TIP3    H270422   6.634   0.721  15.453 -0.5416 -0.6030  0.7856
16311TIP3   OH270423   0.050   3.437   4.713  0.4278 -0.4596 -0.4756
16311TIP3    H170424  -0.028   3.480   4.750  1.3258  1.1123 -0.3515
16311TIP3    H270425   0.015   3.365   4.662 -1.1306  0.2125 -0.4008
16312TIP3   OH270426   1.204   5.393   3.507  0.0269 -0.5443  0.0898
16312TIP3    H170427   1.233   5.322   3.451  0.8678 -1.2991  1.4448
16312TIP3    H270428   1.140   5.353   3.566 -0.4080  0.0999  0.0601
16313TIP3   OH270429   4.603   0.413  15.005  0.2959 -0.0322 -0.4097
16313TIP3    H170430   4.688   0.434  14.968 -0.5198  2.5427 -0.9460
16313TIP3    H270431   4.541   0.422  14.932 -0.8686  1.6157  0.7382
16314TIP3   OH270432   1.045   4.953   2.012 -0.0913  0.7143  0.3139
16314TIP3    H170433   1.027   5.020   1.946 -1.0516  2.4391  2.2646
16314TIP3    H270434   1.086   5.000   2.084  0.7199 -1.0951  1.0786
16315TIP3   OH270435   3.610   4.401   4.836 -0.2039 -0.0306  0.1307
16315TIP3    H170436   3.677   4.452   4.881 -1.8924  0.9884  1.5599
16315TIP3    H270437   3.616   4.314   4.875 -1.7616  0.8802  2.5403
16316TIP3   OH270438   6.499   6.714  13.028  0.1105 -0.3504 -0.3884
16316TIP3    H170439   6.464   6.763  13.102  0.5886 -1.7192  0.7698
16316TIP3    H270440   6.594   6.724  13.036  0.2048 -1.4306 -0.1660
16317TIP3   OH270441   1.320   3.200   3.167  0.3023  0.2726 -0.4755
16317TIP3    H170442   1.294   3.159   3.249  1.2657 -1.3656 -0.9724
16317TIP3    H270443   1.281   3.145   3.099 -0.7787  1.8077 -1.1373
16318TIP3   OH270444   0.174   5.041   4.459 -0.0667  0.0447  0.2525
16318TIP3    H170445   0.157   5.128   4.494 -0.0386 -0.7567  2.3450
16318TIP3    H270446   0.123   4.982   4.515  0.7564 -1.3786 -0.4592
16319TIP3   OH270447   0.886   5.107  12.344  0.0209 -0.0762 -0.5361
16319TIP3    H170448   0.954   5.044  12.322 -1.2076 -1.4902 -0.3096
16319TIP3    H270449   0.882   5.105  12.440 -1.2702 -1.0050 -0.6011
16320TIP3   OH270450   0.610   1.679   1.021 -0.5557  0.2313 -0.3952
16320TIP3    H170451   0.600   1.758   1.075 -0.5554 -0.4264  0.5704
16320TIP3    H270452   0.696   1.645   1.044 -0.7353 -0.2923 -0.4902
16321TIP3   OH270453   4.546   2.422   0.556  0.1393 -0.5064 -0.2371
16321TIP3    H170454   4.620   2.437   0.497  0.2614 -3.0905 -0.7760
16321TIP3    H270455   4.560   2.333   0.590 -1.3885 -0.0825  1.5824
16322TIP3   OH270456   2.452   2.040  15.336 -0.2757 -0.2608 -0.6084
16322TIP3    H170457   2.544   2.057  15.352 -0.5628 -0.4447  1.3753
16322TIP3    H270458   2.451   1.968  15.273  0.9253 -1.3519  0.6033
16323TIP3   OH270459   2.958   0.211  15.223 -0.3895 -0.2413 -0.5538
16323TIP3    H170460   2.935   0.133  15.171  0.4278 -0.0519 -1.2213
16323TIP3    H270461   2.976   0.278  15.157 -2.0119  0.7876  0.0427
16324TIP3   OH270462   3.006   0.139  14.884 -0.3027 -0.9768 -0.3519
16324TIP3    H170463   3.059   0.218  14.875 -0.1307 -0.7649  2.1577
16324TIP3    H270464   2.918   0.166  14.857 -0.1433 -0.0298  0.0563
16325TIP3   OH270465   5.198   3.063  16.126 -0.4854 -0.1130 -0.4768
16325TIP3    H170466   5.191   3.101  16.038 -0.3879  2.4628  0.5826
16325TIP3    H270467   5.112   3.077  16.165 -0.1425 -0.1056  0.2737
16326TIP3   OH270468   4.872   2.876   4.472 -0.2214 -0.0988 -0.0260
16326TIP3    H170469   4.909   2.795   4.437  0.3552  0.2734 -0.2983
16326TIP3    H270470   4.778   2.863   4.467 -0.1308 -1.2521  1.1347
16327TIP3   OH270471   4.752   1.741  16.404 -0.3491  0.1019  0.1729
16327TIP3    H170472   4.676   1.797  16.389 -0.1160  0.3141 -0.2083
16327TIP3    H270473   4.817   1.770  16.340  1.0690  1.7958  2.3317
16328TIP3   OH270474   2.840   4.277   2.522  0.3137 -0.2983 -0.0831
16328TIP3    H170475   2.790   4.232   2.453 -0.4091 -0.0479  0.2713
16328TIP3    H270476   2.782   4.276   2.598  1.9859 -2.5570  1.2114
16329TIP3   OH270477   5.598   6.738   2.122 -0.6745  0.1639  0.0050
16329TIP3    H170478   5.546   6.665   2.088 -1.4364  0.4799  0.4688
16329TIP3    H270479   5.683   6.700   2.142 -0.8498 -0.4481 -0.3920
16330TIP3   OH270480   5.461   4.841  13.370  0.2405  0.9076 -0.2932
16330TIP3    H170481   5.484   4.791  13.448  2.5433  2.3140 -0.0100
16330TIP3    H270482   5.370   4.864  13.382 -0.2756 -1.4183  0.5487
16331TIP3   OH270483   6.576   4.529   0.498 -0.0432  0.6168  0.5641
16331TIP3    H170484   6.653   4.490   0.456  0.8250  1.9080  0.9494
16331TIP3    H270485   6.503   4.505   0.440  0.7752  0.1508 -0.2879
16332TIP3   OH270486   2.264   3.215  12.151 -0.0166  0.2368  0.8066
16332TIP3    H170487   2.183   3.164  12.147 -0.2048  0.6756 -1.5971
16332TIP3    H270488   2.235   3.305  12.162  0.2279  0.1561  2.1638
16333TIP3   OH270489   1.735   3.920   3.558  0.0217  0.3568 -0.3768
16333TIP3    H170490   1.682   3.886   3.485  0.6404  0.0415 -0.6810
16333TIP3    H270491   1.806   3.968   3.515  0.6626 -0.2365  0.0028
16334TIP3   OH270492   1.200   4.802   0.081 -0.1528 -0.5160  0.7991
16334TIP3    H170493   1.209   4.870   0.014  0.4638 -1.3221  0.0553
16334TIP3    H270494   1.109   4.809   0.109 -0.3384  0.0402  0.0997
16335TIP3   OH270495   3.689   1.066   0.412 -0.0905  0.4826 -0.2949
16335TIP3    H170496   3.692   0.977   0.448 -3.0255 -0.6513 -2.7197
16335TIP3    H270497   3.752   1.064   0.339 -0.1523  0.4081 -0.3460
16336TIP3   OH270498   6.373   3.944   0.094  0.2472 -0.2733 -0.3545
16336TIP3    H170499   6.375   3.848   0.091 -1.8998 -0.5523  3.4382
16336TIP3    H270500   6.463   3.970   0.113  0.2987 -1.7890  1.7108
16337TIP3   OH270501   6.163   6.507  12.428  0.2638 -0.3310  0.1434
16337TIP3    H170502   6.105   6.478  12.499  0.4452  0.0185  0.4351
16337TIP3    H270503   6.218   6.575  12.468  0.1991  0.0415 -0.3948
16338TIP3   OH270504   0.001   1.718  14.127  0.1953  0.1531  0.0699
16338TIP3    H170505   0.059   1.651  14.092  0.7111  1.7060 -2.1219
16338TIP3    H270506   0.057   1.769  14.186  0.3553 -0.0390  0.0828
16339TIP3   OH270507   4.934   0.818   4.069  0.2868  0.6246  0.0269
16339TIP3    H170508   4.840   0.806   4.064  0.4970 -1.1443  0.2222
16339TIP3    H270509   4.948   0.868   4.149 -0.4525  0.7839  0.0600
16340TIP3   OH270510   2.007   1.117  15.600 -0.6659  0.2075 -0.5563
16340TIP3    H170511   1.926   1.087  15.559 -0.7622  1.1458 -1.0758
16340TIP3    H270512   2.077   1.075  15.551 -0.8432 -1.0231  0.2293
16341TIP3   OH270513   6.363   5.023  12.143 -0.4202  0.0517 -0.9502
16341TIP3    H170514   6.391   5.102  12.189 -0.4057 -0.1401 -0.6246
16341TIP3    H270515   6.313   5.055  12.068  2.3850  0.4797 -2.7365
16342TIP3   OH270516   6.745   2.278  16.792 -0.1601  0.7064  0.0794
16342TIP3    H170517   6.718   2.364  16.758  0.7688  1.1751  0.5075
16342TIP3    H270518   6.829   2.295  16.835  0.4350 -0.5706 -0.5516
16343TIP3   OH270519   6.005   5.117   4.744  0.5395 -0.5608  0.3168
16343TIP3    H170520   6.002   5.034   4.696  0.2197 -0.9391  0.9905
16343TIP3    H270521   6.097   5.129   4.765  0.6046 -0.6774  0.1003
16344TIP3   OH270522   5.222   0.545  13.388 -0.3201 -0.5684  0.4988
16344TIP3    H170523   5.308   0.559  13.429 -0.5666  0.1363  0.7728
16344TIP3    H270524   5.240   0.482  13.318  0.2052 -1.3568  1.3244
16345TIP3   OH270525   6.043   3.063  10.845  0.1510  0.0939  0.1998
16345TIP3    H170526   6.127   3.100  10.874 -0.6805  1.4266  0.9541
16345TIP3    H270527   6.041   2.975  10.884  0.7250  0.4618  1.0863
16346TIP3   OH270528   2.828   5.304  10.896 -0.5014 -0.1734 -0.4233
16346TIP3    H170529   2.880   5.364  10.842 -0.5514  0.5140  0.2833
16346TIP3    H270530   2.738   5.318  10.867 -0.8097  1.9336  1.4579
16347TIP3   OH270531   5.531   5.061   3.639 -0.1590  0.3179 -0.1066
16347TIP3    H170532   5.577   5.123   3.695 -0.4267  0.3746  0.0494
16347TIP3    H270533   5.580   5.064   3.556  0.5389 -0.1457  0.2807
16348TIP3   OH270534   5.453   6.322  13.185  0.7807 -0.0674  0.2698
16348TIP3    H170535   5.409   6.300  13.267 -0.8362  1.2071 -0.2298
16348TIP3    H270536   5.417   6.407  13.161  0.6719 -0.7529 -2.1390
16349TIP3   OH270537   1.301   4.539  13.955  0.4921 -0.1856 -0.2437
16349TIP3    H170538   1.266   4.451  13.966  1.1708 -0.3541  0.6296
16349TIP3    H270539   1.300   4.577  14.044  1.1291  0.3285 -0.4532
16350TIP3   OH270540   3.926   3.753   0.092  0.3613 -0.4580 -0.6730
16350TIP3    H170541   4.006   3.773   0.140  0.1474 -0.4070 -0.3387
16350TIP3    H270542   3.863   3.727   0.159  0.1862 -0.7915 -0.9651
16351TIP3   OH270543   2.836   5.596   3.184  0.3397 -0.4045 -0.4119
16351TIP3    H170544   2.802   5.515   3.223  0.3672 -0.5069 -0.5992
16351TIP3    H270545   2.851   5.654   3.258 -2.6583  0.5556 -0.4832
16352TIP3   OH270546   6.723   5.259  12.292 -0.0436  0.3277  0.1675
16352TIP3    H170547   6.770   5.267  12.376  0.3573 -1.0694  0.0902
16352TIP3    H270548   6.789   5.226  12.231 -0.3551  1.2712 -0.7045
16353TIP3   OH270549   4.193   0.737   0.343 -0.2029 -0.4297  0.2074
16353TIP3    H170550   4.181   0.815   0.396 -0.0527  0.3433 -0.8713
16353TIP3    H270551   4.288   0.730   0.332 -0.1397 -1.4740  1.3302
16354TIP3   OH270552   4.249   6.327  10.351 -0.2660  0.0030  0.5096
16354TIP3    H170553   4.284   6.270  10.283 -1.4789 -1.5364  1.1251
16354TIP3    H270554   4.207   6.398  10.304  0.3608 -0.1558 -0.3007
16355TIP3   OH270555   4.352   2.696  15.630  0.1464  0.1629  0.0435
16355TIP3    H170556   4.371   2.604  15.650 -0.5635 -0.4263 -1.9357
16355TIP3    H270557   4.432   2.743  15.655  1.2725 -1.2546 -0.8079
16356TIP3   OH270558   1.947   5.630  14.758  0.6918  0.9046  0.1830
16356TIP3    H170559   1.995   5.707  14.730  0.1132  1.8666  1.7677
16356TIP3    H270560   1.999   5.595  14.831 -1.5552  2.6208  2.6896
16357TIP3   OH270561   4.411   3.779   5.233  0.3889  0.7327  0.0028
16357TIP3    H170562   4.432   3.791   5.325 -1.6231  0.1747  0.5571
16357TIP3    H270563   4.491   3.744   5.194  1.4072  1.4275  1.4154
16358TIP3   OH270564   5.269   1.052   6.511 -0.3210 -0.1291  0.4283
16358TIP3    H170565   5.218   1.121   6.553 -1.4430 -0.5545 -0.1928
16358TIP3    H270566   5.243   0.972   6.557  1.3104 -0.0811  1.4459
16359TIP3   OH270567   4.173   3.057   4.792  0.4864 -0.0828 -0.1861
16359TIP3    H170568   4.122   3.015   4.723  1.2450 -0.9635 -0.2246
16359TIP3    H270569   4.175   2.993   4.863 -1.1706  1.2281  1.0839
16360TIP3   OH270570   2.351   4.864   2.740  0.0756  0.1597  0.1759
16360TIP3    H170571   2.366   4.905   2.655 -2.3832 -2.0464 -1.3683
16360TIP3    H270572   2.407   4.787   2.741  0.6689  0.5883  0.8874
16361TIP3   OH270573   5.113   3.918   3.073 -0.0659 -0.7061 -0.4401
16361TIP3    H170574   5.138   3.940   3.163  0.1469 -1.1172 -0.3969
16361TIP3    H270575   5.196   3.914   3.026 -0.1799 -0.4424 -0.6711
16362TIP3   OH270576   3.161   4.496   4.551 -0.7522  0.1086  0.5653
16362TIP3    H170577   3.115   4.577   4.531  1.6812  1.0708 -1.3723
16362TIP3    H270578   3.232   4.523   4.610  0.0351 -0.6242 -0.0374
16363TIP3   OH270579   4.381   2.991   3.264  0.3915 -0.5065 -0.1547
16363TIP3    H170580   4.406   2.966   3.353  1.4284  0.2544 -0.2224
16363TIP3    H270581   4.363   3.085   3.270  0.8836 -0.3629 -0.8240
16364TIP3   OH270582   2.943   2.446   1.766  0.6982 -0.3246  0.1473
16364TIP3    H170583   3.027   2.423   1.804  2.3033  0.8751 -2.5255
16364TIP3    H270584   2.937   2.541   1.777  1.4267  0.1451 -2.8354
16365TIP3   OH270585   5.981   5.792   5.044 -1.0891 -0.1149  0.1001
16365TIP3    H170586   6.009   5.705   5.019  0.5227 -0.2110  2.1055
16365TIP3    H270587   5.942   5.829   4.965 -2.0392 -2.7215 -0.6985
16366TIP3   OH270588   2.631   4.196   4.514  0.1380 -0.0894  0.4359
16366TIP3    H170589   2.709   4.247   4.537  0.8351 -0.5891 -0.7542
16366TIP3    H270590   2.666   4.112   4.483 -0.8779 -0.3127 -0.1229
16367TIP3   OH270591   1.897   0.063   2.011  0.2281  0.2852 -0.5013
16367TIP3    H170592   1.819   0.114   2.031  0.3998 -0.0987  1.2314
16367TIP3    H270593   1.863  -0.015   1.967 -0.5622 -0.7033  1.7849
16368TIP3   OH270594   6.238   0.161   5.460  0.7466  0.0413 -0.7299
16368TIP3    H170595   6.184   0.229   5.500  1.9261  0.3742  0.3343
16368TIP3    H270596   6.181   0.083   5.459 -0.0215  0.5860 -0.3585
16369TIP3   OH270597   3.132   3.989   2.785  0.6792 -0.3962 -0.7537
16369TIP3    H170598   3.109   4.060   2.726  0.3087  0.9724  0.9877
16369TIP3    H270599   3.089   4.011   2.868  0.6817 -2.5747 -0.1318
16370TIP3   OH270600   3.333   1.704  10.630  0.1605  0.8896 -0.8491
16370TIP3    H170601   3.281   1.631  10.597 -0.3988  0.2991  1.2805
16370TIP3    H270602   3.324   1.772  10.563 -1.5926  0.0208 -1.5197
16371TIP3   OH270603   0.242   5.097   0.777 -0.2646 -0.8405  0.1828
16371TIP3    H170604   0.220   5.158   0.708 -2.0300 -0.8584  0.7084
16371TIP3    H270605   0.304   5.036   0.736  1.2252  1.0310 -0.4389
16372TIP3   OH270606   1.851   5.757   4.573 -0.1139  0.1875 -0.0688
16372TIP3    H170607   1.757   5.750   4.592 -0.0567 -0.2916  0.0505
16372TIP3    H270608   1.887   5.804   4.648 -0.1454 -0.2688  0.2355
16373TIP3   OH270609   4.304   4.019  11.991 -0.0912  0.1607 -0.0135
16373TIP3    H170610   4.298   4.072  12.071  1.6811 -0.6839  0.7298
16373TIP3    H270611   4.264   4.073  11.923  0.0675  1.6921  1.0717
16374TIP3   OH270612   1.001   1.728  12.699 -0.3861 -0.1389  0.2510
16374TIP3    H170613   0.984   1.731  12.793 -0.1405 -2.7971  0.4036
16374TIP3    H270614   0.999   1.635  12.677  1.6640  0.3003 -2.0011
16375TIP3   OH270615   4.192   5.248   5.559 -0.6879 -0.0851 -0.0810
16375TIP3    H170616   4.146   5.165   5.575  0.5978 -1.4004 -2.7698
16375TIP3    H270617   4.268   5.246   5.618 -0.7610 -0.7432 -0.0066
16376TIP3   OH270618   1.471   3.530   3.665 -0.3430  0.2411 -0.2871
16376TIP3    H170619   1.429   3.614   3.650  0.7251  0.4671 -2.2112
16376TIP3    H270620   1.563   3.551   3.680 -0.2415 -0.5055  0.1695
16377TIP3   OH270621   2.277   4.778   6.161 -0.1872 -0.3318  0.4352
16377TIP3    H170622   2.198   4.795   6.211 -0.7429  2.0118 -1.1457
16377TIP3    H270623   2.348   4.812   6.215 -0.6897  1.2886  0.1093
16378TIP3   OH270624   0.179   1.115  14.977 -0.3236  0.0822 -0.5747
16378TIP3    H170625   0.197   1.095  14.885  1.0910 -1.7773  0.0718
16378TIP3    H270626   0.163   1.209  14.979  1.4026  0.4395 -2.4743
16379TIP3   OH270627   5.499   3.515  16.059 -0.6340  0.6888  0.2698
16379TIP3    H170628   5.409   3.531  16.030 -1.2232 -1.7299  0.6574
16379TIP3    H270629   5.501   3.544  16.150 -1.4469 -0.6194  0.7126
16380TIP3   OH270630   5.567   1.063   3.944  0.0176 -0.2766  0.2298
16380TIP3    H170631   5.551   1.126   4.015 -1.1892 -0.1065 -0.1762
16380TIP3    H270632   5.659   1.038   3.954  0.4369  1.3382  0.5712
16381TIP3   OH270633   0.151   6.805   1.280 -0.2530 -0.2768  0.1988
16381TIP3    H170634   0.225   6.748   1.300 -1.4138 -1.2885  1.7288
16381TIP3    H270635   0.092   6.751   1.227 -0.9719 -0.2531  0.9561
16382TIP3   OH270636   6.050   5.588  11.051  0.1823  0.0244 -0.5319
16382TIP3    H170637   6.119   5.639  11.008  2.0241 -1.4212  0.6399
16382TIP3    H270638   5.981   5.652  11.070  2.1316  1.9432  0.2747
16383TIP3   OH270639   1.747   0.133  11.368 -0.1512 -0.0774  0.3502
16383TIP3    H170640   1.674   0.103  11.421 -0.1497 -0.7127  0.0019
16383TIP3    H270641   1.734   0.091  11.283  0.0805  0.5852 -0.0193
16384TIP3   OH270642   2.836   0.925  14.461  0.2028 -0.3966 -0.4757
16384TIP3    H170643   2.898   0.878  14.406 -0.0978  0.0864 -1.2245
16384TIP3    H270644   2.782   0.975  14.400 -2.1611 -2.2730  0.0066
16385TIP3   OH270645   2.804   2.546  17.290 -0.0339 -0.7236 -0.1638
16385TIP3    H170646   2.854   2.594  17.356 -0.1486 -1.5794  0.5530
16385TIP3    H270647   2.712   2.566  17.310 -0.0396 -0.4295 -0.4883
16386TIP3   OH270648   0.765   5.454  16.910  0.3412 -0.3851 -0.2255
16386TIP3    H170649   0.857   5.442  16.888  0.6518  1.9061 -0.2925
16386TIP3    H270650   0.766   5.484  17.001 -0.2924  0.3022 -0.4428
16387TIP3   OH270651   1.690   4.165   1.168  0.1839 -0.3918 -0.4685
16387TIP3    H170652   1.728   4.180   1.255 -0.8563 -0.2738 -0.0332
16387TIP3    H270653   1.706   4.072   1.150  1.1204 -0.2281 -0.5069
16388TIP3   OH270654   0.104   3.341   4.341  0.3733 -0.3361 -0.3132
16388TIP3    H170655   0.017   3.310   4.366  0.4767 -0.8801 -0.6017
16388TIP3    H270656   0.158   3.326   4.419  0.7707 -2.3332 -0.9249
16389TIP3   OH270657   6.193   5.480   6.525  0.1148  0.0991  0.0332
16389TIP3    H170658   6.237   5.558   6.559 -0.0215  0.5726 -0.8651
16389TIP3    H270659   6.151   5.441   6.601  0.1612  0.9206  0.4811
16390TIP3   OH270660   3.701   3.185  16.910  0.2817  0.3081  0.6545
16390TIP3    H170661   3.723   3.125  16.839 -0.6020  0.3607  0.3346
16390TIP3    H270662   3.683   3.128  16.985  1.0512  0.2464  0.7966
16391TIP3   OH270663   0.890   5.816   5.844  0.1058 -0.5478  0.2315
16391TIP3    H170664   0.886   5.724   5.816  0.5114 -0.7795  0.9222
16391TIP3    H270665   0.828   5.821   5.916  0.8433 -0.5281  0.8734
16392TIP3   OH270666   1.257   2.563   3.286  0.1479  0.2796 -0.1152
16392TIP3    H170667   1.239   2.489   3.344  0.3573 -0.4276 -0.9437
16392TIP3    H270668   1.322   2.530   3.224  0.3670  1.2084 -0.3935
16393TIP3   OH270669   6.423   0.129  13.550 -0.5421  0.3159  0.4961
16393TIP3    H170670   6.508   0.116  13.508 -1.3862  1.4728 -1.6530
16393TIP3    H270671   6.399   0.043  13.582  1.2084 -0.1297  0.6586
16394TIP3   OH270672   3.699   3.972  11.563 -0.2058 -0.2290  0.2698
16394TIP3    H170673   3.789   3.948  11.586 -0.1791 -0.0506  0.3473
16394TIP3    H270674   3.667   3.896  11.513 -0.9943 -1.5672  2.7507
16395TIP3   OH270675   3.499   4.147   2.429  0.2504 -0.2089  0.2054
16395TIP3    H170676   3.578   4.173   2.476 -1.1777 -1.2563  3.3780
16395TIP3    H270677   3.475   4.063   2.469 -2.3363 -0.0049 -0.8457
16396TIP3   OH270678   1.498   2.194  16.599 -0.5786  0.1341  0.1396
16396TIP3    H170679   1.494   2.159  16.510  0.0781  0.2743  0.0467
16396TIP3    H270680   1.407   2.205  16.625 -0.7749  0.1231 -0.5330
16397TIP3   OH270681   5.369   5.887   1.372  0.0616  0.2859  0.1353
16397TIP3    H170682   5.297   5.840   1.416  0.2921 -2.1496 -1.9877
16397TIP3    H270683   5.426   5.914   1.444 -1.4022 -0.4625  1.6349
16398TIP3   OH270684   5.654   0.605  17.258  0.2374 -0.0240 -0.2651
16398TIP3    H170685   5.663   0.541  17.329 -1.0606 -0.0971 -0.1568
16398TIP3    H270686   5.658   0.690  17.303  0.8042 -0.0400 -0.2781
16399TIP3   OH270687   3.022   2.199  16.783  0.0090 -0.0209 -0.0838
16399TIP3    H170688   3.062   2.286  16.791 -0.1647 -0.0184  0.7916
16399TIP3    H270689   2.932   2.218  16.755  0.4833 -0.0082 -1.6350
16400TIP3   OH270690   3.633   4.868  14.082  0.1299 -0.0604  1.3736
16400TIP3    H170691   3.704   4.812  14.051 -0.8840 -1.6477  1.7986
16400TIP3    H270692   3.662   4.898  14.168  0.8209  0.2942  1.0103
16401TIP3   OH270693   5.400   2.635   4.380 -0.6568  0.3659  0.1900
16401TIP3    H170694   5.336   2.687   4.429 -0.9223  0.7069 -0.5151
16401TIP3    H270695   5.470   2.697   4.359 -0.8136  0.3620 -0.3557
16402TIP3   OH270696   6.529   3.262  12.997  0.2774  0.0676  0.1853
16402TIP3    H170697   6.564   3.204  13.065  1.0086 -0.2819 -0.4821
16402TIP3    H270698   6.606   3.289  12.946 -0.1906  0.8019 -0.1383
16403TIP3   OH270699   2.942   4.518   4.838  0.0929 -0.4326 -0.1422
16403TIP3    H170700   2.944   4.585   4.770  1.5018 -0.3226 -0.0103
16403TIP3    H270701   3.022   4.534   4.889 -1.0139 -0.3949  1.6328
16404TIP3   OH270702   3.324   0.967  16.417 -0.0962 -0.0122 -0.3473
16404TIP3    H170703   3.275   0.889  16.446 -0.4308  0.0100 -0.8516
16404TIP3    H270704   3.383   0.986  16.490  0.0278 -0.7756 -0.2357
16405TIP3   OH270705   3.407   5.197   5.309 -0.0565 -0.0584  0.6068
16405TIP3    H170706   3.488   5.184   5.259 -0.4189 -0.1359  0.0321
16405TIP3    H270707   3.427   5.162   5.396  0.5338 -0.0607  0.4759
16406TIP3   OH270708   0.922   6.323   3.775 -0.0831 -0.0260  0.2873
16406TIP3    H170709   0.949   6.258   3.840 -1.4102  0.5664  1.4671
16406TIP3    H270710   0.995   6.385   3.773 -0.1594  0.1281  1.4887
16407TIP3   OH270711   6.285   5.747  13.246 -0.2034  0.1595 -0.0167
16407TIP3    H170712   6.342   5.757  13.170  2.4214  0.6718  1.9419
16407TIP3    H270713   6.249   5.834  13.261 -3.0088 -0.5145 -2.2987
16408TIP3   OH270714   2.486   5.490   4.217  0.2740 -0.2933  0.7864
16408TIP3    H170715   2.521   5.430   4.151 -0.9889 -1.5705  1.2375
16408TIP3    H270716   2.414   5.441   4.257 -2.3049  2.3802 -0.4009
16409TIP3   OH270717   5.997   6.515   1.171  0.2770  0.1476 -0.4112
16409TIP3    H170718   6.033   6.438   1.215 -0.0402  0.2189 -0.0217
16409TIP3    H270719   6.046   6.589   1.206 -1.0790  0.3784  1.0597
16410TIP3   OH270720   5.131   4.991   4.897 -0.2345  0.1890  0.2188
16410TIP3    H170721   5.046   5.032   4.890 -0.9056 -1.1320  0.4556
16410TIP3    H270722   5.160   5.010   4.986  0.4133  1.9295 -0.3415
16411TIP3   OH270723   4.889   2.717   5.641 -0.4871 -0.2003 -0.5448
16411TIP3    H170724   4.946   2.654   5.596  0.5906  0.8982 -0.7299
16411TIP3    H270725   4.895   2.692   5.733 -1.3009 -1.3460 -0.7971
16412TIP3   OH270726   2.019   2.010   3.165  0.1521 -0.0291  0.0037
16412TIP3    H170727   2.092   2.048   3.115 -0.6690  0.2495 -0.9898
16412TIP3    H270728   1.984   2.083   3.215 -0.2378  0.1060 -0.4698
16413TIP3   OH270729   2.914   4.786  12.275  0.4743 -0.0790 -0.8571
16413TIP3    H170730   2.981   4.746  12.330  1.8329  1.1506 -1.5895
16413TIP3    H270731   2.922   4.740  12.191 -2.3441 -2.7373  0.2130
16414TIP3   OH270732   5.866   5.277  11.887  0.0198  0.1925 -0.4030
16414TIP3    H170733   5.817   5.228  11.822 -0.2008 -0.4440  0.2279
16414TIP3    H270734   5.811   5.276  11.965  1.5247 -1.5474  0.6803
16415TIP3   OH270735   5.649   1.145  13.061  0.7179 -0.0072  0.4558
16415TIP3    H170736   5.640   1.114  12.971 -0.0099  2.0832 -0.2085
16415TIP3    H270737   5.744   1.154  13.074  0.7324  2.4370 -1.0905
16416TIP3   OH270738   3.157   3.106  14.316  0.3505 -0.1937  0.3193
16416TIP3    H170739   3.240   3.058  14.317  0.7138  0.4480  1.5753
16416TIP3    H270740   3.179   3.193  14.348 -1.5254 -1.2377  4.7605
16417TIP3   OH270741   5.800   2.945  14.630 -0.5684  0.0295  0.4086
16417TIP3    H170742   5.791   2.857  14.666 -1.3188 -0.0105  0.1237
16417TIP3    H270743   5.821   2.931  14.538  0.4517  0.1424  0.6134
16418TIP3   OH270744   0.938   4.593   5.090 -0.2699 -0.2730 -0.0204
16418TIP3    H170745   0.911   4.677   5.127  0.4448 -0.0294 -0.0335
16418TIP3    H270746   0.978   4.546   5.164 -0.5423 -0.5437 -0.0453
16419TIP3   OH270747   4.895   1.302  12.203 -0.6275 -0.4867  0.3915
16419TIP3    H170748   4.822   1.344  12.158  0.3865 -0.8294 -1.6959
16419TIP3    H270749   4.860   1.219  12.235 -1.3678 -0.2685  0.1489
16420TIP3   OH270750   3.880   3.496  13.673 -0.4284 -0.3408  0.9633
16420TIP3    H170751   3.884   3.582  13.631 -1.5201 -1.4350 -1.4874
16420TIP3    H270752   3.789   3.467  13.660  0.6044 -3.0106 -0.6279
16421TIP3   OH270753   3.939   4.903  16.325  0.1118  0.0890 -0.6822
16421TIP3    H170754   3.928   4.819  16.370  0.9257  1.0750  1.4338
16421TIP3    H270755   4.028   4.900  16.290  1.2320  1.1643  1.9028
16422TIP3   OH270756   2.482   1.053  15.551  0.0254  0.0549 -0.1852
16422TIP3    H170757   2.508   1.145  15.555 -0.4264  0.1321  0.9755
16422TIP3    H270758   2.541   1.015  15.486  0.1524  1.1777 -0.7525
16423TIP3   OH270759   5.739   1.094   2.752 -0.0863  0.0078  0.3764
16423TIP3    H170760   5.770   1.009   2.720  1.8869  0.8378  0.0526
16423TIP3    H270761   5.656   1.108   2.706  1.6976  0.2658 -2.9243
16424TIP3   OH270762   2.653   5.426   0.961  0.2209 -0.2533 -0.4441
16424TIP3    H170763   2.591   5.402   1.029 -0.0683  0.7025 -0.3637
16424TIP3    H270764   2.613   5.501   0.917  1.1241  0.1248 -0.6506
16425TIP3   OH270765   2.148   2.303   5.193 -0.0485  0.7344 -0.8249
16425TIP3    H170766   2.233   2.269   5.165  1.0705  1.4426  1.4980
16425TIP3    H270767   2.170   2.381   5.245 -1.8665 -0.6531  2.1935
16426TIP3   OH270768   3.991   4.635   1.247  0.4841 -0.0593 -0.4754
16426TIP3    H170769   3.939   4.597   1.176 -0.5759 -1.1868  0.8825
16426TIP3    H270770   3.951   4.720   1.264  0.0998 -0.2244 -0.5449
16427TIP3   OH270771   2.222   3.459   0.224 -0.0867 -0.3043 -0.4051
16427TIP3    H170772   2.313   3.487   0.214  0.5014 -1.1114  2.2892
16427TIP3    H270773   2.218   3.374   0.180  1.0812 -1.3405  1.4387
16428TIP3   OH270774   3.777   3.315  16.451 -0.4354 -0.0524 -0.1618
16428TIP3    H170775   3.861   3.359  16.465  0.1812 -1.4135  0.5189
16428TIP3    H270776   3.796   3.250  16.383 -0.7449 -0.8681  0.5212
16429TIP3   OH270777   0.233   5.490   0.665  0.3354 -0.5197  0.1615
16429TIP3    H170778   0.220   5.485   0.760  2.3661 -0.1500  0.4711
16429TIP3    H270779   0.318   5.531   0.654 -0.1838  0.0895 -1.8511
16430TIP3   OH270780   2.816   5.510   0.654  0.8964  0.7506  0.1034
16430TIP3    H170781   2.910   5.498   0.639  0.8688  0.2343  0.3396
16430TIP3    H270782   2.811   5.574   0.725  1.0987 -0.4364  1.2030
16431TIP3   OH270783   2.949   4.004  15.075  0.4913  0.5985 -0.1578
16431TIP3    H170784   3.031   4.029  15.118  1.3878 -0.1153 -1.4370
16431TIP3    H270785   2.882   4.052  15.123  1.7638  2.0875  0.1781
16432TIP3   OH270786   0.123   2.302   2.663 -0.6372  0.6019 -0.2062
16432TIP3    H170787   0.078   2.217   2.662  1.2371 -0.4062 -0.7336
16432TIP3    H270788   0.058   2.362   2.700 -1.7275 -1.2074  0.9488
16433TIP3   OH270789   6.351   5.875   1.867 -0.0774 -0.1776  0.2438
16433TIP3    H170790   6.291   5.930   1.817  0.5055 -0.9104 -1.2961
16433TIP3    H270791   6.410   5.937   1.910  0.2970  0.4414 -1.1225
16434TIP3   OH270792   2.241   0.346   4.821 -0.4065 -0.1869  0.1417
16434TIP3    H170793   2.152   0.329   4.853 -0.0098 -1.4775  0.6195
16434TIP3    H270794   2.230   0.361   4.727 -1.1651  0.0008  0.2537
16435TIP3   OH270795   2.593   1.563  17.181 -0.5984 -0.8418  0.3654
16435TIP3    H170796   2.688   1.553  17.193 -0.3984  0.3247 -0.1812
16435TIP3    H270797   2.557   1.557  17.269 -0.3546 -4.4823  0.3013
16436TIP3   OH270798   0.585   3.040  12.200  0.5975 -0.2328 -0.2426
16436TIP3    H170799   0.628   3.084  12.126 -1.1915  1.2000 -0.4545
16436TIP3    H270800   0.641   3.058  12.275  2.4341 -1.6854 -1.1993
16437TIP3   OH270801   1.397   6.016  12.329 -0.0152 -0.0611  0.7479
16437TIP3    H170802   1.419   5.957  12.257 -1.1176 -0.2950  0.6075
16437TIP3    H270803   1.435   5.975  12.407  0.7815 -0.0362  0.3870
16438TIP3   OH270804   2.425   4.899   3.403 -0.1591 -0.2009  0.2775
16438TIP3    H170805   2.374   4.940   3.332  0.7656  1.2817  0.4417
16438TIP3    H270806   2.472   4.828   3.361 -1.7649 -1.1065 -0.0338
16439TIP3   OH270807   6.713   2.393  15.165  0.2599  0.5515  0.0389
16439TIP3    H170808   6.623   2.360  15.171  0.1029  1.0398  0.4341
16439TIP3    H270809   6.744   2.363  15.079  0.4073 -1.3149  0.7264
16440TIP3   OH270810   1.871   4.023  13.833 -0.1575  0.2776 -0.1571
16440TIP3    H170811   1.935   4.025  13.762 -0.8832 -0.9214 -0.8561
16440TIP3    H270812   1.806   4.089  13.810 -0.0456  0.3465 -0.2721
16441TIP3   OH270813   3.594   6.102  15.770  0.0744 -0.0259  0.0601
16441TIP3    H170814   3.552   6.029  15.816  0.0418 -0.6923 -1.0209
16441TIP3    H270815   3.537   6.177  15.788 -0.9450 -0.6724 -0.4357
16442TIP3   OH270816   1.206   2.433   1.715 -0.2007  0.2665  0.1522
16442TIP3    H170817   1.147   2.430   1.640  0.6022 -0.3280 -0.4744
16442TIP3    H270818   1.219   2.526   1.733 -0.1412  0.4124 -0.6590
16443TIP3   OH270819   4.515   5.734   1.085 -0.0732  0.1787 -0.5988
16443TIP3    H170820   4.533   5.824   1.059 -3.6802  0.3726 -2.6496
16443TIP3    H270821   4.552   5.681   1.015 -2.8650  0.3591 -2.2601
16444TIP3   OH270822   3.962   3.061   5.456 -0.1630  0.4176  0.0816
16444TIP3    H170823   4.056   3.062   5.443 -0.1098  0.0439  0.4358
16444TIP3    H270824   3.946   3.126   5.524 -0.0719 -0.1251  0.6207
16445TIP3   OH270825   5.140   1.067  16.838 -0.3142 -0.2389  0.0989
16445TIP3    H170826   5.122   1.161  16.836 -2.2468 -0.5907 -0.7044
16445TIP3    H270827   5.181   1.048  16.753  1.5917  0.1334  0.9117
16446TIP3   OH270828   6.384   1.771  16.010 -0.3403  0.0149  0.3524
16446TIP3    H170829   6.350   1.767  16.100 -0.3813 -2.0319  0.2804
16446TIP3    H270830   6.320   1.722  15.958  1.0690 -1.1724 -0.3122
16447TIP3   OH270831   1.275   2.629   0.629 -0.0045 -0.0312 -0.6950
16447TIP3    H170832   1.245   2.707   0.582 -0.6796  1.3061  1.8315
16447TIP3    H270833   1.351   2.659   0.679 -0.2637 -0.9739  0.2878
16448TIP3   OH270834   3.991   3.545   2.189  0.4295 -0.3190  0.3609
16448TIP3    H170835   3.910   3.596   2.195  0.6888 -0.0726  1.9862
16448TIP3    H270836   4.009   3.518   2.279  0.7205 -2.6442 -0.3430
16449TIP3   OH270837   3.452   0.902  14.734  0.1679  0.2983  0.0730
16449TIP3    H170838   3.477   0.942  14.817  2.0137  0.1627 -0.3852
16449TIP3    H270839   3.534   0.897  14.685 -0.7823 -0.2598 -1.4807
16450TIP3   OH270840   3.067   3.817  11.173 -0.0162  0.0222 -0.4027
16450TIP3    H170841   2.992   3.786  11.223 -0.9580  1.8612 -0.6591
16450TIP3    H270842   3.077   3.753  11.102 -0.2218 -1.1970  0.6436
16451TIP3   OH270843   5.448   4.717   1.183  0.0033  0.2101  0.0124
16451TIP3    H170844   5.403   4.678   1.108  1.0760  1.3158 -1.2460
16451TIP3    H270845   5.409   4.804   1.192  0.4831  0.4083  0.1889
16452TIP3   OH270846   6.748   6.069   3.204 -0.2865 -0.0911  0.5983
16452TIP3    H170847   6.767   6.076   3.297 -0.0181 -1.1209  0.6238
16452TIP3    H270848   6.653   6.058   3.200 -0.0766 -2.3387  0.9028
16453TIP3   OH270849   3.206   6.583   6.422  0.0490  0.7860 -0.2484
16453TIP3    H170850   3.202   6.604   6.515 -0.4675 -2.4895  0.5046
16453TIP3    H270851   3.299   6.589   6.401  0.2158  1.1414  0.5527
16454TIP3   OH270852   2.446   6.427  14.442  0.2963  0.3927 -0.3640
16454TIP3    H170853   2.541   6.439  14.448  0.1109  1.5848  0.3220
16454TIP3    H270854   2.427   6.357  14.504  0.4436  1.7950  1.3320
16455TIP3   OH270855   5.221   6.301   1.136 -0.0810 -0.0084 -0.3227
16455TIP3    H170856   5.229   6.285   1.230 -1.6982  0.5875 -0.0649
16455TIP3    H270857   5.309   6.326   1.108  0.0655  1.4236  1.3484
16456TIP3   OH270858   5.065   1.851   0.622 -0.3332  0.4340  0.0498
16456TIP3    H170859   5.080   1.769   0.668 -1.5802  1.6723  2.7717
16456TIP3    H270860   5.143   1.903   0.639 -0.3252  0.4877 -0.1475
16457TIP3   OH270861   4.286   4.112   2.779  0.2120 -0.3401 -0.1110
16457TIP3    H170862   4.293   4.018   2.762 -1.1906 -0.4739 -0.0100
16457TIP3    H270863   4.238   4.118   2.862  0.9437  0.4549  0.2600
16458TIP3   OH270864   2.336   4.003   2.495  0.4196 -0.0662 -0.2081
16458TIP3    H170865   2.431   3.999   2.500  0.5069 -2.3901 -2.3934
16458TIP3    H270866   2.308   3.911   2.501 -1.7039  0.5980  0.6674
16459TIP3   OH270867   1.731   3.478   1.539  0.3659  0.0395  0.2045
16459TIP3    H170868   1.747   3.413   1.608 -0.3201  0.4778  0.7837
16459TIP3    H270869   1.680   3.431   1.473  0.0583 -0.0740  0.5209
16460TIP3   OH270870   3.022   3.517  16.315 -0.3443 -0.0443  0.1342
16460TIP3    H170871   3.118   3.519  16.321 -0.3765 -0.1493  0.6652
16460TIP3    H270872   3.003   3.438  16.264 -0.1160  0.3916 -0.6306
16461TIP3   OH270873   4.863   2.463   2.024 -0.3987  0.0276 -0.3805
16461TIP3    H170874   4.908   2.392   2.069 -0.4524  1.0040  1.2842
16461TIP3    H270875   4.895   2.459   1.934  1.7485 -0.3472  0.3571
16462TIP3   OH270876   0.244   2.604  13.429  0.2810  0.0760 -0.3670
16462TIP3    H170877   0.229   2.696  13.406  2.7364  0.3351 -1.0605
16462TIP3    H270878   0.240   2.558  13.345  0.1377 -0.3076 -0.1531
16463TIP3   OH270879   2.741   0.309  13.362 -0.2972  0.0872 -0.7563
16463TIP3    H170880   2.780   0.264  13.436 -0.4379  0.0327 -0.7144
16463TIP3    H270881   2.785   0.394  13.359 -1.5413  0.7876  0.4702
16464TIP3   OH270882   0.946   5.858  16.280 -0.0400  1.0542  0.2291
16464TIP3    H170883   0.979   5.914  16.209  0.5691 -0.0197 -0.3602
16464TIP3    H270884   1.013   5.790  16.289 -1.8285 -0.8718 -0.6265
16465TIP3   OH270885   6.044   3.709  11.167  0.5437  0.3545 -0.0065
16465TIP3    H170886   6.033   3.699  11.262 -0.1232 -0.3853 -0.1587
16465TIP3    H270887   6.075   3.624  11.137  1.4473  0.8021 -0.3596
16466TIP3   OH270888   3.399   3.018   3.173  0.0583 -0.4844  0.4063
16466TIP3    H170889   3.438   2.956   3.234 -0.1194 -2.4910 -1.4778
16466TIP3    H270890   3.376   2.966   3.096 -0.9916  1.7306 -0.8412
16467TIP3   OH270891   0.790   3.091  12.020  0.3823 -0.3804  0.7024
16467TIP3    H170892   0.839   3.009  12.017 -0.0510 -0.6227  0.0660
16467TIP3    H270893   0.732   3.087  11.944 -0.2116  0.1608  1.1229
16468TIP3   OH270894   1.870   4.965  10.894 -0.0080 -0.4728 -0.3540
16468TIP3    H170895   1.838   4.931  10.977 -1.5150 -0.1849 -0.8021
16468TIP3    H270896   1.964   4.979  10.908 -0.0382 -1.5114  0.9208
16469TIP3   OH270897   4.496   0.043  16.316 -0.1043  0.1359  0.5111
16469TIP3    H170898   4.435   0.099  16.268  1.0080  0.5950 -0.4061
16469TIP3    H270899   4.540  -0.008  16.248  2.3869  1.6833  0.9053
16470TIP3   OH270900   3.777   0.573  13.924  0.1692 -0.2152 -0.1509
16470TIP3    H170901   3.731   0.510  13.981 -0.0740 -0.0249 -0.1386
16470TIP3    H270902   3.707   0.625  13.885  0.4949  2.1938  2.3056
16471TIP3   OH270903   4.805   3.145   5.882  0.0190  0.5001 -0.0923
16471TIP3    H170904   4.830   3.090   5.808 -0.5792  3.5551 -2.7172
16471TIP3    H270905   4.887   3.167   5.926  0.2916 -2.0507  0.7355
16472TIP3   OH270906   3.048   0.682   4.998 -0.1398  0.4228 -0.1801
16472TIP3    H170907   3.050   0.626   5.075 -0.7193 -0.2293 -0.6249
16472TIP3    H270908   2.988   0.752   5.021  0.7890  1.0037  0.4744
16473TIP3   OH270909   5.607   6.637  12.565 -0.1703  0.9773  0.5388
16473TIP3    H170910   5.516   6.666  12.554 -0.8321 -1.4505 -0.7409
16473TIP3    H270911   5.658   6.702  12.516 -1.5321  0.4743 -1.6437
16474TIP3   OH270912   4.487   5.456   0.089  0.5537  0.2392  0.0932
16474TIP3    H170913   4.475   5.468  -0.005  2.3053 -0.3414 -0.2356
16474TIP3    H270914   4.480   5.544   0.126 -3.2795  0.1097 -0.1405
16475TIP3   OH270915   2.297   5.657  12.965  0.1798  0.4917 -0.3457
16475TIP3    H170916   2.319   5.733  13.019  0.2824 -0.4731  1.0269
16475TIP3    H270917   2.226   5.613  13.013  2.1835 -1.9466  0.5339
16476TIP3   OH270918   1.901   4.451  14.998  0.9933  0.0716  0.1620
16476TIP3    H170919   1.810   4.472  15.015  1.2515  0.5452  0.9681
16476TIP3    H270920   1.943   4.449  15.084  1.8323  0.2929 -0.2299
16477TIP3   OH270921   3.008   1.427   4.112 -0.1603  0.1764 -0.4891
16477TIP3    H170922   2.997   1.392   4.201  0.5898 -1.5974 -1.0648
16477TIP3    H270923   2.919   1.432   4.077 -0.5653  1.9027  0.7069
16478TIP3   OH270924   2.769   5.646   2.045 -0.1331 -0.3737 -0.2884
16478TIP3    H170925   2.821   5.569   2.023  0.5950 -0.3441  1.2743
16478TIP3    H270926   2.819   5.719   2.011 -0.0148 -0.4746 -0.3325
16479TIP3   OH270927   5.590   1.679  13.621  0.3480 -0.0735 -0.1029
16479TIP3    H170928   5.546   1.751  13.575  1.3302  0.9226  0.5180
16479TIP3    H270929   5.539   1.601  13.596 -1.2351  0.9375 -0.1070
16480TIP3   OH270930   5.946   0.963   1.841  0.6500  0.0752  0.0991
16480TIP3    H170931   5.928   1.055   1.860 -3.8897 -0.3055 -1.6174
16480TIP3    H270932   6.012   0.937   1.905  1.1571  4.1718  1.3765
16481TIP3   OH270933   4.165   6.644   4.972  0.4155  0.0592  0.2846
16481TIP3    H170934   4.185   6.640   5.066  1.6232  0.7115  0.0541
16481TIP3    H270935   4.069   6.649   4.969  0.1543 -3.1253  1.3815
16482TIP3   OH270936   4.927   4.002  12.328  0.1432 -0.3233 -0.3377
16482TIP3    H170937   4.925   4.091  12.293  3.4338  0.0694  0.2302
16482TIP3    H270938   4.973   4.011  12.412  0.6121 -2.5469 -0.3174
16483TIP3   OH270939   0.197   2.484   4.824 -0.1910 -1.0447  0.1602
16483TIP3    H170940   0.152   2.562   4.792  0.7991 -0.5898 -0.1236
16483TIP3    H270941   0.222   2.436   4.745  0.1428 -1.1159  0.3080
16484TIP3   OH270942   1.876   0.910   5.888 -0.3794 -0.2172 -0.0159
16484TIP3    H170943   1.899   0.991   5.842 -0.3617  0.3710  1.0217
16484TIP3    H270944   1.930   0.911   5.967  0.4106 -1.7688 -0.5233
16485TIP3   OH270945   1.920   3.489   1.179  0.0642  0.4787  0.1854
16485TIP3    H170946   2.004   3.481   1.134  0.2434 -0.4562  0.6709
16485TIP3    H270947   1.926   3.572   1.227  0.8077  0.2870  0.4224
16486TIP3   OH270948   0.074   6.371   2.050  0.3829  0.0508  0.2438
16486TIP3    H170949   0.168   6.385   2.035  0.3161  2.0391  1.4226
16486TIP3    H270950   0.031   6.425   1.983  0.0712  0.1894  0.5571
16487TIP3   OH270951   0.605   5.490  10.906  0.2762  0.3846 -0.0202
16487TIP3    H170952   0.583   5.486  10.813 -0.6736 -0.6073  0.2477
16487TIP3    H270953   0.674   5.425  10.917 -0.5144 -0.4151  0.2217
16488TIP3   OH270954   5.094   4.205   4.415  0.1032 -0.5693 -0.5845
16488TIP3    H170955   5.101   4.282   4.357  0.3426  0.6426  1.0152
16488TIP3    H270956   5.022   4.155   4.379 -0.2006  0.5267 -1.5392
16489TIP3   OH270957   6.529   6.529  14.617  0.3740  0.0102 -0.6231
16489TIP3    H170958   6.523   6.435  14.634 -1.9103  0.4080  0.8800
16489TIP3    H270959   6.488   6.540  14.531  0.5462 -0.3382 -0.7521
16490TIP3   OH270960   4.834   5.105   4.862 -0.0421 -0.1715  0.5066
16490TIP3    H170961   4.847   5.093   4.768 -1.2380  0.2178  0.2772
16490TIP3    H270962   4.843   5.199   4.875 -3.4465  0.2806  0.1548
16491TIP3   OH270963   4.193   0.544  16.134 -0.4700 -0.0831 -0.2993
16491TIP3    H170964   4.230   0.513  16.051  0.1132  0.2150 -0.1549
16491TIP3    H270965   4.127   0.609  16.108  0.1467  0.4666 -0.5190
16492TIP3   OH270966   6.640   5.410   0.175 -0.1802  0.1650  0.0460
16492TIP3    H170967   6.615   5.492   0.217 -0.7170  0.7244 -1.3415
16492TIP3    H270968   6.691   5.364   0.242 -1.9727  0.5101  1.7033
16493TIP3   OH270969   4.064   0.932  13.190  0.2608  0.1013 -0.1789
16493TIP3    H170970   3.992   0.883  13.230  0.3744  0.8362  0.9666
16493TIP3    H270971   4.141   0.909  13.241  0.3698  1.2210  0.1875
16494TIP3   OH270972   3.061   2.234  12.210 -0.4940 -0.4332 -0.0587
16494TIP3    H170973   3.021   2.312  12.171 -2.4713 -1.2136  0.3485
16494TIP3    H270974   3.086   2.180  12.135  0.9612  0.6187 -0.3439
16495TIP3   OH270975   0.289   3.326  16.375 -0.1332  0.0351  0.7140
16495TIP3    H170976   0.284   3.248  16.431  0.4963 -0.7021 -0.2531
16495TIP3    H270977   0.381   3.332  16.350  0.1468  2.0321  2.0875
16496TIP3   OH270978   4.036   0.989  11.411 -0.5043  0.1210  0.7184
16496TIP3    H170979   3.962   0.981  11.351 -0.4042  1.8254  0.3215
16496TIP3    H270980   4.004   0.954  11.494 -0.6126 -2.3644 -0.3343
16497TIP3   OH270981   5.059   1.279  10.809  0.6646 -0.3779 -0.2102
16497TIP3    H170982   4.975   1.269  10.765 -0.6105 -1.2319  2.3401
16497TIP3    H270983   5.082   1.372  10.796 -0.7456 -0.0939 -0.7369
16498TIP3   OH270984   4.577   2.054  12.878  0.0523  0.4483  0.2965
16498TIP3    H170985   4.605   2.034  12.968 -0.8556 -0.9635  0.2800
16498TIP3    H270986   4.581   1.969  12.833 -0.9909  0.8708 -0.5871
16499TIP3   OH270987   1.557   0.460   4.491  0.3737  0.0860  0.0782
16499TIP3    H170988   1.566   0.478   4.585  2.2243 -1.8600  0.3136
16499TIP3    H270989   1.599   0.535   4.448  0.4802  0.4674  0.8432
16500TIP3   OH270990   4.706   2.112   2.678  0.2950 -0.1574 -0.4133
16500TIP3    H170991   4.677   2.040   2.622  1.3472 -1.9232  1.2377
16500TIP3    H270992   4.627   2.163   2.695 -0.1572  0.0700 -2.9631
16501TIP3   OH270993   5.296   0.900   0.013 -0.4178  0.5986 -0.0810
16501TIP3    H170994   5.301   0.988   0.050 -0.4385  1.9609 -3.1027
16501TIP3    H270995   5.252   0.848   0.080 -1.1317  3.0921  1.4588
16502TIP3   OH270996   3.137   0.835   0.848  0.1740 -0.2045  0.5405
16502TIP3    H170997   3.107   0.764   0.905  0.4542 -2.6789 -2.2358
16502TIP3    H270998   3.232   0.837   0.859  0.0843  0.3202  1.2441
16503TIP3   OH270999   1.475   4.186  13.971 -0.1874  0.0530  0.3189
16503TIP3    H171000   1.408   4.250  13.994  0.1058  0.1422  0.9272
16503TIP3    H271001   1.429   4.102  13.968 -0.4460  0.2017  0.1219
16504TIP3   OH271002   5.420   0.323  12.203  0.8575 -0.0902  0.3747
16504TIP3    H171003   5.374   0.353  12.125  0.6881  0.1427  0.5660
16504TIP3    H271004   5.408   0.393  12.267 -0.2559 -0.9230  1.0942
16505TIP3   OH271005   4.455   6.787  14.134 -0.3190 -0.1518  0.9856
16505TIP3    H171006   4.523   6.798  14.068 -2.8277  1.4165 -1.4580
16505TIP3    H271007   4.449   6.872  14.177 -0.5941 -0.3425  1.3289
16506TIP3   OH271008   5.313   6.097  16.152  0.2036 -0.1914 -0.0242
16506TIP3    H171009   5.294   6.173  16.207  1.1378  1.4582 -1.9102
16506TIP3    H271010   5.358   6.035  16.210  1.0900  1.4587  1.0712
16507TIP3   OH271011   3.831   3.155  12.352  0.4555  0.4763 -0.1475
16507TIP3    H171012   3.777   3.230  12.379  0.9849  0.7916  0.0436
16507TIP3    H271013   3.809   3.142  12.260 -0.7115 -0.0539  0.1949
16508TIP3   OH271014   3.926   3.834  14.176  0.1109  0.2940 -0.0715
16508TIP3    H171015   3.854   3.855  14.115  0.7032  1.9723 -0.2364
16508TIP3    H271016   4.005   3.854  14.126  0.6943 -1.2462  0.2223
16509TIP3   OH271017   1.583   5.880  11.165  0.5977 -0.3637  0.1552
16509TIP3    H171018   1.653   5.845  11.220 -0.5634 -1.3784  1.0307
16509TIP3    H271019   1.511   5.895  11.226  0.1045  0.8359 -0.7011
16510TIP3   OH271020   6.397   0.103  15.309 -0.5106 -0.1276  0.3396
16510TIP3    H171021   6.468   0.154  15.346 -1.0638  0.0121  1.2244
16510TIP3    H271022   6.424   0.085  15.219  0.8350 -0.4740  0.8116
16511TIP3   OH271023   5.539   4.095  12.034  0.2592 -0.3195  0.3793
16511TIP3    H171024   5.495   4.011  12.021  1.7252 -1.2072  1.0214
16511TIP3    H271025   5.563   4.096  12.126  3.4648 -0.8180 -0.3941
16512TIP3   OH271026   3.624   0.644   1.993  0.2882 -0.1632 -0.4943
16512TIP3    H171027   3.637   0.726   2.042 -0.0689  0.0989 -0.8303
16512TIP3    H271028   3.565   0.669   1.922  0.2097 -0.7103 -0.6175
16513TIP3   OH271029   0.267   6.486   5.270  0.3192 -0.3092  0.5312
16513TIP3    H171030   0.334   6.502   5.203  0.3187 -2.8382 -0.1571
16513TIP3    H271031   0.212   6.564   5.269  1.0917  0.2410 -1.5144
16514TIP3   OH271032   6.770   1.068  16.025  0.1758  0.2343  0.2330
16514TIP3    H171033   6.852   1.071  16.074 -0.5313 -3.2608  1.7729
16514TIP3    H271034   6.790   1.014  15.948 -0.6289 -0.6158  0.6047
16515TIP3   OH271035   5.727   5.403   5.144  0.7154  0.5219 -0.0023
16515TIP3    H171036   5.710   5.497   5.138  0.7587  0.6776  1.9577
16515TIP3    H271037   5.778   5.393   5.225  0.6909 -1.1897 -0.1839
16516TIP3   OH271038   4.872   4.980   0.344  0.2531  0.3858 -0.2076
16516TIP3    H171039   4.846   5.034   0.269 -2.1575  0.4864  0.6451
16516TIP3    H271040   4.838   4.893   0.325 -0.0754  0.3303  0.5923
16517TIP3   OH271041   0.029   4.051   1.576  0.7628  0.3588  0.3637
16517TIP3    H171042   0.089   4.061   1.503  0.5202  1.1576  0.2749
16517TIP3    H271043  -0.057   4.041   1.535  0.5052  1.7248  0.5671
16518TIP3   OH271044   3.727   5.721  15.238  0.2377 -0.2903  0.2218
16518TIP3    H171045   3.740   5.720  15.333 -1.0151 -1.2827  0.4049
16518TIP3    H271046   3.760   5.636  15.209 -1.5151 -0.9558  0.0974
16519TIP3   OH271047   2.868   4.328   4.486 -0.2008 -0.0673 -0.1315
16519TIP3    H171048   2.923   4.390   4.438 -1.5029  0.5103 -0.9376
16519TIP3    H271049   2.886   4.346   4.578  0.8414  0.2097 -0.3837
16520TIP3   OH271050   1.684   5.338   2.605  0.7170 -0.3882 -0.0795
16520TIP3    H171051   1.758   5.327   2.665  1.0705 -1.0148 -0.6206
16520TIP3    H271052   1.723   5.332   2.517 -0.0551 -1.3162 -0.3671
16521TIP3   OH271053   1.383   5.262  12.214 -0.5014  0.2378  0.0266
16521TIP3    H171054   1.331   5.336  12.248  2.3438  1.0671  2.7834
16521TIP3    H271055   1.382   5.198  12.285 -1.3855 -1.6514 -1.6406
16522TIP3   OH271056   6.012   3.105  12.383  0.2338  0.2800 -0.0620
16522TIP3    H171057   6.016   3.029  12.442  0.8191  0.6359  0.3533
16522TIP3    H271058   5.927   3.095  12.339  0.4972 -0.8522 -0.3339
16523TIP3   OH271059   0.226   5.095  14.976  0.1366 -0.5147  0.0490
16523TIP3    H171060   0.243   5.174  14.926  0.9695 -0.0499  1.0525
16523TIP3    H271061   0.163   5.122  15.043  0.3819 -0.7179  0.3605
16524TIP3   OH271062   0.126   5.781  13.592 -0.2584 -0.1239  0.3848
16524TIP3    H171063   0.212   5.780  13.634 -1.3741  0.3228  2.7209
16524TIP3    H271064   0.144   5.809  13.502  2.0329 -0.0718  0.8277
16525TIP3   OH271065   2.836   3.333  13.475  0.0448  0.0771 -0.2599
16525TIP3    H171066   2.753   3.381  13.475 -0.3092 -0.5131 -1.1410
16525TIP3    H271067   2.816   3.251  13.430  0.8836 -0.4715  0.3520
16526TIP3   OH271068   3.916   6.043  10.974 -0.7214 -0.0036 -0.3383
16526TIP3    H171069   3.885   6.082  11.056 -0.3931 -0.3203 -0.0600
16526TIP3    H271070   4.012   6.047  10.981 -0.6952  0.3301 -0.8811
16527TIP3   OH271071   1.680   3.322  11.319  0.1270 -0.1031 -0.1903
16527TIP3    H171072   1.676   3.278  11.234 -0.4505 -2.1509  0.8693
16527TIP3    H271073   1.637   3.262  11.379  0.3923  1.3967  1.5340
16528TIP3   OH271074   3.470   4.672   0.707  0.2018  0.5818 -0.6430
16528TIP3    H171075   3.560   4.648   0.728  0.4320 -1.8874 -4.1231
16528TIP3    H271076   3.419   4.593   0.725 -0.7694  0.9519 -1.7212
16529TIP3   OH271077   0.479   5.734   2.086 -0.2274  0.3042 -0.0462
16529TIP3    H171078   0.488   5.678   2.163 -0.7138 -0.5252 -0.5941
16529TIP3    H271079   0.439   5.678   2.019 -2.2365  1.7277 -0.0940
16530TIP3   OH271080   0.231   6.561   3.271  0.3494  0.1823 -0.5749
16530TIP3    H171081   0.319   6.575   3.306  1.3151 -2.7919 -1.6450
16530TIP3    H271082   0.243   6.561   3.176 -0.7659 -0.4355 -0.7241
16531TIP3   OH271083   4.470   1.392  14.306  0.8482  0.1781  0.0708
16531TIP3    H171084   4.515   1.440  14.376  0.3773 -1.8442  1.8407
16531TIP3    H271085   4.377   1.404  14.324  0.6970 -2.9573  1.7593
16532TIP3   OH271086   5.214   2.761   4.503 -0.6820  0.4807  0.4359
16532TIP3    H171087   5.145   2.753   4.438 -0.5512 -0.5620  0.4157
16532TIP3    H271088   5.169   2.761   4.588 -0.7795  0.8432  0.3850
16533TIP3   OH271089   0.076   3.892   5.716 -0.2077 -0.1293 -0.4269
16533TIP3    H171090   0.066   3.818   5.776 -2.8952  1.3703  1.0356
16533TIP3    H271091   0.034   3.862   5.635  2.0682 -1.5705 -1.1409
16534TIP3   OH271092   3.642   4.711   5.253 -0.2959 -0.1733 -0.3068
16534TIP3    H171093   3.642   4.683   5.162  0.9708  1.2828 -0.7898
16534TIP3    H271094   3.551   4.709   5.280 -0.6315 -0.9783 -1.4944
16535TIP3   OH271095   2.805   6.509   0.107 -0.4553 -0.1233  0.2990
16535TIP3    H171096   2.874   6.478   0.048  1.3393  1.4416  1.4834
16535TIP3    H271097   2.767   6.584   0.063  1.3062  1.4262  1.3585
16536TIP3   OH271098   4.064   4.881  15.715  0.0892  0.2021  0.2974
16536TIP3    H171099   4.017   4.940  15.656 -0.8224  0.4270  1.2328
16536TIP3    H271100   4.082   4.935  15.793  0.4066 -0.3771  0.6275
16537TIP3   OH271101   5.864   5.698   5.322  0.3706 -0.8179 -0.0349
16537TIP3    H171102   5.773   5.690   5.292  0.6241 -0.5861 -0.8860
16537TIP3    H271103   5.899   5.772   5.272  0.0004  1.4023  2.8650
16538TIP3   OH271104   5.262   5.221  15.101  0.0154 -0.1471 -0.1044
16538TIP3    H171105   5.321   5.271  15.045  0.7133 -1.1581 -0.2677
16538TIP3    H271106   5.263   5.267  15.185  1.6944 -0.6359  0.1613
16539TIP3   OH271107   6.531   1.947  14.787 -0.4039 -0.1495  0.0414
16539TIP3    H171108   6.527   1.865  14.836  0.1299  0.5783  1.3183
16539TIP3    H271109   6.462   2.002  14.824 -1.3803 -0.3420 -1.4381
16540TIP3   OH271110   1.083   5.385   3.948  0.5655 -0.0349 -0.1808
16540TIP3    H171111   1.146   5.396   3.876  0.0288 -1.0038 -0.8012
16540TIP3    H271112   1.094   5.294   3.976 -1.0956 -0.4526 -0.8104
16541TIP3   OH271113   3.330   1.798  15.531 -0.2449  0.7817  0.2192
16541TIP3    H171114   3.327   1.786  15.437 -1.0667 -0.6056  0.4178
16541TIP3    H271115   3.380   1.724  15.564  0.5825  1.5884  0.8321
16542TIP3   OH271116   0.221   2.692  14.699  0.6192 -0.2925 -0.0522
16542TIP3    H171117   0.215   2.671  14.606  2.5063  0.5693 -0.3723
16542TIP3    H271118   0.297   2.645  14.730 -1.3090 -2.4194  1.6015
16543TIP3   OH271119   1.292   5.140  15.156  0.1187  0.6193  0.0661
16543TIP3    H171120   1.211   5.166  15.200  0.4551  1.4809  0.1751
16543TIP3    H271121   1.263   5.109  15.070 -0.6106 -1.6468  1.0747
16544TIP3   OH271122   4.275   5.064  11.532 -0.4239  0.3255 -0.1560
16544TIP3    H171123   4.280   4.991  11.470 -1.0593  1.5643 -1.7077
16544TIP3    H271124   4.297   5.141  11.480 -1.0543  1.4116  1.1492
16545TIP3   OH271125   5.415   6.196  13.447  0.4022  0.0444 -0.2091
16545TIP3    H171126   5.376   6.108  13.453  0.0708  0.1370 -0.9968
16545TIP3    H271127   5.382   6.242  13.524 -1.1350  0.1523 -0.9146
16546TIP3   OH271128   5.207   3.359  16.404 -0.1918  0.1844 -0.2144
16546TIP3    H171129   5.192   3.375  16.311 -1.0744 -3.1689 -0.7329
16546TIP3    H271130   5.120   3.365  16.444 -0.3335 -1.5084 -0.1988
16547TIP3   OH271131   1.316   0.964   1.438 -0.2750 -0.5568 -0.1748
16547TIP3    H171132   1.328   1.037   1.498  2.0915 -1.1826  0.1358
16547TIP3    H271133   1.372   0.985   1.363  0.2501 -1.9236 -0.1814
16548TIP3   OH271134   1.573   3.658   0.122  0.2506 -0.1538  0.0238
16548TIP3    H171135   1.549   3.639   0.031 -0.0780  0.5221 -0.0334
16548TIP3    H271136   1.648   3.717   0.116  0.0014  0.1823  0.1855
16549TIP3   OH271137   3.740   4.755  14.662  0.3930 -0.1781 -0.1900
16549TIP3    H171138   3.681   4.733  14.734 -1.1442  1.0647 -1.0262
16549TIP3    H271139   3.818   4.792  14.705 -0.2938  0.0839  0.8472
16550TIP3   OH271140   6.137   5.793  12.501 -0.3408  0.0598 -0.5503
16550TIP3    H171141   6.193   5.855  12.455  0.7988  0.1428  0.9285
16550TIP3    H271142   6.082   5.847  12.558  1.5989 -0.3289  1.7624
16551TIP3   OH271143   4.181   2.135   1.419  0.3025 -0.2112  0.3627
16551TIP3    H171144   4.091   2.160   1.398  0.4332 -0.8445 -0.9638
16551TIP3    H271145   4.235   2.189   1.362  0.7123 -0.9549  0.0404
16552TIP3   OH271146   0.986   5.853   2.866  0.0078  0.1060  0.2952
16552TIP3    H171147   1.022   5.909   2.797  2.9114 -1.1915  0.6939
16552TIP3    H271148   0.894   5.879   2.872 -0.5409 -0.2759 -4.5917
16553TIP3   OH271149   1.253   0.419   2.801 -0.0613 -0.3265 -0.0410
16553TIP3    H171150   1.244   0.339   2.749 -2.8003  0.9927 -1.7068
16553TIP3    H271151   1.203   0.401   2.881 -0.3186 -0.4574 -0.2286
16554TIP3   OH271152   3.500   0.727   3.367  0.3403 -0.4730 -0.2111
16554TIP3    H171153   3.434   0.666   3.334 -1.0053  0.2854  1.0549
16554TIP3    H271154   3.497   0.717   3.462  1.0589  0.6034 -0.0671
16555TIP3   OH271155   3.770   4.970  14.341  0.3128 -0.7069 -0.3996
16555TIP3    H171156   3.797   4.981  14.432 -0.2110  0.3717 -0.3641
16555TIP3    H271157   3.715   5.046  14.323  0.1537 -1.0767 -1.5229
16556TIP3   OH271158   3.165   2.853  15.951  0.0251  0.3793  0.6300
16556TIP3    H171159   3.143   2.761  15.962  0.5533 -0.0384 -1.4830
16556TIP3    H271160   3.261   2.856  15.958  0.1585  0.4745 -1.0265
16557TIP3   OH271161   0.835   4.165   2.821 -0.3114 -0.6471 -0.5328
16557TIP3    H171162   0.808   4.160   2.729  1.0812 -0.4709 -0.9756
16557TIP3    H271163   0.756   4.189   2.868 -1.1378 -1.1198 -1.6386
16558TIP3   OH271164   2.954   1.764  13.407 -0.2999 -0.0542 -0.5891
16558TIP3    H171165   2.935   1.733  13.496  0.7162  0.9224 -0.0061
16558TIP3    H271166   2.985   1.687  13.360 -0.6894 -0.5470 -0.0402
16559TIP3   OH271167   4.473   6.480   4.380 -0.1678 -0.4291 -0.4164
16559TIP3    H171168   4.391   6.436   4.355  1.8487 -3.1728 -2.4463
16559TIP3    H271169   4.473   6.561   4.328 -2.6464  0.7979  1.3599
16560TIP3   OH271170   2.118   1.694   0.158 -0.2647 -0.0800 -0.4705
16560TIP3    H171171   2.037   1.657   0.193  0.0652 -0.5161 -0.1685
16560TIP3    H271172   2.118   1.785   0.187 -0.5704 -0.1222 -0.3399
16561TIP3   OH271173   2.731   4.899   5.497 -0.5623  0.0969  0.3210
16561TIP3    H171174   2.708   4.907   5.589  0.4024  0.1308  0.5707
16561TIP3    H271175   2.760   4.808   5.487  1.2242  0.6140  0.5174
16562TIP3   OH271176   6.385   2.062  16.051  0.3972  0.1363  0.4817
16562TIP3    H171177   6.392   1.968  16.033  0.0099  0.5649 -2.1989
16562TIP3    H271178   6.293   2.076  16.071  0.2550  0.1014 -0.1472
16563TIP3   OH271179   6.796   3.509  15.885 -0.2576  0.6544  0.7933
16563TIP3    H171180   6.752   3.496  15.969  0.4726 -1.4956  0.8641
16563TIP3    H271181   6.820   3.421  15.856 -0.6104  1.3587 -1.7481
16564TIP3   OH271182   6.461   6.683  11.621 -0.2714  0.3471  0.0940
16564TIP3    H171183   6.554   6.671  11.640 -0.6150 -1.3865  0.7474
16564TIP3    H271184   6.454   6.671  11.526  0.4636  2.5978 -0.2829
16565TIP3   OH271185   0.814   4.561  15.849 -0.0849  0.4878 -0.3567
16565TIP3    H171186   0.726   4.528  15.834  0.2051 -0.4562 -0.0647
16565TIP3    H271187   0.854   4.566  15.762  0.6017 -2.1001 -0.2464
16566TIP3   OH271188   3.851   6.021  16.875  0.6307  0.2244 -0.1138
16566TIP3    H171189   3.898   5.939  16.890  0.7170  0.2106 -0.4545
16566TIP3    H271190   3.919   6.084  16.853  0.6121  0.5077  0.6391
16567TIP3   OH271191   4.948   4.050   2.440 -0.2065  0.1027 -0.0581
16567TIP3    H171192   5.034   4.009   2.445  0.3171  0.9642 -1.4835
16567TIP3    H271193   4.960   4.137   2.479 -0.8499 -0.3955  1.2705
16568TIP3   OH271194   1.160   1.149  13.365  0.5364  0.3250 -0.1543
16568TIP3    H171195   1.198   1.236  13.351  2.2307  0.2422  3.3137
16568TIP3    H271196   1.084   1.165  13.421  0.0252 -0.2969 -0.6656
16569TIP3   OH271197   0.538   2.274  12.310 -0.3590  0.4511  0.4265
16569TIP3    H171198   0.596   2.345  12.337 -0.9516  2.0510 -2.3488
16569TIP3    H271199   0.504   2.301  12.225 -3.6519 -1.3583  1.0625
16570TIP3   OH271200   4.796   5.149   0.140  0.0305 -0.2284 -0.0374
16570TIP3    H171201   4.795   5.231   0.091 -0.2253 -0.2169 -0.0116
16570TIP3    H271202   4.778   5.082   0.074  2.9420 -0.5312 -0.5741
16571TIP3   OH271203   3.898   1.667   0.986 -0.2341 -0.3435 -0.5709
16571TIP3    H171204   3.976   1.692   0.936 -1.7788  0.9249 -2.3839
16571TIP3    H271205   3.872   1.582   0.949 -0.7868  0.1169 -1.2525
16572TIP3   OH271206   6.244   1.482  12.004 -0.4537  0.0184 -0.0593
16572TIP3    H171207   6.323   1.442  11.967 -0.5561 -0.6588  0.4526
16572TIP3    H271208   6.182   1.409  12.013 -0.7883  0.3659  0.4854
16573TIP3   OH271209   1.741   6.573  12.959 -0.0492  0.3239 -0.1931
16573TIP3    H171210   1.721   6.656  12.916 -1.3656  0.6456  1.0307
16573TIP3    H271211   1.693   6.576  13.041  2.1947 -0.4303  1.1920
16574TIP3   OH271212   4.677   2.287   2.359 -0.5031  0.2274  0.3070
16574TIP3    H171213   4.686   2.192   2.357 -0.2921  0.2512  0.0861
16574TIP3    H271214   4.645   2.310   2.271  3.2156  0.7285 -1.0107
16575TIP3   OH271215   2.270   3.618   2.990 -0.0133  0.1613 -0.1815
16575TIP3    H171216   2.284   3.683   2.920  1.3718 -1.5567 -1.5539
16575TIP3    H271217   2.315   3.655   3.066 -0.0302  1.2501 -0.6908
16576TIP3   OH271218   5.420   2.232  15.127  0.4282  0.2639 -0.2051
16576TIP3    H171219   5.468   2.280  15.058  1.1072  0.0159  0.0884
16576TIP3    H271220   5.479   2.161  15.152 -1.0796 -1.5205 -1.5270
16577TIP3   OH271221   0.427   4.560   5.447  0.3461  0.0037 -0.0825
16577TIP3    H171222   0.361   4.491   5.441 -0.2008  0.7017 -2.5438
16577TIP3    H271223   0.488   4.541   5.376  2.3023 -0.0711  1.5510
16578TIP3   OH271224   6.550   1.111  13.603 -0.0304  0.0235  0.2226
16578TIP3    H171225   6.531   1.190  13.553 -0.8549 -0.0724  0.3708
16578TIP3    H271226   6.591   1.051  13.540  2.9426  1.4690  0.7093
16579TIP3   OH271227   4.155   2.042   1.854  0.2293  0.0012  0.3476
16579TIP3    H171228   4.068   2.004   1.856  1.2307 -2.2694  1.6694
16579TIP3    H271229   4.191   2.017   1.769 -0.4625  1.1548 -0.3048
16580TIP3   OH271230   1.152   3.642  11.519 -0.6818  0.0211  0.2654
16580TIP3    H171231   1.230   3.596  11.550 -1.8146 -0.5759  2.2804
16580TIP3    H271232   1.184   3.697  11.447  1.9191  1.0231  2.0944
16581TIP3   OH271233   4.267   1.134   4.701  0.8138 -0.4051 -0.5497
16581TIP3    H171234   4.247   1.228   4.695  0.1693 -0.4004  1.3312
16581TIP3    H271235   4.350   1.130   4.748 -1.0880 -0.8737  2.9513
16582TIP3   OH271236   2.079   2.680  11.937  0.6140 -0.8046  0.2598
16582TIP3    H171237   2.045   2.666  12.025 -1.5813 -0.6615 -0.5444
16582TIP3    H271238   2.031   2.618  11.882 -1.6642  2.4312 -1.6114
16583TIP3   OH271239   1.411   5.566  12.308 -0.5549  0.3479 -0.1778
16583TIP3    H171240   1.501   5.552  12.279 -0.9811  0.3864 -1.5641
16583TIP3    H271241   1.408   5.658  12.336 -0.0253  0.1850  0.4183
16584TIP3   OH271242   4.366   3.102  11.610  0.2409 -0.1754 -0.0317
16584TIP3    H171243   4.401   3.082  11.523  1.2173 -1.4806  0.6490
16584TIP3    H271244   4.345   3.017  11.648 -1.0305  0.4400  0.6769
16585TIP3   OH271245   6.727   1.016  14.786 -0.0427 -0.3525  0.0651
16585TIP3    H171246   6.731   1.007  14.881  1.7976  0.1150  0.0385
16585TIP3    H271247   6.691   1.103  14.771  0.5518 -0.0617  0.3334
16586TIP3   OH271248   6.081   4.022   0.284 -0.5131  0.5285 -0.5438
16586TIP3    H171249   6.008   4.013   0.222 -2.4120  0.1986  1.6739
16586TIP3    H271250   6.070   4.109   0.322 -0.1691  0.1978  0.3262
16587TIP3   OH271251   2.658   1.894  13.859  0.1328  0.1572 -0.4087
16587TIP3    H171252   2.567   1.883  13.832  0.0268  2.6096 -1.1198
16587TIP3    H271253   2.655   1.963  13.925  1.6146  1.0961 -1.3074
16588TIP3   OH271254   3.341   1.692  16.816  0.7928  0.5197  0.7015
16588TIP3    H171255   3.365   1.703  16.908  3.1351  2.1303 -0.0477
16588TIP3    H271256   3.269   1.753  16.802  1.7334  1.7077  0.9970
16589TIP3   OH271257   0.999   2.095  15.491  0.9317  0.2710  0.0902
16589TIP3    H171258   1.050   2.156  15.546  1.3585  0.6667 -0.7285
16589TIP3    H271259   1.019   2.122  15.401  0.1807 -0.3251 -0.2577
16590TIP3   OH271260   6.643   3.848  16.959 -0.5482  0.3859  0.0888
16590TIP3    H171261   6.655   3.804  17.043 -0.7672 -1.8698 -1.0193
16590TIP3    H271262   6.566   3.904  16.972 -0.3985  0.2869  1.4634
16591TIP3   OH271263   1.083   0.974   0.843  0.6984 -0.1210  0.1311
16591TIP3    H171264   0.994   0.940   0.850  1.0978 -1.0635  0.7293
16591TIP3    H271265   1.090   1.004   0.752 -0.2663  0.0807  0.1200
16592TIP3   OH271266   5.131   4.705   2.033  0.1070  0.5355  0.1804
16592TIP3    H171267   5.107   4.793   2.060  0.6616  1.2114 -1.4277
16592TIP3    H271268   5.200   4.718   1.968  0.2286 -1.0860 -0.0502
16593TIP3   OH271269   6.130   6.445  16.821  0.0945  0.3722  0.4292
16593TIP3    H171270   6.052   6.493  16.789 -1.6379 -2.3604  0.4213
16593TIP3    H271271   6.202   6.482  16.770 -1.7437  0.3895 -2.2805
16594TIP3   OH271272   0.574   4.075  15.459 -0.0759 -0.5199 -0.8341
16594TIP3    H171273   0.498   4.108  15.411 -0.6853  0.0821  0.4926
16594TIP3    H271274   0.553   4.094  15.551  1.4824 -0.7619 -0.4195
16595TIP3   OH271275   5.394   4.739   2.700  0.2537  0.4736  0.1185
16595TIP3    H171276   5.405   4.681   2.625 -0.1673  0.2116  0.2572
16595TIP3    H271277   5.448   4.700   2.769 -0.6367 -0.1954  0.4542
16596TIP3   OH271278   4.639   1.899  16.188  0.0323 -0.0704 -0.4926
16596TIP3    H171279   4.569   1.952  16.150 -1.8800 -1.2359  1.3172
16596TIP3    H271280   4.606   1.810  16.186  2.5518 -1.0313 -1.9575
16597TIP3   OH271281   6.514   1.632   0.808 -0.3794  0.1029 -0.8258
16597TIP3    H171282   6.593   1.586   0.779  0.2158  0.2589  0.5318
16597TIP3    H271283   6.529   1.723   0.783 -0.4189  0.0186 -1.1601
16598TIP3   OH271284   5.215   0.965   2.528  0.3357 -0.1875  0.7448
16598TIP3    H171285   5.251   0.894   2.475  0.5678 -0.1744  0.8821
16598TIP3    H271286   5.206   0.927   2.616 -0.0060 -0.1972  0.7046
16599TIP3   OH271287   6.454   0.112   3.425 -0.0918 -0.1395 -0.1213
16599TIP3    H171288   6.546   0.086   3.424  0.2880  1.1642 -0.1150
16599TIP3    H271289   6.407   0.035   3.392  1.0330 -0.6602 -0.5460
16600TIP3   OH271290   2.865   5.443  15.800  0.1345  0.5914  0.1400
16600TIP3    H171291   2.832   5.357  15.775 -1.3888  0.8295  1.2446
16600TIP3    H271292   2.960   5.436  15.792  0.1449 -1.7290  1.9095
16601TIP3   OH271293   3.833   4.555  12.841  0.5010  0.1811  0.2500
16601TIP3    H171294   3.874   4.607  12.773 -1.2397  1.4226  0.1065
16601TIP3    H271295   3.826   4.614  12.916 -1.2046  0.1006  0.1853
16602TIP3   OH271296   4.511   0.608   4.137 -0.7295  0.5227  0.4201
16602TIP3    H171297   4.447   0.563   4.081  0.6989 -0.0304 -0.8144
16602TIP3    H271298   4.462   0.631   4.215 -2.4658  0.1671 -0.5223
16603TIP3   OH271299   6.560   2.215  13.164 -0.5093 -0.4458 -0.0036
16603TIP3    H171300   6.484   2.269  13.185  0.1298  0.1321  0.8653
16603TIP3    H271301   6.542   2.131  13.206 -0.0768  0.1183  1.3530
16604TIP3   OH271302   1.226   2.980   2.736  0.4308 -0.2789 -0.5496
16604TIP3    H171303   1.227   2.885   2.738 -3.2121 -0.4273 -1.8170
16604TIP3    H271304   1.253   3.002   2.646 -1.2984 -0.2793 -1.0991
16605TIP3   OH271305   6.645   6.508  17.193  0.4165 -0.0085 -0.3501
16605TIP3    H171306   6.555   6.497  17.163  0.2286  0.8760 -0.1372
16605TIP3    H271307   6.698   6.453  17.135  0.0886  1.7991 -2.4150
16606TIP3   OH271308   0.830   5.791   4.950  0.4087  0.5719  0.3205
16606TIP3    H171309   0.869   5.840   4.878  1.7642 -0.2130  0.5245
16606TIP3    H271310   0.818   5.703   4.916 -0.4866  0.6149  0.5142
16607TIP3   OH271311   5.119   1.430   2.995 -0.7263 -0.0851  0.5953
16607TIP3    H171312   5.117   1.524   2.978  0.4691  0.0363  1.0536
16607TIP3    H271313   5.191   1.397   2.940 -1.8849 -0.9243 -0.4491
16608TIP3   OH271314   3.528   2.081   3.000  0.6881 -0.0015 -0.4002
16608TIP3    H171315   3.523   2.166   2.956 -0.0011 -0.9156 -2.1500
16608TIP3    H271316   3.443   2.071   3.043 -0.6731 -1.3183 -3.1884
16609TIP3   OH271317   2.228   0.931   4.165  0.3319  0.0297  0.6360
16609TIP3    H171318   2.225   1.007   4.224 -0.2467  1.7560 -1.5347
16609TIP3    H271319   2.308   0.944   4.114  0.2916 -0.8946  0.3292
16610TIP3   OH271320   6.165   6.465  17.273  0.3351  0.0190  0.0147
16610TIP3    H171321   6.107   6.493  17.203 -0.1576 -0.7359  0.1125
16610TIP3    H271322   6.109   6.461  17.351  0.4742 -0.8716  0.0747
16611TIP3   OH271323   1.828   3.955  12.775 -0.2017 -0.5889  0.5222
16611TIP3    H171324   1.767   3.997  12.715  0.7311 -2.0064 -1.4781
16611TIP3    H271325   1.792   3.972  12.862 -0.9680  2.4595 -0.3364
16612TIP3   OH271326   3.809   1.655  16.547 -0.0606  0.4220  0.4278
16612TIP3    H171327   3.821   1.746  16.520 -0.3700  0.5093  0.5759
16612TIP3    H271328   3.715   1.648  16.563  0.2203  0.6311  2.3892
16613TIP3   OH271329   1.125   4.624  13.600 -0.4806  0.1097  0.3860
16613TIP3    H171330   1.197   4.661  13.651 -0.4050 -1.6632  1.5968
16613TIP3    H271331   1.165   4.553  13.550 -1.0321  0.3012 -0.3324
16614TIP3   OH271332   6.521   4.861  14.530  0.7408  0.3046 -0.2812
16614TIP3    H171333   6.527   4.929  14.463 -0.8961  0.1480 -0.6029
16614TIP3    H271334   6.605   4.815  14.525  1.4230  1.5937 -0.8132
16615TIP3   OH271335   2.190   4.865  13.165  0.9349 -0.3267  0.0862
16615TIP3    H171336   2.149   4.854  13.251 -0.0617  0.5189 -0.2644
16615TIP3    H271337   2.242   4.945  13.173  1.1306 -0.4459  0.0135
16616TIP3   OH271338   3.162   5.184  10.881 -0.3636 -0.0430 -0.0065
16616TIP3    H171339   3.167   5.121  10.809 -0.5992  2.5931 -2.4527
16616TIP3    H271340   3.103   5.252  10.848  2.2656  2.9828  1.2492
16617TIP3   OH271341   2.834   5.390   5.328 -0.6310 -0.1738 -0.8584
16617TIP3    H171342   2.845   5.302   5.363 -1.1059  0.4835  1.0284
16617TIP3    H271343   2.871   5.386   5.240  0.4103 -1.9530 -0.3625
16618TIP3   OH271344   0.384   3.656  13.465  0.1004  0.1968  0.4324
16618TIP3    H171345   0.385   3.645  13.560  0.5232  0.3680  0.4477
16618TIP3    H271346   0.432   3.737  13.449  0.1446  0.1033  0.0653
16619TIP3   OH271347   3.159   5.722   3.319 -0.2702  0.5201  0.2248
16619TIP3    H171348   3.244   5.756   3.346 -0.1246  0.6240 -0.3375
16619TIP3    H271349   3.180   5.645   3.265 -0.4715  1.2024 -0.8571
16620TIP3   OH271350   3.097   1.254   5.832  0.6067  0.4273 -0.5707
16620TIP3    H171351   3.051   1.328   5.872 -1.2308 -0.9730 -0.0279
16620TIP3    H271352   3.120   1.285   5.744  0.2649  1.7895 -0.1932
16621TIP3   OH271353   0.967   5.143  15.513 -0.2484 -0.0933 -0.5735
16621TIP3    H171354   0.921   5.171  15.434  0.4783 -0.8397 -1.2767
16621TIP3    H271355   0.963   5.047  15.510  0.0413 -0.1302  0.1382
16622TIP3   OH271356   5.836   0.500   5.268 -0.4187  0.2655 -0.1014
16622TIP3    H171357   5.897   0.574   5.266  0.1033 -0.0039  2.6929
16622TIP3    H271358   5.762   0.531   5.321 -1.2965 -0.4216 -0.9099
16623TIP3   OH271359   5.910   5.774  13.516  0.1984 -0.7769  0.3577
16623TIP3    H171360   5.831   5.789  13.568 -0.3148 -1.2801 -0.2588
16623TIP3    H271361   5.955   5.702  13.561 -0.4249 -1.4507 -0.0808
16624TIP3   OH271362   2.349   5.554   5.514 -0.4578 -0.0664  0.0299
16624TIP3    H171363   2.423   5.500   5.540  1.0359  0.2090 -3.4531
16624TIP3    H271364   2.289   5.494   5.469 -0.6011  0.4390 -0.4568
16625TIP3   OH271365   4.527   2.326   4.990  0.0593 -0.2700 -0.5491
16625TIP3    H171366   4.563   2.413   5.009  0.4363 -0.4135 -0.6156
16625TIP3    H271367   4.435   2.343   4.970 -0.3183 -0.1083  1.2610
16626TIP3   OH271368   1.978   0.070  13.230 -0.1493  0.4610  0.3581
16626TIP3    H171369   2.055   0.020  13.256  0.2471  0.0842 -1.4502
16626TIP3    H271370   2.012   0.143  13.179 -1.0320 -0.3752 -1.4800
16627TIP3   OH271371   4.228   3.645   0.154  0.2181 -0.2911 -0.0940
16627TIP3    H171372   4.244   3.734   0.184  0.0713  0.4710 -2.1760
16627TIP3    H271373   4.272   3.589   0.218 -0.3073  1.2402  1.6281
16628TIP3   OH271374   3.967   3.147  11.256  0.5630 -0.4869 -0.5806
16628TIP3    H171375   3.877   3.143  11.223  1.2586 -1.7522 -2.4147
16628TIP3    H271376   3.968   3.088  11.331 -0.8601  1.8587  1.3772
16629TIP3   OH271377   3.106   0.647   1.774  0.0794  0.0317 -1.0074
16629TIP3    H171378   3.154   0.566   1.755  2.7204  1.5075 -0.8875
16629TIP3    H271379   3.142   0.677   1.857 -0.2273  1.7930 -1.4947
16630TIP3   OH271380   5.891   1.927  12.226  0.7626 -0.2791 -0.5662
16630TIP3    H171381   5.889   2.022  12.236  0.0897 -0.3149 -0.3304
16630TIP3    H271382   5.801   1.899  12.241  1.1752 -1.0748  0.5996
16631TIP3   OH271383   5.067   6.322   1.960  0.0813  0.1544 -0.0992
16631TIP3    H171384   4.976   6.294   1.965 -0.4198  2.0013  2.0007
16631TIP3    H271385   5.069   6.385   1.888 -0.4012  0.4735  0.1675
16632TIP3   OH271386   2.270   0.333   3.856 -0.2704  0.4153 -0.5591
16632TIP3    H171387   2.354   0.316   3.812  0.4139 -1.2391  1.3006
16632TIP3    H271388   2.216   0.257   3.833 -0.3021  0.1164  0.4899
16633TIP3   OH271389   6.337   0.858   1.629 -0.3860  0.5478 -0.0800
16633TIP3    H171390   6.400   0.917   1.589 -0.2472 -0.5952 -1.5995
16633TIP3    H271391   6.353   0.865   1.723  0.8306  1.5639 -0.3534
16634TIP3   OH271392   0.537   4.955   5.925  0.0921  0.2841 -0.5581
16634TIP3    H171393   0.491   5.035   5.950  0.6290  0.3017  0.4008
16634TIP3    H271394   0.570   4.972   5.837 -2.0162  0.1374 -1.3976
16635TIP3   OH271395   2.703   2.474   2.804 -1.2250  0.9835 -0.1546
16635TIP3    H171396   2.646   2.532   2.754 -1.8920 -0.4522 -1.1150
16635TIP3    H271397   2.742   2.416   2.738 -0.2313  0.6285  0.7213
16636TIP3   OH271398   4.550   4.129  15.495 -0.6479 -0.1211  0.0887
16636TIP3    H171399   4.607   4.054  15.481  0.8156  1.2202 -1.4170
16636TIP3    H271400   4.559   4.181  15.415 -0.4851  2.3827  1.6618
16637TIP3   OH271401   6.668   3.527   6.518  0.1817 -0.2840  0.1639
16637TIP3    H171402   6.611   3.452   6.501 -0.5302  0.5733 -1.2672
16637TIP3    H271403   6.733   3.494   6.581 -0.2452 -2.0394 -0.3022
16638TIP3   OH271404   1.712   2.988   2.185  0.0877  0.0978  0.0515
16638TIP3    H171405   1.799   2.949   2.182  0.0875 -0.0324  1.3677
16638TIP3    H271406   1.654   2.917   2.212 -0.2551  0.4720  0.3132
16639TIP3   OH271407   1.901   3.829  13.648  0.4914 -0.7935 -0.1430
16639TIP3    H171408   1.809   3.832  13.672  0.9720  1.0750  1.6027
16639TIP3    H271409   1.945   3.793  13.725  1.4268  0.1252 -0.2363
16640TIP3   OH271410   0.891   4.226  13.461 -0.2130 -0.2333 -0.1747
16640TIP3    H171411   0.888   4.131  13.470  1.4939 -0.1623  1.5750
16640TIP3    H271412   0.858   4.259  13.545 -1.5355  0.7287 -1.0586
16641TIP3   OH271413   1.778   4.924   4.052 -0.0934  0.1397 -0.5666
16641TIP3    H171414   1.700   4.922   3.996 -1.2294  0.7564  0.9682
16641TIP3    H271415   1.789   5.017   4.074  1.6276  0.1723 -1.5291
16642TIP3   OH271416   1.630   5.577   5.117  0.2091  0.1405  0.7914
16642TIP3    H171417   1.702   5.615   5.168 -0.2847  2.8254 -0.4768
16642TIP3    H271418   1.558   5.569   5.180  0.9342 -0.6306  1.5514
16643TIP3   OH271419   5.761   2.606  14.768 -0.0569  0.1940 -0.5334
16643TIP3    H171420   5.843   2.565  14.743  0.4061 -0.1536  1.4250
16643TIP3    H271421   5.786   2.670  14.835 -1.5990 -1.5548  1.8198
16644TIP3   OH271422   1.366   5.571   5.221 -0.0632  0.2835  0.3603
16644TIP3    H171423   1.312   5.627   5.277  1.1130  2.1059 -0.2708
16644TIP3    H271424   1.322   5.572   5.136 -0.8908 -1.0416  0.7665
16645TIP3   OH271425   2.902   0.320   3.371 -0.6771  0.2594 -0.4137
16645TIP3    H171426   2.973   0.380   3.395 -0.4780  0.8675 -2.4198
16645TIP3    H271427   2.838   0.329   3.442  2.0995 -1.7943  2.4484
16646TIP3   OH271428   3.209   4.212   0.646 -0.1901  0.1935  0.0299
16646TIP3    H171429   3.185   4.127   0.608  1.7691  1.7194 -4.9364
16646TIP3    H271430   3.126   4.260   0.649 -0.7753 -0.7797 -0.0810
16647TIP3   OH271431   1.152   6.705  14.206  0.6881 -0.9106  0.1998
16647TIP3    H171432   1.205   6.732  14.281  0.5087  2.2936 -0.7537
16647TIP3    H271433   1.144   6.784  14.153 -2.8854 -1.9864 -0.9896
16648TIP3   OH271434   4.859   1.458  16.674  0.0508 -0.2371  0.1462
16648TIP3    H171435   4.863   1.392  16.744  0.6906  0.1512  0.4787
16648TIP3    H271436   4.944   1.502  16.678  0.5653 -1.0080 -1.6691
16649TIP3   OH271437   4.361   4.848   4.203  0.0122  0.3733  0.6842
16649TIP3    H171438   4.321   4.761   4.203  0.3164  0.2296  0.1736
16649TIP3    H271439   4.288   4.908   4.187 -0.4280  0.3311  2.5162
16650TIP3   OH271440   3.977   2.313   0.196 -0.5321  0.6711 -0.0832
16650TIP3    H171441   4.034   2.387   0.177  0.8461 -0.0072  1.3070
16650TIP3    H271442   4.036   2.247   0.233 -1.5156 -1.5769 -2.4020
16651TIP3   OH271443   5.675   5.049  11.623 -0.1244  0.5538  0.2016
16651TIP3    H171444   5.598   5.053  11.681  0.3050  0.0093  0.8162
16651TIP3    H271445   5.645   5.089  11.541 -0.8013  1.1549  0.7296
16652TIP3   OH271446   3.249   4.505  15.637  0.0019 -0.3987 -0.7603
16652TIP3    H171447   3.334   4.461  15.635 -0.2914 -0.9607 -0.7949
16652TIP3    H271448   3.231   4.526  15.545  0.6109  0.7001 -0.6366
16653TIP3   OH271449   2.796   2.687   2.251  0.1622  0.3617 -0.0067
16653TIP3    H171450   2.798   2.601   2.294 -0.1161 -0.1934 -1.0695
16653TIP3    H271451   2.883   2.723   2.265 -0.1600  0.5369  1.6814
16654TIP3   OH271452   5.395   3.151   5.545 -0.5607  0.5017 -0.4338
16654TIP3    H171453   5.409   3.163   5.639 -0.0515  0.3994 -0.4972
16654TIP3    H271454   5.354   3.233   5.517  0.4549  1.0362 -0.3620
16655TIP3   OH271455   2.783   6.265   3.802  0.6839  0.3418 -0.0504
16655TIP3    H171456   2.806   6.218   3.882  1.7700  0.6295 -0.1885
16655TIP3    H271457   2.785   6.198   3.734 -3.1743 -0.5423  0.5895
16656TIP3   OH271458   6.449   4.291   5.688  0.4563 -0.2481 -0.0957
16656TIP3    H171459   6.470   4.219   5.746 -0.2854  1.0434  1.8212
16656TIP3    H271460   6.443   4.251   5.601  2.2654 -2.0813  0.5798
16657TIP3   OH271461   3.827   5.902   2.269  0.2086 -0.0254 -0.2097
16657TIP3    H171462   3.752   5.900   2.328  0.5147  0.2479  0.1924
16657TIP3    H271463   3.863   5.990   2.279  0.8398 -0.2959 -0.0778
16658TIP3   OH271464   3.770   3.978   5.249  0.5032  0.6231 -0.1384
16658TIP3    H171465   3.859   4.010   5.238  1.4755 -1.7761  0.4216
16658TIP3    H271466   3.752   3.929   5.169  0.2270 -0.1135  0.3677
16659TIP3   OH271467   3.004   0.147  14.292  0.2510 -0.2525  0.6893
16659TIP3    H171468   2.912   0.124  14.279  0.3785  0.0330 -0.8038
16659TIP3    H271469   3.047   0.116  14.213  1.3352  0.2228  1.0956
16660TIP3   OH271470   6.196   3.930   6.659 -0.7622 -0.0578 -0.3174
16660TIP3    H171471   6.110   3.971   6.671 -1.2410 -1.6606  1.9669
16660TIP3    H271472   6.256   3.988   6.706 -1.0727 -0.6195  0.7845
16661TIP3   OH271473   4.500   3.599   1.375 -0.2875  0.3593  0.0471
16661TIP3    H171474   4.478   3.680   1.421 -2.2431 -0.2594  0.2765
16661TIP3    H271475   4.520   3.627   1.285  0.8117  1.2744  0.5657
16662TIP3   OH271476   5.491   1.575  14.421 -0.0851 -0.5611 -0.1819
16662TIP3    H171477   5.568   1.577  14.364 -1.4298 -0.2524 -2.0448
16662TIP3    H271478   5.482   1.483  14.445  0.6198 -0.6672 -0.2904
16663TIP3   OH271479   3.780   0.556  15.074 -0.4870 -0.2407  0.3540
16663TIP3    H171480   3.823   0.470  15.066  2.4149  0.9604  2.2832
16663TIP3    H271481   3.716   0.557  15.002  0.2691 -3.5181 -0.4681
16664TIP3   OH271482   2.293   4.401  11.523  0.0069  0.1539 -0.4906
16664TIP3    H171483   2.217   4.460  11.525  0.2504  0.5363 -2.3777
16664TIP3    H271484   2.342   4.428  11.446  1.4665 -0.8677  0.0773
16665TIP3   OH271485   2.712   6.034   2.462  0.3355 -0.0074  0.2859
16665TIP3    H171486   2.734   5.970   2.530 -1.3179 -0.4366  0.4238
16665TIP3    H271487   2.617   6.032   2.456  0.3725  1.1165 -1.0051
16666TIP3   OH271488   5.240   5.979  12.738 -0.5318  0.3348 -0.4015
16666TIP3    H171489   5.154   5.954  12.771 -0.8953 -1.2374 -2.4345
16666TIP3    H271490   5.243   5.943  12.649  2.0163  0.8339 -0.5604
16667TIP3   OH271491   0.469   3.076  12.648  0.1620  0.1640  0.1465
16667TIP3    H171492   0.407   3.052  12.579 -2.3946 -0.0683  2.4391
16667TIP3    H271493   0.548   3.026  12.627 -1.5023 -2.0969 -1.0468
16668TIP3   OH271494   1.785   5.050  15.755 -0.0019 -0.6026  0.2061
16668TIP3    H171495   1.868   5.073  15.797  0.4333  0.7602 -1.3456
16668TIP3    H271496   1.802   4.963  15.717 -0.0884 -1.4090  1.9474
16669TIP3   OH271497   4.343   1.007  12.936 -0.0251  0.1640 -0.3597
16669TIP3    H171498   4.262   1.057  12.949  0.4102  1.1285 -1.3660
16669TIP3    H271499   4.321   0.919  12.966 -1.5133  0.3646 -0.8343
16670TIP3   OH271500   0.470   2.736   0.955 -0.0039 -0.2749  0.1678
16670TIP3    H171501   0.407   2.804   0.932 -0.5291 -0.7698  0.1506
16670TIP3    H271502   0.417   2.661   0.982  0.5794 -0.2440  1.4499
16671TIP3   OH271503   1.589   6.361   3.327  0.3991  0.3734 -0.2283
16671TIP3    H171504   1.572   6.302   3.401 -1.2232  0.5866 -0.4235
16671TIP3    H271505   1.660   6.418   3.358 -0.2318  0.4355  1.1527
16672TIP3   OH271506   4.293   3.980  16.276  0.0089 -0.0663  0.3108
16672TIP3    H171507   4.326   4.033  16.349 -1.4281 -0.1683  1.0354
16672TIP3    H271508   4.297   4.039  16.200  3.1469 -0.4843  0.0617
16673TIP3   OH271509   1.346   3.524  15.414  0.4570 -0.0174  0.6404
16673TIP3    H171510   1.293   3.594  15.376  0.6665  1.0767  2.2949
16673TIP3    H271511   1.428   3.526  15.364  0.0345  0.1809 -0.0548
16674TIP3   OH271512   0.828   2.351  12.497 -0.0142  0.2462  0.6499
16674TIP3    H171513   0.848   2.310  12.413 -1.9083  0.7162 -0.0697
16674TIP3    H271514   0.910   2.348  12.546  0.9023 -0.7641 -0.9085
16675TIP3   OH271515   0.723   6.664   4.473 -0.3021 -0.0712  0.1717
16675TIP3    H171516   0.641   6.628   4.508  0.9342 -1.9298  1.2220
16675TIP3    H271517   0.713   6.661   4.378 -0.4260 -2.7969  0.2373
16676TIP3   OH271518   2.861   3.546  13.776 -0.2410 -0.4785  0.4439
16676TIP3    H171519   2.871   3.472  13.837  2.4306 -1.1423 -0.7062
16676TIP3    H271520   2.951   3.568  13.751 -1.2822 -0.3432 -3.3859
16677TIP3   OH271521   4.790   6.685   5.614 -0.5165 -0.1935  0.2263
16677TIP3    H171522   4.880   6.671   5.644  0.2227  0.3894 -1.6935
16677TIP3    H271523   4.798   6.748   5.543 -2.3631 -0.7106 -0.4501
16678TIP3   OH271524   5.924   1.772  14.200 -0.0453  0.0175  0.5596
16678TIP3    H171525   5.995   1.756  14.138 -2.4273 -0.5548 -2.1649
16678TIP3    H271526   5.876   1.846  14.162 -2.5756 -1.4648  0.7265
16679TIP3   OH271527   3.562   6.470  12.819  0.2315 -0.1798  0.1528
16679TIP3    H171528   3.568   6.561  12.787 -0.0510 -0.0889  0.3623
16679TIP3    H271529   3.635   6.463  12.881  0.2359 -0.0853  0.1598
16680TIP3   OH271530   0.407   1.688  11.186 -1.1519  0.3609  0.1485
16680TIP3    H171531   0.324   1.649  11.214 -1.5962  0.2844 -1.2040
16680TIP3    H271532   0.395   1.782  11.197 -1.7548  0.4151 -0.8488
16681TIP3   OH271533   2.160   3.633  16.308 -0.2144  0.7332  0.4758
16681TIP3    H171534   2.189   3.724  16.307  1.6008  0.2065  2.1037
16681TIP3    H271535   2.187   3.600  16.394 -0.0814 -1.5971 -0.4156
16682TIP3   OH271536   6.300   4.829  13.619 -0.2151  0.4505 -0.3239
16682TIP3    H171537   6.385   4.850  13.581  1.5595 -3.5039  1.2220
16682TIP3    H271538   6.271   4.752  13.571 -1.5118 -0.0166  1.1828
16683TIP3   OH271539   3.765   3.051  13.896 -0.8485  0.9333  0.0100
16683TIP3    H171540   3.828   2.994  13.852 -0.5656  0.6741  0.7389
16683TIP3    H271541   3.711   3.086  13.825 -1.1303 -0.3686 -0.4394
16684TIP3   OH271542   5.007   3.298  13.676 -0.1173  0.2602  0.3474
16684TIP3    H171543   5.042   3.363  13.615 -0.1195  1.9365  2.0822
16684TIP3    H271544   4.933   3.258  13.629 -2.7841  4.4300  0.6947
16685TIP3   OH271545   3.030   1.079   3.761  0.8325 -0.8557 -0.7902
16685TIP3    H171546   2.975   1.006   3.731 -2.0082  0.6963  0.4463
16685TIP3    H271547   3.091   1.039   3.823 -0.9001 -2.1584  0.1318
16686TIP3   OH271548   3.118   2.717   2.821  0.4570  0.2737  0.3792
16686TIP3    H171549   3.140   2.631   2.785  0.5983  1.0334 -1.4570
16686TIP3    H271550   3.048   2.701   2.884 -0.2587 -1.0542 -0.7325
16687TIP3   OH271551   6.120   4.693  11.329  0.3755 -0.0963 -0.4866
16687TIP3    H171552   6.179   4.677  11.255 -0.5103  0.3342 -1.2828
16687TIP3    H271553   6.055   4.754  11.296 -0.1644 -0.0838  0.5802
16688TIP3   OH271554   2.333   6.643  15.406  0.3866  0.0358 -0.2565
16688TIP3    H171555   2.341   6.734  15.436 -0.4684 -0.3403  1.1641
16688TIP3    H271556   2.395   6.636  15.333  1.9618  1.1933  0.9450
16689TIP3   OH271557   4.791   3.005  12.819  0.5830  0.0561  0.5187
16689TIP3    H171558   4.869   2.949  12.816 -0.5107 -1.4963  0.1901
16689TIP3    H271559   4.752   2.995  12.732  0.9467  2.2056  0.0847
16690TIP3   OH271560   2.092   4.486  14.143  0.3856  0.0276 -0.1006
16690TIP3    H171561   2.044   4.554  14.096  0.5167 -1.0473 -1.8309
16690TIP3    H271562   2.082   4.408  14.088 -0.2719 -1.5123  2.1295
16691TIP3   OH271563   0.437   5.211   1.832 -0.4201  0.3181 -0.0848
16691TIP3    H171564   0.520   5.258   1.819 -0.6634  0.7155 -0.1909
16691TIP3    H271565   0.431   5.200   1.927 -0.6467  1.0033 -0.0233
16692TIP3   OH271566   2.035   6.031   2.140 -0.6737 -0.5187  0.1865
16692TIP3    H171567   1.948   5.997   2.120 -0.4160 -0.6952 -0.6777
16692TIP3    H271568   2.064   5.982   2.217 -1.9341  0.5876  1.4050
16693TIP3   OH271569   3.408   5.792  16.405 -0.4545 -0.7835  0.3331
16693TIP3    H171570   3.489   5.774  16.452  0.6874 -0.9248 -1.6274
16693TIP3    H271571   3.410   5.733  16.330 -1.5437  0.4001 -0.6570
16694TIP3   OH271572   2.582   1.865   5.822 -0.7574  0.4885  0.1191
16694TIP3    H171573   2.653   1.802   5.807 -0.4517  1.1893 -1.5073
16694TIP3    H271574   2.548   1.885   5.735 -2.7788  0.3943  0.8511
16695TIP3   OH271575   0.299   2.886   5.877 -0.0993 -0.4757  0.2841
16695TIP3    H171576   0.334   2.957   5.932 -0.3731 -0.9015  1.0067
16695TIP3    H271577   0.287   2.813   5.936 -1.2332 -0.6678 -0.1700
16696TIP3   OH271578   0.023   6.247  10.749 -0.3866  0.4047  0.0983
16696TIP3    H171579   0.022   6.327  10.696  0.0509 -0.5674 -1.3896
16696TIP3    H271580  -0.042   6.190  10.708 -0.2882 -0.2304  0.8145
16697TIP3   OH271581   4.392   1.314  15.769  0.1898  0.0639 -0.2073
16697TIP3    H171582   4.416   1.253  15.839  1.0715  0.5401 -0.0947
16697TIP3    H271583   4.390   1.400  15.811 -0.6053  0.1793 -0.4705
16698TIP3   OH271584   5.506   6.022   4.678  0.2520 -0.1192 -0.4571
16698TIP3    H171585   5.507   6.081   4.754 -0.2244  0.2736 -0.7501
16698TIP3    H271586   5.475   5.939   4.713  1.7263 -0.4361  0.1296
16699TIP3   OH271587   6.273   1.280  13.398 -0.7462  0.1459  0.1041
16699TIP3    H171588   6.189   1.296  13.442 -1.9336  0.2221 -2.0975
16699TIP3    H271589   6.277   1.184  13.388 -0.9333  0.1867 -0.4167
16700TIP3   OH271590   3.018   5.544   5.091 -0.2523  0.1923 -0.5237
16700TIP3    H171591   3.113   5.535   5.100  0.0159  1.7097 -1.5624
16700TIP3    H271592   3.005   5.567   4.999 -1.7054 -0.8125 -0.5844
16701TIP3   OH271593   2.995   4.756   1.379 -0.6510  0.3139  0.5726
16701TIP3    H171594   3.032   4.843   1.391  0.2761 -0.0291  0.2881
16701TIP3    H271595   2.956   4.758   1.292  1.9975 -0.4523 -0.6752
16702TIP3   OH271596   4.142   5.166  12.314  0.0156  0.0577 -0.4828
16702TIP3    H171597   4.103   5.213  12.387 -0.0692  1.9670 -1.7115
16702TIP3    H271598   4.135   5.074  12.338  0.9005  0.6777  2.3565
16703TIP3   OH271599   2.027   6.651  14.379  0.4382  0.8596 -0.6968
16703TIP3    H171600   1.946   6.619  14.418 -1.2928  3.5954 -1.9396
16703TIP3    H271601   2.056   6.721  14.437  1.3244  0.5971 -0.8234
16704TIP3   OH271602   5.893   5.335  12.807 -0.1324  0.1084  0.5379
16704TIP3    H171603   5.929   5.249  12.786 -0.7098 -0.5349  2.1201
16704TIP3    H271604   5.918   5.350  12.898 -2.1647  0.5091  1.0549
16705TIP3   OH271605   5.161   3.282   1.306 -0.0587  0.5820  0.1182
16705TIP3    H171606   5.242   3.252   1.265  0.4699  0.7470  1.0362
16705TIP3    H271607   5.140   3.364   1.260  0.1265  0.3769 -0.3346
16706TIP3   OH271608   5.514   1.001  17.112  0.0112 -0.0397  0.6543
16706TIP3    H171609   5.463   0.981  17.190 -0.2790  0.7149  0.6573
16706TIP3    H271610   5.474   0.948  17.043 -1.0254  0.8524  0.5724
16707TIP3   OH271611   6.311   2.191   6.244 -0.3041 -0.1194  0.2922
16707TIP3    H171612   6.354   2.195   6.159  1.7767 -0.1509  1.3098
16707TIP3    H271613   6.279   2.101   6.251  1.0483 -0.6136  0.2484
16708TIP3   OH271614   4.881   0.406   2.056 -0.0784  0.1217  0.7779
16708TIP3    H171615   4.808   0.362   2.013 -0.5986  1.1099  0.6473
16708TIP3    H271616   4.874   0.497   2.029  0.1646  0.5630  2.1625
16709TIP3   OH271617   5.451   0.447   4.826  0.3942 -0.0652  0.5213
16709TIP3    H171618   5.456   0.499   4.746 -0.8084 -0.2387  0.3179
16709TIP3    H271619   5.435   0.358   4.795  1.6209 -0.4216  0.8979
16710TIP3   OH271620   0.740   6.458   3.607 -0.1299  0.1698  0.2661
16710TIP3    H171621   0.819   6.412   3.636  1.2386  1.2203 -1.6740
16710TIP3    H271622   0.714   6.512   3.682  1.6301  0.6311  0.5608
16711TIP3   OH271623   1.953   6.105  16.850  0.1290  0.2722 -0.3650
16711TIP3    H171624   1.940   6.052  16.771  0.8489  0.4780 -0.6199
16711TIP3    H271625   1.918   6.191  16.827 -2.9598 -0.5905  0.7284
16712TIP3   OH271626   5.253   6.045  15.782  0.2808 -0.4399 -0.5764
16712TIP3    H171627   5.338   6.007  15.759  1.2082  1.2184  0.0740
16712TIP3    H271628   5.236   6.111  15.715 -0.7157 -1.0505 -0.9501
16713TIP3   OH271629   6.259   2.258  16.535 -0.3935 -0.3516 -0.1559
16713TIP3    H171630   6.228   2.217  16.454 -1.6586 -0.6059  0.4523
16713TIP3    H271631   6.206   2.337  16.543 -0.6496 -0.6143  0.7102
16714TIP3   OH271632   2.662   3.431   3.753  0.0788 -0.0381  0.1523
16714TIP3    H171633   2.698   3.347   3.781 -0.1374 -0.6229 -1.2790
16714TIP3    H271634   2.670   3.488   3.830  1.6910 -0.9049  0.6439
16715TIP3   OH271635   5.935   4.143   2.432  0.5964  0.2293 -0.2722
16715TIP3    H171636   5.899   4.076   2.489  0.8522  0.5749  0.3046
16715TIP3    H271637   5.862   4.168   2.375  0.3220 -0.0842 -0.0577
16716TIP3   OH271638   4.475   1.618  12.596  0.4082  0.0154 -0.5076
16716TIP3    H171639   4.390   1.578  12.613  1.5037 -1.8797  0.6987
16716TIP3    H271640   4.538   1.546  12.606  2.3033  1.7206  0.1642
16717TIP3   OH271641   0.883   2.389  11.671 -0.3631  0.4994  0.3354
16717TIP3    H171642   0.838   2.465  11.633 -0.5283  2.4417  4.2189
16717TIP3    H271643   0.831   2.314  11.642 -1.7852  2.0779 -1.3448
16718TIP3   OH271644   1.776   0.231  12.174  0.4748 -0.0720  0.4794
16718TIP3    H171645   1.726   0.177  12.236 -1.7395  0.7188 -0.5473
16718TIP3    H271646   1.729   0.221  12.091  1.0262  2.0505 -0.1193
16719TIP3   OH271647   4.287   6.314   1.955  0.4260 -0.0535 -0.0477
16719TIP3    H171648   4.224   6.328   2.025  0.1692 -0.0563 -0.2777
16719TIP3    H271649   4.340   6.240   1.984 -1.2600 -1.6567 -0.9617
16720TIP3   OH271650   5.720   2.965  11.528  0.1256 -0.5908  0.3926
16720TIP3    H171651   5.687   2.953  11.617 -0.3576  0.1478  0.3201
16720TIP3    H271652   5.790   3.030  11.537  0.2938 -0.7533  0.2714
16721TIP3   OH271653   3.543   1.616  14.610 -0.1311 -0.0716  0.2287
16721TIP3    H171654   3.616   1.605  14.671 -0.7394 -0.1602  0.9468
16721TIP3    H271655   3.471   1.566  14.650 -0.6637  0.2427 -0.3308
16722TIP3   OH271656   6.607   1.644   1.570 -0.0611 -0.5956 -0.0329
16722TIP3    H171657   6.548   1.712   1.538 -0.3184 -0.8434 -0.0930
16722TIP3    H271658   6.683   1.649   1.512  0.8237  1.0018  1.2430
16723TIP3   OH271659   1.838   0.536   6.196 -0.1359  0.6569  0.3640
16723TIP3    H171660   1.892   0.580   6.130 -1.4660 -0.3922 -1.4943
16723TIP3    H271661   1.755   0.584   6.194 -1.5929 -1.8269 -1.6657
16724TIP3   OH271662   3.846   3.164  16.207 -0.3071 -0.4254 -0.3556
16724TIP3    H171663   3.778   3.159  16.141 -0.7557  0.9220 -0.0116
16724TIP3    H271664   3.918   3.209  16.164 -0.0645 -0.8080 -0.3559
16725TIP3   OH271665   4.403   6.315  14.173 -0.3432  0.5955 -0.2456
16725TIP3    H171666   4.484   6.349  14.135 -0.0093  1.7240  1.3950
16725TIP3    H271667   4.430   6.276  14.256 -0.8115 -3.3396 -1.8557
16726TIP3   OH271668   6.479   6.105   3.225 -0.2697  0.0235 -0.2164
16726TIP3    H171669   6.463   6.199   3.231 -0.2238 -0.0725  1.6031
16726TIP3    H271670   6.457   6.071   3.312 -0.2865 -1.6502 -0.8579
16727TIP3   OH271671   2.238   2.363   0.810 -0.1869  0.1780 -0.1550
16727TIP3    H171672   2.310   2.418   0.842  0.5948 -1.1838  0.4338
16727TIP3    H271673   2.169   2.426   0.787  0.9972  1.4628 -0.2579
16728TIP3   OH271674   0.527   6.483  11.342 -0.3235 -0.0369 -0.4170
16728TIP3    H171675   0.475   6.560  11.366  0.3772  0.2007  0.3737
16728TIP3    H271676   0.591   6.516  11.279 -1.0878 -0.3166 -1.3410
16729TIP3   OH271677   5.253   6.007   4.586 -0.4851 -0.0206  0.0672
16729TIP3    H171678   5.344   6.016   4.612 -0.2046  2.1857 -1.5028
16729TIP3    H271679   5.205   6.001   4.668  1.1097 -1.7195  0.8937
16730TIP3   OH271680   4.499   0.931  12.706  0.1589 -0.1232  0.2174
16730TIP3    H171681   4.455   0.945  12.790  0.6815 -1.6349  0.7451
16730TIP3    H271682   4.435   0.884  12.653  0.8674 -1.7124  0.7515
16731TIP3   OH271683   4.976   2.181   4.640 -0.0335  0.3118  0.1140
16731TIP3    H171684   4.951   2.150   4.727  0.0529 -1.1198 -0.3526
16731TIP3    H271685   5.069   2.161   4.633 -0.2721 -0.5864 -0.7013
16732TIP3   OH271686   3.873   4.676  15.790  0.0034  0.1738 -0.2540
16732TIP3    H171687   3.926   4.735  15.738  0.7879 -0.0637  0.2732
16732TIP3    H271688   3.798   4.655  15.734  1.1440 -0.5735 -1.5071
16733TIP3   OH271689   3.971   4.319  10.948 -0.3270 -0.4374 -0.0139
16733TIP3    H171690   3.930   4.259  10.886 -0.6210 -0.7041  0.4296
16733TIP3    H271691   3.947   4.407  10.917 -0.5853 -0.5752 -0.1996
16734TIP3   OH271692   2.090   0.853  15.723  0.2534  0.4083  0.3763
16734TIP3    H171693   2.111   0.914  15.653 -1.8069  0.0110 -0.6175
16734TIP3    H271694   2.125   0.894  15.802  1.6874  1.3417 -0.7292
16735TIP3   OH271695   1.350   5.572  15.426 -0.2417  0.5593 -0.3586
16735TIP3    H171696   1.262   5.534  15.430  0.1339 -0.5526 -2.2617
16735TIP3    H271697   1.389   5.535  15.348  2.2705  0.3502  0.9387
16736TIP3   OH271698   2.310   5.277  14.487 -0.1509  0.0086 -0.0868
16736TIP3    H171699   2.372   5.250  14.555  0.2367  2.4379  0.5681
16736TIP3    H271700   2.341   5.233  14.408 -1.2693 -3.7945  1.4489
16737TIP3   OH271701   5.428   4.194   0.253  0.1013 -0.2529 -0.1117
16737TIP3    H171702   5.423   4.101   0.278 -0.3647 -0.1295  0.2823
16737TIP3    H271703   5.337   4.218   0.235  0.4266 -0.3220 -1.9260
16738TIP3   OH271704   3.458   0.295   3.244 -0.1372 -0.1843  0.3926
16738TIP3    H171705   3.434   0.301   3.152  0.4162 -0.6417  0.2169
16738TIP3    H271706   3.547   0.259   3.244  0.1543  0.5327  1.0749
16739TIP3   OH271707   1.428   6.366   6.055 -0.1357  0.2048 -0.2463
16739TIP3    H171708   1.490   6.440   6.055  0.3465 -0.1950 -0.1876
16739TIP3    H271709   1.404   6.355   6.147 -1.1434  1.0584 -0.3965
16740TIP3   OH271710   5.975   5.354   0.577  0.2081  0.1690  0.2621
16740TIP3    H171711   6.015   5.327   0.659  1.6031 -1.0002 -0.7742
16740TIP3    H271712   6.046   5.394   0.527 -0.2642 -0.4592 -0.9581
16741TIP3   OH271713   4.307   1.477   3.276 -0.1867 -0.4022  0.2494
16741TIP3    H171714   4.399   1.489   3.299 -0.2970  0.6512  0.1352
16741TIP3    H271715   4.308   1.453   3.183 -0.1716  2.1076 -0.4399
16742TIP3   OH271716   1.976   2.590  12.180  0.6157  0.2789  0.5164
16742TIP3    H171717   2.021   2.532  12.241  0.2605 -0.2452  0.2882
16742TIP3    H271718   1.986   2.677  12.217 -0.3534 -0.1431  1.7653
16743TIP3   OH271719   4.414   6.538   3.769  0.2453  0.2321 -0.6260
16743TIP3    H171720   4.468   6.532   3.690 -0.6564  2.1439 -1.4114
16743TIP3    H271721   4.477   6.537   3.841  1.1197 -0.7254 -1.3844
16744TIP3   OH271722   6.100   4.715  12.989  0.4312  0.1431 -0.1350
16744TIP3    H171723   6.150   4.786  12.949  0.2742  0.0551 -0.4891
16744TIP3    H271724   6.012   4.750  13.000  0.4511  0.1373  0.0597
16745TIP3   OH271725   4.009   0.223  13.937  0.5470  0.0716 -0.1805
16745TIP3    H171726   4.073   0.264  13.996  0.9392  0.0029 -0.5579
16745TIP3    H271727   4.025   0.264  13.852 -0.1053  0.2636 -0.2109
16746TIP3   OH271728   6.243   3.936  11.317 -0.2272  0.0947 -0.0386
16746TIP3    H171729   6.323   3.885  11.330 -0.7512 -0.5440  0.8215
16746TIP3    H271730   6.174   3.880  11.353 -0.8790  1.2131  0.4868
16747TIP3   OH271731   6.642   0.451  10.784 -0.8259 -0.1808 -0.2187
16747TIP3    H171732   6.648   0.395  10.707  0.4744  2.1712 -1.9151
16747TIP3    H271733   6.555   0.491  10.778 -0.1493  1.1696 -1.3552
16748TIP3   OH271734   3.793   3.450  12.056  0.6705 -0.4081 -0.1311
16748TIP3    H171735   3.874   3.420  12.014  1.0341 -0.0984  0.3433
16748TIP3    H271736   3.821   3.484  12.141  0.2147  0.8563 -0.4663
16749TIP3   OH271737   2.917   5.965   4.733  0.4528  0.0758 -0.4353
16749TIP3    H171738   2.959   5.976   4.648 -1.0320 -0.7860 -1.3111
16749TIP3    H271739   2.825   5.989   4.717 -0.2073 -1.7910  0.4952
16750TIP3   OH271740   6.792   3.398   0.103 -0.5665 -0.1438 -0.1375
16750TIP3    H171741   6.778   3.310   0.067 -0.2061  0.1186 -0.9476
16750TIP3    H271742   6.876   3.392   0.149 -1.4567 -0.7150  1.4469
16751TIP3   OH271743   6.089   0.451   3.937 -0.2142 -0.0397  0.3097
16751TIP3    H171744   6.050   0.420   4.019  1.4777  0.0309  1.1494
16751TIP3    H271745   6.125   0.537   3.958  1.3587 -0.5707 -0.1471
16752TIP3   OH271746   0.832   4.386  15.164  0.3039 -0.0764 -0.2133
16752TIP3    H171747   0.804   4.339  15.086 -0.3416 -0.4849  0.2565
16752TIP3    H271748   0.860   4.317  15.225  0.8246  0.2386 -0.0907
16753TIP3   OH271749   5.426   4.954  17.097  0.4716  0.1084 -0.0662
16753TIP3    H171750   5.514   4.968  17.062  0.4054 -0.2360 -0.3772
16753TIP3    H271751   5.381   4.905  17.028  0.5945 -1.2988  0.8363
16754TIP3   OH271752   0.287   1.048  14.096 -0.2791 -0.3764  0.2369
16754TIP3    H171753   0.317   1.106  14.166 -0.9247  0.4757 -0.1798
16754TIP3    H271754   0.366   1.003  14.066  0.0614 -0.4610  1.2489
16755TIP3   OH271755   1.913   0.013   5.491  0.1176  0.4730  0.1119
16755TIP3    H171756   1.951   0.013   5.579 -0.3276  0.1870  0.3049
16755TIP3    H271757   1.903  -0.079   5.469  1.4967  0.5236 -0.7983
16756TIP3   OH271758   5.527   1.223  11.215  0.5912 -0.1386  0.5901
16756TIP3    H171759   5.613   1.257  11.242  1.7327 -2.4780  0.0599
16756TIP3    H271760   5.536   1.128  11.223 -1.4424 -0.4821 -1.0105
16757TIP3   OH271761   0.083   5.255  15.895  0.0977 -0.1013 -0.3188
16757TIP3    H171762   0.002   5.214  15.864 -0.0515  0.1612 -0.2900
16757TIP3    H271763   0.142   5.183  15.914 -0.1099 -0.2943 -0.4044
16758TIP3   OH271764   0.101   0.250  14.021  0.2499 -0.3603  0.1268
16758TIP3    H171765   0.024   0.302  14.043 -0.1862 -0.1961 -1.7040
16758TIP3    H271766   0.175   0.305  14.045 -0.1963  1.3849 -2.2603
16759TIP3   OH271767   1.676   5.651   2.196  0.4043 -0.0559  0.0469
16759TIP3    H171768   1.619   5.702   2.138  0.0931 -0.4751 -0.0202
16759TIP3    H271769   1.619   5.624   2.268  0.7438  0.2996  0.4520
16760TIP3   OH271770   3.627   4.787   1.254 -0.0672  0.4462  0.0817
16760TIP3    H171771   3.622   4.769   1.160 -0.6939  3.0661 -0.4318
16760TIP3    H271772   3.720   4.797   1.271 -0.0858  2.4770 -0.8147
16761TIP3   OH271773   3.544   0.865  15.184  0.3367  0.6016  0.0447
16761TIP3    H171774   3.489   0.927  15.231  2.3978  1.1596  1.8312
16761TIP3    H271775   3.550   0.901  15.095 -0.8216  1.4129  0.2923
16762TIP3   OH271776   6.501   2.380   0.078  0.2043  0.1072  0.3994
16762TIP3    H171777   6.492   2.441   0.151  1.6223  2.1088 -1.0469
16762TIP3    H271778   6.592   2.387   0.051  0.1942 -2.0958 -0.3200
16763TIP3   OH271779   5.894   3.902  11.430  0.1213  0.2864 -0.0483
16763TIP3    H171780   5.847   3.879  11.510  1.8606  0.0011  0.9278
16763TIP3    H271781   5.963   3.836  11.423  0.7247  1.0186 -1.1353
16764TIP3   OH271782   3.036   1.545  10.894 -0.0028  0.2315 -0.1991
16764TIP3    H171783   3.037   1.612  10.824  0.5397  0.1508 -0.2702
16764TIP3    H271784   3.103   1.574  10.956 -0.4506  0.2758  0.2680
16765TIP3   OH271785   1.624   2.307  13.131 -0.2143 -0.5683 -0.2631
16765TIP3    H171786   1.583   2.386  13.165  0.0459 -0.0183 -1.1956
16765TIP3    H271787   1.640   2.252  13.208 -5.5254 -2.1540 -0.1336
16766TIP3   OH271788   5.753   2.173  17.283 -0.6589 -0.0649 -0.1911
16766TIP3    H171789   5.672   2.209  17.318 -1.2253 -0.7764 -0.7647
16766TIP3    H271790   5.768   2.221  17.202  0.1240  0.8857  0.5069
16767TIP3   OH271791   5.068   5.040  16.423  0.1691  0.0519  0.0516
16767TIP3    H171792   5.054   5.107  16.490  0.0111 -0.0745  0.1472
16767TIP3    H271793   5.155   5.058  16.389  0.9379 -0.9043  1.4665
16768TIP3   OH271794   2.760   6.675   1.594 -0.0330 -0.3971 -0.0880
16768TIP3    H171795   2.684   6.617   1.605  1.4798 -2.3322  0.5598
16768TIP3    H271796   2.789   6.660   1.504 -0.7291  0.7428 -0.5070
16769TIP3   OH271797   1.805   1.915  13.353 -0.1879 -0.1988 -0.0955
16769TIP3    H171798   1.757   1.862  13.289 -1.3395  1.5527 -0.7244
16769TIP3    H271799   1.789   1.871  13.436 -1.4691 -0.6180 -0.5472
16770TIP3   OH271800   0.991   0.770  13.626  0.2344  0.2333 -0.4251
16770TIP3    H171801   1.006   0.865  13.626 -0.1204  0.3062  1.6291
16770TIP3    H271802   1.077   0.732  13.610  0.8696  0.8558  1.3758
16771TIP3   OH271803   4.685   1.631   4.175 -0.3724 -0.0048 -0.4990
16771TIP3    H171804   4.773   1.645   4.211 -0.7394 -0.1137  0.4517
16771TIP3    H271805   4.678   1.537   4.163  0.0491  0.0999 -1.6430
16772TIP3   OH271806   5.795   3.980  11.750  0.1244  0.5191  0.0499
16772TIP3    H171807   5.733   4.052  11.762  1.4842  1.6076  0.6076
16772TIP3    H271808   5.880   4.023  11.741  1.0168 -1.0463  0.9247
16773TIP3   OH271809   1.980   2.760   1.209  0.8035 -0.0656  0.2289
16773TIP3    H171810   1.973   2.770   1.304 -1.7093 -1.1165  0.1929
16773TIP3    H271811   2.013   2.844   1.179 -0.5748  1.0893  1.8284
16774TIP3   OH271812   0.658   2.675  14.099 -0.3893 -0.1336  0.1502
16774TIP3    H171813   0.671   2.745  14.035 -0.7262  0.8302  1.1301
16774TIP3    H271814   0.593   2.617  14.058 -0.6200  0.4821 -0.3615
16775TIP3   OH271815   5.430   1.449  16.285  0.1508  0.1958  0.8310
16775TIP3    H171816   5.355   1.502  16.311 -0.4380  0.2833 -0.9779
16775TIP3    H271817   5.395   1.360  16.280 -0.0507  0.3624 -0.8463
16776TIP3   OH271818   1.933   2.890  13.120 -0.0611 -0.4602 -0.1349
16776TIP3    H171819   1.986   2.915  13.044 -0.0226 -0.3136 -0.0597
16776TIP3    H271820   1.910   2.799  13.104  0.1385 -0.4975 -0.2121
16777TIP3   OH271821   3.766   3.701   2.608  0.6845  0.0275 -0.3764
16777TIP3    H171822   3.846   3.697   2.661  0.4792  0.4517 -0.0283
16777TIP3    H271823   3.729   3.787   2.628  1.0908  0.5754 -1.9279
16778TIP3   OH271824   4.480   4.644   5.726 -0.4877  0.2729  0.3674
16778TIP3    H171825   4.496   4.638   5.632 -1.3590 -0.5547  0.2687
16778TIP3    H271826   4.526   4.569   5.763  0.0911  0.7561  0.6388
16779TIP3   OH271827   3.102   6.323  12.013 -0.9987  0.2169  0.2660
16779TIP3    H171828   3.047   6.332  11.935  0.1315  0.5394 -0.5148
16779TIP3    H271829   3.189   6.349  11.983 -0.3703 -0.5589  1.4045
16780TIP3   OH271830   5.718   1.106  13.823 -0.0200 -0.0630  0.2167
16780TIP3    H171831   5.805   1.106  13.863  0.2800 -0.0761 -0.4296
16780TIP3    H271832   5.670   1.037  13.870  0.0767  0.4596  1.0852
16781TIP3   OH271833   2.210   5.372  15.809 -0.0035 -0.1501  0.3493
16781TIP3    H171834   2.247   5.355  15.896  0.7562 -0.8955 -0.1082
16781TIP3    H271835   2.143   5.305  15.798 -0.5283  0.3217  0.5956
16782TIP3   OH271836   5.337   2.583  16.306  0.1918  0.0036 -0.5646
16782TIP3    H171837   5.281   2.591  16.229  1.7924  1.4058 -1.6170
16782TIP3    H271838   5.317   2.661  16.358  0.4874  0.0313 -0.4903
16783TIP3   OH271839   4.447   4.596  11.199  0.1104  0.1034  0.6570
16783TIP3    H171840   4.489   4.682  11.203 -0.3346  0.5148 -2.1899
16783TIP3    H271841   4.355   4.615  11.181 -0.0963 -0.9539  0.5621
16784TIP3   OH271842   1.748   0.082   4.246 -0.0005  0.0309 -0.2681
16784TIP3    H171843   1.694   0.120   4.176  1.6392  1.6723 -0.6755
16784TIP3    H271844   1.713   0.119   4.327  0.8471  1.5261 -0.5766
16785TIP3   OH271845   6.372   5.217   6.755  0.2275 -0.0598  0.4160
16785TIP3    H171846   6.291   5.261   6.781 -0.1524  0.0821 -0.9676
16785TIP3    H271847   6.344   5.146   6.698  1.0276 -0.4323  0.4768
16786TIP3   OH271848   6.771   3.504  11.395  1.0592 -0.1106  0.4691
16786TIP3    H171849   6.810   3.552  11.468 -0.7265  2.6820 -0.3559
16786TIP3    H271850   6.795   3.554  11.317 -0.8019 -0.5575 -0.4109
16787TIP3   OH271851   6.395   1.389   1.998 -0.0662 -0.4170 -0.2263
16787TIP3    H171852   6.304   1.418   1.990 -0.0545 -0.3589 -0.1508
16787TIP3    H271853   6.421   1.364   1.909 -0.6185 -1.8029 -0.0193
16788TIP3   OH271854   6.590   3.541   0.210 -0.7276 -0.8367  0.0384
16788TIP3    H171855   6.652   3.490   0.159 -1.9581 -1.0321 -1.3243
16788TIP3    H271856   6.602   3.512   0.300  0.9940 -1.0127 -0.2306
16789TIP3   OH271857   1.627   5.671   0.799  0.2584 -0.6260  0.6882
16789TIP3    H171858   1.651   5.711   0.883  1.2569  0.7563 -0.2286
16789TIP3    H271859   1.532   5.684   0.793  0.6472  2.3181  0.0921
16790TIP3   OH271860   2.824   0.267  11.489 -0.1654  0.1414 -0.4488
16790TIP3    H171861   2.841   0.345  11.437  1.1845  0.2483  0.1200
16790TIP3    H271862   2.740   0.234  11.458  0.6822  0.1158 -2.8132
16791TIP3   OH271863   3.756   0.584   0.984 -0.3826 -0.3508  0.1000
16791TIP3    H171864   3.851   0.575   0.989 -0.2836  1.0292  1.2965
16791TIP3    H271865   3.726   0.562   1.072 -1.1477 -0.6023 -0.2273
16792TIP3   OH271866   0.030   6.527  14.083 -0.5481 -0.2109  0.3209
16792TIP3    H171867   0.071   6.603  14.042 -0.1313 -0.2501  0.6589
16792TIP3    H271868   0.090   6.455  14.064 -0.3255 -0.2213  1.0239
16793TIP3   OH271869   0.023   3.322  13.232 -0.1597  0.6648  0.1901
16793TIP3    H171870   0.006   3.415  13.221 -0.0003  0.5057 -1.4788
16793TIP3    H271871   0.117   3.312  13.216 -0.6722 -0.1760 -2.5720
16794TIP3   OH271872   4.282   3.308   4.844 -0.0759  0.2787 -0.4204
16794TIP3    H171873   4.268   3.215   4.827 -1.0900  0.7253 -2.1301
16794TIP3    H271874   4.236   3.325   4.926 -1.2573 -0.3836 -0.9391
16795TIP3   OH271875   6.448   0.233  14.026  0.2550 -0.1753  0.1113
16795TIP3    H171876   6.428   0.140  14.019  1.2398 -0.5414  1.8921
16795TIP3    H271877   6.403   0.273  13.952 -0.1578 -2.0674 -0.6787
16796TIP3   OH271878   2.148   1.475  17.031 -0.0282 -0.3574 -0.3810
16796TIP3    H171879   2.134   1.430  16.948 -0.6609 -0.2477 -0.3381
16796TIP3    H271880   2.195   1.555  17.007  0.5833 -0.7545 -0.5256
16797TIP3   OH271881   2.775   4.705   1.774  0.1516  0.0364  0.0540
16797TIP3    H171882   2.742   4.709   1.684 -0.7908  2.0459  0.4534
16797TIP3    H271883   2.705   4.743   1.827  0.5956 -1.3479  1.6822
16798TIP3   OH271884   3.840   4.901   4.226  0.3828  0.1279  0.2360
16798TIP3    H171885   3.784   4.824   4.227 -0.8182  0.9511 -1.2581
16798TIP3    H271886   3.790   4.967   4.178  2.4140  1.0489 -0.6999
16799TIP3   OH271887   2.877   3.232  17.210 -0.3054 -0.1030 -0.1428
16799TIP3    H171888   2.880   3.328  17.202 -0.2296 -0.0003  1.0878
16799TIP3    H271889   2.786   3.210  17.188 -0.5178  0.3217  0.2851
16800TIP3   OH271890   6.318   1.688   5.321 -0.0972  0.2068  0.7678
16800TIP3    H171891   6.274   1.772   5.305  0.2523  0.0021 -1.5022
16800TIP3    H271892   6.411   1.708   5.316 -0.0205 -0.4968 -0.9657
16801TIP3   OH271893   2.601   5.403   1.407  0.0392 -0.2146  0.1330
16801TIP3    H171894   2.567   5.322   1.446  0.7630 -0.2782  0.6405
16801TIP3    H271895   2.524   5.458   1.396 -0.1394 -0.0871  1.9172
16802TIP3   OH271896   4.737   4.326   3.565  0.1860  0.1094  0.3988
16802TIP3    H171897   4.787   4.301   3.643 -0.9487 -0.0211  1.0932
16802TIP3    H271898   4.765   4.415   3.545  0.2804  0.2415  1.1235
16803TIP3   OH271899   6.166   5.020   1.217 -0.3534  0.3063 -0.3925
16803TIP3    H171900   6.143   4.927   1.213  2.8314 -0.5443 -0.2906
16803TIP3    H271901   6.172   5.039   1.311 -1.9973  0.9086 -0.3928
16804TIP3   OH271902   4.628   4.418  14.515  1.1688  0.2553 -0.0194
16804TIP3    H171903   4.586   4.473  14.449  1.0168  0.9022  0.6077
16804TIP3    H271904   4.718   4.407  14.483  0.6572 -0.7646 -1.1343
16805TIP3   OH271905   3.738   0.282   4.991  0.5841  0.1471  0.7582
16805TIP3    H171906   3.663   0.320   4.945  0.4288 -1.6118 -0.4624
16805TIP3    H271907   3.713   0.191   5.006  1.9620 -0.1156  1.4897
16806TIP3   OH271908   2.279   4.967  14.575  0.0831  0.3138  0.0674
16806TIP3    H171909   2.284   4.879  14.612  2.1613  0.7637  0.9074
16806TIP3    H271910   2.190   4.996  14.595 -0.4629 -1.4039  0.1998
16807TIP3   OH271911   4.423   1.650  13.218 -0.0104  0.2465  0.0641
16807TIP3    H171912   4.487   1.641  13.147  1.4619 -0.5363  1.4399
16807TIP3    H271913   4.338   1.649  13.174  0.8769  0.0946 -1.7082
16808TIP3   OH271914   5.690   3.255  10.837 -0.1191 -0.0114 -0.2267
16808TIP3    H171915   5.635   3.291  10.768 -1.3336  1.0489  1.2789
16808TIP3    H271916   5.718   3.170  10.803 -1.4180  0.1125 -1.6472
16809TIP3   OH271917   2.430   6.726  11.807  0.2345  0.3730  0.0182
16809TIP3    H171918   2.374   6.803  11.816  0.1634  0.5198 -1.6144
16809TIP3    H271919   2.504   6.743  11.866 -0.7351  0.7882  1.1380
16810TIP3   OH271920   4.589   2.040  13.691 -0.2314 -0.3750  0.3765
16810TIP3    H171921   4.552   2.081  13.769  0.7857 -0.2509  0.8070
16810TIP3    H271922   4.550   2.087  13.617  0.4436  0.9421  0.8554
16811TIP3   OH271923   4.525   6.817  16.750 -0.2576  0.2993  0.2694
16811TIP3    H171924   4.561   6.905  16.734  1.4920 -0.5393 -0.5566
16811TIP3    H271925   4.476   6.797  16.670  0.0423  0.2007  0.1067
16812TIP3   OH271926   6.778   2.966   1.359 -0.2664  0.0795  0.0871
16812TIP3    H171927   6.861   2.920   1.343 -0.3430 -0.3593  0.9276
16812TIP3    H271928   6.740   2.922   1.435 -0.4062  1.4514  0.8268
16813TIP3   OH271929   1.022   2.852   3.200  0.3689 -0.1691 -0.2819
16813TIP3    H171930   1.035   2.867   3.293 -1.2757  1.1027 -0.2275
16813TIP3    H271931   0.927   2.857   3.188  0.4119 -1.9810 -1.7537
16814TIP3   OH271932   4.808   5.951  10.968  0.1824  0.2914 -0.0912
16814TIP3    H171933   4.820   5.974  10.876 -0.3973  1.2459  0.0677
16814TIP3    H271934   4.800   5.855  10.967  1.7692  0.1431 -0.8408
16815TIP3   OH271935   5.115   0.598  15.200  0.5677  0.7301 -0.2475
16815TIP3    H171936   5.126   0.569  15.290  0.3355 -1.8746 -1.0136
16815TIP3    H271937   5.047   0.665  15.205  1.0756  1.1436  1.5855
16816TIP3   OH271938   3.530   0.424  16.354 -0.2126  0.0081 -0.4343
16816TIP3    H171939   3.611   0.475  16.348  0.1464 -0.5801 -0.5868
16816TIP3    H271940   3.537   0.376  16.436 -1.3331  1.5255  0.5949
16817TIP3   OH271941   1.290   2.632  13.132  0.0312  0.1960 -0.0928
16817TIP3    H171942   1.308   2.658  13.223  0.4311 -0.1485 -0.0692
16817TIP3    H271943   1.199   2.658  13.117 -0.3591 -0.6400  0.7358
16818TIP3   OH271944   0.763   2.391  15.538 -0.4456 -0.4044  0.0829
16818TIP3    H171945   0.728   2.419  15.454  0.9821 -0.5078 -0.5475
16818TIP3    H271946   0.714   2.443  15.602 -1.7412 -0.5359 -0.7827
16819TIP3   OH271947   1.056   2.944  16.270  0.0252 -0.3076 -0.4400
16819TIP3    H171948   1.112   2.875  16.306 -0.3117 -0.6211 -0.5140
16819TIP3    H271949   1.056   2.928  16.175 -1.9081 -1.6202 -0.2545
16820TIP3   OH271950   0.272   0.025  15.988 -0.0883  0.1088  0.4257
16820TIP3    H171951   0.297   0.009  16.079 -0.7733 -2.2491  0.2407
16820TIP3    H271952   0.179   0.001  15.985 -0.8762  3.0173 -0.2437
16821TIP3   OH271953   3.464   3.890  16.288  0.2728 -0.3548 -0.0764
16821TIP3    H171954   3.544   3.879  16.237  0.5401  0.3373  0.1818
16821TIP3    H271955   3.495   3.922  16.373 -0.3626  1.0558 -0.3620
16822TIP3   OH271956   6.015   6.446  16.012  0.1685  0.2638  0.1100
16822TIP3    H171957   5.932   6.420  15.971  0.5848 -0.8364 -0.0536
16822TIP3    H271958   6.053   6.509  15.951 -0.1166  0.0749 -0.2665
16823TIP3   OH271959   4.179   5.759  10.886  0.2133  0.1168  0.1817
16823TIP3    H171960   4.169   5.713  10.803 -0.2022  1.6937 -0.6704
16823TIP3    H271961   4.267   5.737  10.916  1.2012  1.2487 -1.7887
16824TIP3   OH271962   1.877   2.503   0.288 -0.3109 -0.5159  0.2235
16824TIP3    H171963   1.916   2.507   0.376 -0.4211 -2.0714  0.3585
16824TIP3    H271964   1.952   2.494   0.229 -0.2832 -0.2040  0.2074
16825TIP3   OH271965   1.188   1.144   0.391 -0.4695 -0.1113  0.7227
16825TIP3    H171966   1.170   1.225   0.343 -0.5345  0.4969  1.7438
16825TIP3    H271967   1.217   1.082   0.325 -2.0518  0.2442 -0.3244
16826TIP3   OH271968   1.595   1.757  15.374 -0.0220 -0.0524  0.5351
16826TIP3    H171969   1.672   1.739  15.428  0.2168 -0.5911  0.0265
16826TIP3    H271970   1.566   1.670  15.346 -1.3111  0.0892  1.3952
16827TIP3   OH271971   3.068   3.052   0.023  0.5424  0.0702  0.3432
16827TIP3    H171972   3.110   3.103   0.092 -0.4938 -0.8786  1.7096
16827TIP3    H271973   2.995   3.107  -0.007 -0.7334 -0.6609  1.9937
16828TIP3   OH271974   3.387   6.042   0.589 -0.0979  0.3809  0.3181
16828TIP3    H171975   3.445   6.063   0.661 -1.3258  1.9239  0.8912
16828TIP3    H271976   3.384   5.946   0.587  0.0875  0.3241  2.2088
16829TIP3   OH271977   6.108   3.426  16.708 -0.7933 -0.7089 -0.2344
16829TIP3    H171978   6.115   3.357  16.641 -0.7002 -1.6116  0.6961
16829TIP3    H271979   6.016   3.452  16.706 -0.3481  0.8641 -2.2698
16830TIP3   OH271980   0.700   1.920  14.625  0.3513 -0.2632  0.4426
16830TIP3    H171981   0.734   1.996  14.672  0.5369 -0.7567  1.1095
16830TIP3    H271982   0.768   1.853  14.634 -0.7039 -1.1924  1.6278
16831TIP3   OH271983   2.515   1.064  11.726 -0.1812  0.3646  0.0770
16831TIP3    H171984   2.440   1.103  11.682  0.2921 -0.5118 -1.5594
16831TIP3    H271985   2.591   1.108  11.688  0.3754 -2.2333 -1.9975
16832TIP3   OH271986   4.373   1.865   4.735  0.1699 -0.2088 -0.2202
16832TIP3    H171987   4.418   1.791   4.695 -0.0692  0.3907 -1.6147
16832TIP3    H271988   4.429   1.891   4.808  0.1794 -1.8529  0.4024
16833TIP3   OH271989   4.333   0.859   0.098 -0.0159  0.0330 -0.0452
16833TIP3    H171990   4.395   0.826   0.163  0.6370  0.2150 -0.5714
16833TIP3    H271991   4.250   0.816   0.120  0.7144 -1.6014 -0.4427
16834TIP3   OH271992   4.828   1.186   0.624 -0.5290 -0.5443 -0.3997
16834TIP3    H171993   4.872   1.113   0.580  0.3754  0.8214 -1.8279
16834TIP3    H271994   4.826   1.255   0.558 -1.2241  0.7799  0.9838
16835TIP3   OH271995   1.171   5.153  15.698 -0.2694  0.4657  0.6096
16835TIP3    H171996   1.086   5.141  15.656  1.0346 -1.1739 -1.6500
16835TIP3    H271997   1.201   5.239  15.667 -0.2929  0.2367 -0.0533
16836TIP3   OH271998   4.323   6.140   4.510  0.5358 -0.1094  0.2112
16836TIP3    H171999   4.309   6.192   4.431  1.2505  0.5504  0.5071
16836TIP3    H272000   4.408   6.098   4.497  0.1910 -0.8125  0.1920
16837TIP3   OH272001   0.504   6.233   1.473  0.7382 -0.1124  0.3162
16837TIP3    H172002   0.411   6.219   1.455  0.8618  0.4472 -0.8457
16837TIP3    H272003   0.539   6.145   1.488 -0.1909 -0.2204  1.8834
16838TIP3   OH272004   5.350   5.186   2.984 -0.1385  0.2149  0.7355
16838TIP3    H172005   5.429   5.213   3.031  0.2535  2.0846 -0.9405
16838TIP3    H272006   5.381   5.125   2.917  0.1949  2.3600 -1.1308
16839TIP3   OH272007   4.374   3.804   4.254  0.0506  0.4817 -0.2628
16839TIP3    H172008   4.446   3.750   4.220 -0.9952  0.3209 -2.2709
16839TIP3    H272009   4.297   3.775   4.206 -1.2533  1.1424  1.3710
16840TIP3   OH272010   0.606   1.465   6.346 -0.3739  0.0813 -0.4014
16840TIP3    H172011   0.651   1.469   6.431 -0.9935 -1.1933 -0.0027
16840TIP3    H272012   0.515   1.487   6.367 -0.7523 -1.3343 -0.5577
16841TIP3   OH272013   1.396   4.466   3.988 -0.0301 -0.2035  0.0786
16841TIP3    H172014   1.444   4.462   4.071 -0.9732  1.0135  0.6979
16841TIP3    H272015   1.387   4.560   3.970  0.3074 -0.4660 -1.4825
16842TIP3   OH272016   1.472   4.695  15.471 -0.2269 -0.0247 -0.4411
16842TIP3    H172017   1.458   4.607  15.435 -0.1498 -0.2523  0.0688
16842TIP3    H272018   1.450   4.685  15.564  3.0272 -0.3258  0.3485
16843TIP3   OH272019   5.576   2.318   5.655 -0.0935 -0.1451 -0.2051
16843TIP3    H172020   5.569   2.395   5.711  2.0129 -0.2658  0.2602
16843TIP3    H272021   5.574   2.353   5.566  0.9761  0.4719  0.0063
16844TIP3   OH272022   2.469   5.875   4.062  0.0108 -0.3146 -0.2801
16844TIP3    H172023   2.452   5.859   3.969 -1.0413  0.4546 -0.2368
16844TIP3    H272024   2.487   5.969   4.068  1.2859 -0.5710  0.1332
16845TIP3   OH272025   6.162   3.272  13.787  0.0549 -0.3330  0.1476
16845TIP3    H172026   6.159   3.345  13.849 -1.7457 -1.8212  1.8904
16845TIP3    H272027   6.242   3.225  13.810  1.8967  1.7599 -1.8187
16846TIP3   OH272028   2.132   3.085   5.728 -0.2050 -0.1216 -0.2185
16846TIP3    H172029   2.201   3.051   5.784  1.3369  2.9978 -0.1482
16846TIP3    H272030   2.069   3.124   5.788  0.1979  0.9830 -0.5011
16847TIP3   OH272031   0.444   0.453   4.501 -0.0399 -0.7319 -0.4315
16847TIP3    H172032   0.431   0.359   4.488 -0.5646 -0.5167 -1.4906
16847TIP3    H272033   0.459   0.488   4.413  0.3632  0.1429 -0.0201
16848TIP3   OH272034   4.230   0.204  11.935  0.3967 -0.3296 -0.1899
16848TIP3    H172035   4.233   0.143  12.008 -1.5375 -0.3705 -0.1251
16848TIP3    H272036   4.250   0.151  11.858 -1.8489 -1.2187 -0.2060
16849TIP3   OH272037   3.525   6.733   5.351 -0.5117  0.2120 -1.1162
16849TIP3    H172038   3.448   6.758   5.403 -0.0725 -1.3275  0.3163
16849TIP3    H272039   3.496   6.660   5.298  0.4258 -1.6336  0.8228
16850TIP3   OH272040   5.350   3.008  17.155 -0.0736  0.1977 -0.4417
16850TIP3    H172041   5.354   2.989  17.061  0.6541  2.4763 -0.8897
16850TIP3    H272042   5.440   3.029  17.179  0.6824 -4.7559  1.7987
16851TIP3   OH272043   1.229   6.564  12.638 -0.4360 -0.0788 -0.1505
16851TIP3    H172044   1.171   6.547  12.563 -1.5051  1.3498  0.3241
16851TIP3    H272045   1.305   6.607  12.599  0.9703 -3.1275 -0.9573
16852TIP3   OH272046   4.148   6.564   0.378  0.3538  0.3690  0.4697
16852TIP3    H172047   4.174   6.543   0.288  2.1451 -0.2501  1.1087
16852TIP3    H272048   4.158   6.659   0.384  0.2912  0.4062  0.0395
16853TIP3   OH272049   5.714   3.318  12.455 -0.3093 -0.1370 -0.2829
16853TIP3    H172050   5.701   3.258  12.529  1.4188  0.2355  0.3447
16853TIP3    H272051   5.715   3.260  12.378  0.5441 -0.8381  0.2410
16854TIP3   OH272052   5.084   4.489  11.014  0.1075 -0.0663 -0.4187
16854TIP3    H172053   5.119   4.498  10.925  1.3372 -0.3226  0.0287
16854TIP3    H272054   5.092   4.395  11.033 -0.3928 -0.0533 -0.1286
16855TIP3   OH272055   1.655   3.740   6.083  0.2025 -0.3169  0.8115
16855TIP3    H172056   1.562   3.762   6.088 -0.0306 -0.6839 -1.3254
16855TIP3    H272057   1.695   3.785   6.157 -1.9606 -1.7211  2.8916
16856TIP3   OH272058   6.011   1.473  10.627 -0.0721  0.2475  0.0970
16856TIP3    H172059   5.946   1.439  10.565  1.0590  0.0466 -0.9979
16856TIP3    H272060   5.961   1.490  10.707 -1.3796 -0.3633 -0.5706
16857TIP3   OH272061   5.949   5.702   5.927 -0.8022 -0.2322 -0.3777
16857TIP3    H172062   5.938   5.780   5.981 -2.3831 -0.6010 -0.1492
16857TIP3    H272063   6.036   5.711   5.889 -1.1359  1.8205 -0.6628
16858TIP3   OH272064   5.387   3.004  13.331 -0.1912  0.1935 -0.3698
16858TIP3    H172065   5.342   2.921  13.344 -0.0916  0.5284  2.4692
16858TIP3    H272066   5.322   3.060  13.289 -0.4595 -1.1027 -1.7323
16859TIP3   OH272067   5.339   4.946  12.443  0.1204  0.0608 -0.0688
16859TIP3    H172068   5.424   4.991  12.443  0.9888 -1.5184 -0.0729
16859TIP3    H272069   5.323   4.925  12.350 -1.0175  1.6877 -0.2530
16860TIP3   OH272070   1.574   4.532  12.996 -0.6844  0.0806  0.1749
16860TIP3    H172071   1.560   4.460  13.057  0.3353  0.3839  0.7781
16860TIP3    H272072   1.522   4.509  12.919 -0.6279 -1.1298  0.4901
16861TIP3   OH272073   3.035   2.703  16.557 -0.2737  0.9734 -0.6231
16861TIP3    H172074   3.071   2.785  16.591 -1.2316  1.2698 -0.3251
16861TIP3    H272075   2.998   2.659  16.633  0.5386  0.1012 -0.7239
16862TIP3   OH272076   5.263   6.463  17.066 -0.8138 -0.3921 -0.0123
16862TIP3    H172077   5.350   6.485  17.032 -1.3425  0.5820 -0.7338
16862TIP3    H272078   5.271   6.475  17.161  0.0224 -0.9321 -0.0108
16863TIP3   OH272079   3.941   3.936  12.179  0.3106 -0.2423 -0.3994
16863TIP3    H172080   4.026   3.904  12.149 -0.5543 -2.1709 -0.8409
16863TIP3    H272081   3.900   3.860  12.220  0.0549  1.4551  2.6423
16864TIP3   OH272082   5.833   3.355   0.317  0.3820 -0.0941  0.2078
16864TIP3    H172083   5.820   3.302   0.395 -0.8089  0.8202  0.6458
16864TIP3    H272084   5.768   3.425   0.324 -0.1884 -0.3602 -1.9061
16865TIP3   OH272085   3.466   2.523  13.966  0.4114 -0.1822  0.4653
16865TIP3    H172086   3.552   2.543  13.928  0.8696 -0.4003  1.3851
16865TIP3    H272087   3.418   2.480  13.895  1.0760 -0.0984 -0.0359
16866TIP3   OH272088   4.284   3.997  14.570 -0.6299  0.1441  0.3665
16866TIP3    H172089   4.316   3.912  14.539  2.7021  1.8946 -1.2247
16866TIP3    H272090   4.233   4.031  14.496 -2.3097 -0.5904  1.1543
16867TIP3   OH272091   1.956   0.425  13.627 -0.2790 -0.0249 -0.8680
16867TIP3    H172092   1.991   0.495  13.572 -0.9307  0.1597 -1.0489
16867TIP3    H272093   1.870   0.405  13.590 -1.0916  0.6947  0.5988
16868TIP3   OH272094   3.524   6.684  13.705  0.2003  0.2962  0.2014
16868TIP3    H172095   3.431   6.681  13.728 -0.0274  0.0826 -0.7053
16868TIP3    H272096   3.544   6.778  13.697  0.3070  0.3726  1.3294
16869TIP3   OH272097   3.253   4.256  12.067  0.9269 -0.0917 -0.2255
16869TIP3    H172098   3.163   4.266  12.036  1.1168  2.1066 -0.1460
16869TIP3    H272099   3.244   4.215  12.153 -0.0067  0.3088 -0.1236
16870TIP3   OH272100   5.799   2.761   0.043  0.2190  0.2852  0.0214
16870TIP3    H172101   5.870   2.703   0.070 -0.8504 -0.5006  1.1693
16870TIP3    H272102   5.777   2.732  -0.046  0.3031 -0.4558  0.2417
16871TIP3   OH272103   6.712   2.440  13.567  0.2453 -0.6408  0.0607
16871TIP3    H172104   6.637   2.478  13.521  0.4227 -0.8159 -0.3717
16871TIP3    H272105   6.701   2.469  13.658  0.1695  0.1096 -0.1895
16872TIP3   OH272106   1.795   1.852   4.188  0.1367  0.5084  0.6636
16872TIP3    H172107   1.755   1.867   4.103  2.6540 -0.9366 -0.8311
16872TIP3    H272108   1.841   1.933   4.208  0.1052  0.6115  0.3139
16873TIP3   OH272109   0.213   2.683  13.130  0.4155 -0.1056 -0.0700
16873TIP3    H172110   0.204   2.779  13.133  1.9610  0.0273  0.5038
16873TIP3    H272111   0.219   2.663  13.036  0.8045  0.4321 -0.1624
16874TIP3   OH272112   4.142   5.007   2.495  0.0211 -0.0920  0.2809
16874TIP3    H172113   4.209   4.940   2.510 -0.0683 -0.2291  0.0650
16874TIP3    H272114   4.136   5.053   2.579 -0.3684 -0.7563  0.6186
16875TIP3   OH272115   4.217   2.360  10.730 -0.7269 -0.2051 -0.0914
16875TIP3    H172116   4.281   2.331  10.665  0.4791  0.4043  0.8064
16875TIP3    H272117   4.250   2.326  10.814 -1.7589 -0.1680  0.3426
16876TIP3   OH272118   2.713   5.321  11.402 -0.3371 -0.3641  0.1559
16876TIP3    H172119   2.758   5.327  11.318 -0.6597  0.9717  0.0678
16876TIP3    H272120   2.637   5.266  11.386 -1.2126  1.0877 -0.8005
16877TIP3   OH272121   5.109   4.796  15.720 -0.6876 -0.4575 -0.7610
16877TIP3    H172122   5.099   4.705  15.748  0.0689 -0.0622  0.8300
16877TIP3    H272123   5.022   4.834  15.730 -0.4318 -0.3301  1.0620
16878TIP3   OH272124   4.285   5.308   4.714  0.1863 -0.1990  0.3245
16878TIP3    H172125   4.234   5.311   4.794  0.5451 -1.0887  0.5967
16878TIP3    H272126   4.375   5.328   4.741  0.0487  1.0753 -0.1061
16879TIP3   OH272127   0.780   6.320  13.316  0.3103  0.3695  0.1023
16879TIP3    H172128   0.718   6.383  13.353 -0.7821 -1.1325  0.9067
16879TIP3    H272129   0.742   6.235  13.337  1.6278 -0.5554 -1.1938
16880TIP3   OH272130   0.534   4.470  12.968  0.3989  0.2720  0.2306
16880TIP3    H172131   0.528   4.511  12.882  1.2702  0.1149  0.0899
16880TIP3    H272132   0.602   4.403  12.958  0.2996  0.0587  0.9623
16881TIP3   OH272133   6.628   3.690  13.530  0.3658  0.1578  0.3442
16881TIP3    H172134   6.706   3.649  13.493 -0.0804  0.0134 -0.4468
16881TIP3    H272135   6.613   3.767  13.475 -0.8622 -0.5895 -0.4157
16882TIP3   OH272136   0.291   2.558  14.470 -0.2141 -0.5289 -0.2853
16882TIP3    H172137   0.371   2.551  14.417 -0.0174  0.9086 -0.1804
16882TIP3    H272138   0.249   2.472  14.461  1.2079 -1.2107 -0.5564
16883TIP3   OH272139   0.080   2.823   5.711  0.0211  1.2934 -0.3688
16883TIP3    H172140   0.124   2.738   5.709  0.8758  1.7179  0.0703
16883TIP3    H272141   0.149   2.884   5.737 -0.6699  2.0688 -0.3693
16884TIP3   OH272142   6.108   2.862   4.772  0.5418  0.0640 -0.3244
16884TIP3    H172143   6.084   2.786   4.825  0.3317 -1.2199 -2.2453
16884TIP3    H272144   6.078   2.937   4.824 -2.0581 -1.2625  0.1677
16885TIP3   OH272145   3.326   0.522   5.124 -0.1149  0.3745 -0.2649
16885TIP3    H172146   3.296   0.608   5.097  1.9121  1.2862  0.2737
16885TIP3    H272147   3.414   0.537   5.159 -0.1827 -1.7254  0.9109
16886TIP3   OH272148   3.023   4.979  14.167 -0.5010 -0.0320 -0.0457
16886TIP3    H172149   3.085   5.018  14.228 -2.0097  0.7932  0.9957
16886TIP3    H272150   2.993   5.052  14.113 -1.5672 -0.1725  0.3438
16887TIP3   OH272151   5.694   4.238  13.904  0.2427 -0.1023 -0.2859
16887TIP3    H172152   5.766   4.228  13.841 -0.7953 -1.2709 -1.3257
16887TIP3    H272153   5.737   4.250  13.989  1.6605  1.4293 -1.2068
16888TIP3   OH272154   6.067   1.991  12.619  0.5732 -0.3235  0.1342
16888TIP3    H172155   5.980   2.005  12.581  0.9352  0.4271 -0.4167
16888TIP3    H272156   6.126   2.043  12.565  1.1937  0.1751  1.2826
16889TIP3   OH272157   2.288   2.568   1.640  0.1470  0.4829  0.8390
16889TIP3    H172158   2.335   2.586   1.558 -0.9825  0.5000  0.1880
16889TIP3    H272159   2.357   2.552   1.704  1.0366  0.1866 -0.1811
16890TIP3   OH272160   1.532   3.433   2.462 -0.0685  0.1752  0.3857
16890TIP3    H172161   1.626   3.415   2.454  0.2313  0.8993  1.9926
16890TIP3    H272162   1.489   3.357   2.425  1.1566  0.7399 -2.2959
16891TIP3   OH272163   1.811   0.691  12.452  0.1948  0.2727 -0.0961
16891TIP3    H172164   1.818   0.623  12.385 -1.7030 -0.5710  0.5213
16891TIP3    H272165   1.900   0.701  12.486  1.2341  0.8912 -2.8773
16892TIP3   OH272166   1.359   3.669   2.015  0.3085  0.1127  0.3220
16892TIP3    H172167   1.283   3.726   2.019  0.6299  0.5051  1.0158
16892TIP3    H272168   1.415   3.709   1.949 -0.0362 -0.1110 -0.1040
16893TIP3   OH272169   6.672   5.334  15.087 -0.0951  0.2097 -0.2710
16893TIP3    H172170   6.605   5.367  15.027  1.3562  3.1751 -0.3541
16893TIP3    H272171   6.688   5.406  15.148  3.4110 -0.1821 -0.6105
16894TIP3   OH272172   5.589   3.933  15.995 -0.7235  0.2264 -0.2065
16894TIP3    H172173   5.668   3.879  16.001 -2.0079 -1.7015 -0.2584
16894TIP3    H272174   5.616   4.008  15.942  1.7793  0.9342  1.9724
16895TIP3   OH272175   2.463   1.888  14.889  0.0592 -0.2402 -0.2979
16895TIP3    H172176   2.440   1.883  14.981 -0.6693  0.6089 -0.4330
16895TIP3    H272177   2.548   1.932  14.887 -0.5155  0.8944 -0.1118
16896TIP3   OH272178   1.202   2.550  13.703 -0.6720 -0.0804  0.4605
16896TIP3    H172179   1.179   2.469  13.749 -0.2170  0.7602  2.2001
16896TIP3    H272180   1.118   2.587  13.676 -0.9789 -0.3061  1.0908
16897TIP3   OH272181   0.420   2.320   5.388  0.0053  0.1388  0.0735
16897TIP3    H172182   0.470   2.326   5.469 -0.3044 -0.5664  0.3260
16897TIP3    H272183   0.362   2.396   5.389 -1.8499 -1.2589  1.7938
16898TIP3   OH272184   4.753   4.749   4.296  0.4874  0.4916 -0.5265
16898TIP3    H172185   4.671   4.702   4.278  0.3766  1.3589 -2.4097
16898TIP3    H272186   4.728   4.822   4.352  0.1732  0.0483 -0.0892
16899TIP3   OH272187   4.229   2.258   0.793  0.1771  0.1233  0.8219
16899TIP3    H172188   4.309   2.235   0.840  2.0528  0.8175 -1.9142
16899TIP3    H272189   4.247   2.344   0.755 -2.7665  1.3724  2.0756
16900TIP3   OH272190   4.171   6.013  16.558  0.5248 -0.7200 -0.2123
16900TIP3    H172191   4.260   5.981  16.572  0.2076 -1.3830  0.3123
16900TIP3    H272192   4.139   6.033  16.646  0.0301 -0.7998 -0.3744
16901TIP3   OH272193   1.083   0.262   4.659  0.2355 -0.1874 -0.1075
16901TIP3    H172194   1.055   0.273   4.568 -2.1249 -0.4086  0.5577
16901TIP3    H272195   1.162   0.208   4.653  1.8711  2.3454 -2.1964
16902TIP3   OH272196   2.395   5.944   0.669 -0.3830  0.1101  0.0987
16902TIP3    H172197   2.313   5.895   0.678 -0.0234 -0.7438 -1.0435
16902TIP3    H272198   2.370   6.036   0.672 -1.5650 -0.1366 -1.6074
16903TIP3   OH272199   6.237   1.090  15.089 -0.3482 -0.0405  0.0099
16903TIP3    H172200   6.196   1.130  15.166  1.8409 -0.2878  1.3214
16903TIP3    H272201   6.291   1.159  15.051  0.1976 -0.5389 -0.1251
16904TIP3   OH272202   0.602   3.879  13.447 -0.1961  0.8955  0.5130
16904TIP3    H172203   0.606   3.952  13.509  0.4964  0.0434  1.5054
16904TIP3    H272204   0.673   3.821  13.475 -1.5440 -0.7777  0.5386
16905TIP3   OH272205   5.032   0.415   1.111 -0.3018  0.4115 -0.2332
16905TIP3    H172206   5.055   0.446   1.024  1.1154  0.1267  0.0118
16905TIP3    H272207   5.117   0.397   1.153 -0.9502  0.7084  1.2557
16906TIP3   OH272208   2.417   5.651   6.649  0.1754 -0.7238  0.3693
16906TIP3    H172209   2.331   5.630   6.685  0.6325 -1.9816  0.7644
16906TIP3    H272210   2.478   5.629   6.719  0.7691  0.9812  0.4086
16907TIP3   OH272211   1.506   4.492   3.495 -0.4447  0.1065  0.0205
16907TIP3    H172212   1.534   4.451   3.413  0.5276 -1.4225  1.1006
16907TIP3    H272213   1.554   4.575   3.498  3.0884 -1.8675  1.2025
16908TIP3   OH272214   3.272   2.406  11.749  0.0712 -0.1869 -0.4313
16908TIP3    H172215   3.338   2.435  11.812 -1.6442 -0.0979  1.3773
16908TIP3    H272216   3.299   2.318  11.725  1.7938  0.4914 -1.0534
16909TIP3   OH272217   2.975   1.592   6.255  0.7962 -0.1908  0.1299
16909TIP3    H172218   2.944   1.502   6.247  1.0831 -0.3833  1.1675
16909TIP3    H272219   2.929   1.627   6.331  0.2271  0.7363 -0.6341
16910TIP3   OH272220   3.527   4.045  12.276 -0.3383  0.1068 -0.5526
16910TIP3    H172221   3.496   3.954  12.280 -0.0304 -0.0297 -1.2237
16910TIP3    H272222   3.468   4.093  12.334  1.1532 -0.9938  1.9743
16911TIP3   OH272223   5.856   4.539  14.235  0.3672 -0.0213  0.5629
16911TIP3    H172224   5.774   4.575  14.270 -0.0092 -1.2232  0.9576
16911TIP3    H272225   5.925   4.591  14.276 -0.1998  1.0449  0.1750
16912TIP3   OH272226   2.832   0.547  13.500 -0.3399 -0.0648  0.1715
16912TIP3    H172227   2.877   0.598  13.567 -1.0363 -0.8053  1.2195
16912TIP3    H272228   2.849   0.594  13.419  1.0150  0.5243  0.7683
16913TIP3   OH272229   1.079   1.275   2.293 -0.3183 -0.2696  0.3910
16913TIP3    H172230   1.138   1.284   2.368 -2.3198 -0.0086  1.9915
16913TIP3    H272231   1.053   1.183   2.293  0.8331 -0.6063 -0.9065
16914TIP3   OH272232   3.349   5.154   2.136 -0.1702  0.5598  0.1588
16914TIP3    H172233   3.389   5.139   2.222 -1.1238 -1.5205  0.2580
16914TIP3    H272234   3.265   5.196   2.155 -0.4991 -0.1424  0.2625
16915TIP3   OH272235   5.290   4.766   1.784 -0.1852  0.5750 -0.0946
16915TIP3    H172236   5.382   4.791   1.790  0.3026 -1.2596  0.4224
16915TIP3    H272237   5.263   4.793   1.696  0.5143  2.1413  0.1537
16916TIP3   OH272238   0.290   6.158  17.131  0.0596  0.4823 -0.5393
16916TIP3    H172239   0.212   6.134  17.081  0.8100  1.3813 -2.1885
16916TIP3    H272240   0.285   6.253  17.138  1.2636  0.6037 -1.1410
16917TIP3   OH272241   1.268   1.062   3.607  0.0430 -0.3410  0.4621
16917TIP3    H172242   1.215   1.024   3.537  0.5614  0.9562 -0.6529
16917TIP3    H272243   1.240   1.017   3.686 -2.4268  0.0117 -0.1836
16918TIP3   OH272244   3.099   0.026   4.973  0.1821  0.0466  0.3409
16918TIP3    H172245   3.016   0.074   4.965  0.9659  1.1027 -2.0362
16918TIP3    H272246   3.166   0.091   4.950  1.6415 -0.9750  1.5854
16919TIP3   OH272247   2.781   5.339  14.206  0.1648  0.1805  0.2560
16919TIP3    H172248   2.856   5.376  14.159 -0.6354  1.7607  0.2047
16919TIP3    H272249   2.717   5.410  14.209 -1.3563 -1.1558  0.2704
16920TIP3   OH272250   0.458   6.429   2.298 -0.2393 -0.3357  0.0923
16920TIP3    H172251   0.465   6.455   2.390  1.1208 -0.7565  0.1119
16920TIP3    H272252   0.364   6.431   2.280 -0.3507  2.1372  0.7817
16921TIP3   OH272253   2.517   2.049   4.911  0.2368  0.4778 -0.1285
16921TIP3    H172254   2.467   2.002   4.844  1.1551  0.4622 -0.8102
16921TIP3    H272255   2.586   1.988   4.936  0.2810  0.7332  0.3689
16922TIP3   OH272256   3.189   3.920   3.845 -0.0114 -0.0286  0.3465
16922TIP3    H172257   3.166   3.834   3.880 -2.5566 -0.1154 -1.4080
16922TIP3    H272258   3.109   3.950   3.802  0.6884  3.4563  1.3617
16923TIP3   OH272259   3.021   2.515   6.409 -0.2473  0.0969  0.0766
16923TIP3    H172260   3.071   2.433   6.406 -0.6554 -0.1940  0.8583
16923TIP3    H272261   2.930   2.486   6.422 -0.2865  0.6991  1.2309
16924TIP3   OH272262   5.519   5.558   4.765 -0.1309  0.8287 -0.2741
16924TIP3    H172263   5.543   5.468   4.741 -1.7625  0.5068 -0.7705
16924TIP3    H272264   5.492   5.598   4.682 -1.6324  1.0486  0.3061
16925TIP3   OH272265   4.150   0.160   3.098  0.3687  0.0066  0.1939
16925TIP3    H172266   4.102   0.124   3.023  0.6984 -0.0834  0.0251
16925TIP3    H272267   4.082   0.182   3.161  0.1620 -0.8921  0.2893
16926TIP3   OH272268   4.299   0.171   2.654 -0.0727 -0.5012  1.2170
16926TIP3    H172269   4.367   0.196   2.591 -0.1595 -2.0999  0.4606
16926TIP3    H272270   4.279   0.252   2.701  1.5361  0.2394  0.6675
16927TIP3   OH272271   0.472   4.217  15.982 -0.5183  0.4270 -0.1939
16927TIP3    H172272   0.494   4.263  16.063 -1.1012 -0.0293  0.2289
16927TIP3    H272273   0.516   4.133  15.990  0.5414  0.9024 -0.9614
16928TIP3   OH272274   5.069   2.190   3.675  0.5573 -0.4440  0.3283
16928TIP3    H172275   5.061   2.187   3.580 -0.8446  0.6444  0.3929
16928TIP3    H272276   4.990   2.147   3.707  1.4258 -1.5599  1.0064
16929TIP3   OH272277   4.386   1.249  16.456  0.0255 -0.4426 -0.0298
16929TIP3    H172278   4.303   1.244  16.505  0.0262 -0.9104 -0.0710
16929TIP3    H272279   4.416   1.339  16.469 -0.2899 -0.3837  0.3168
16930TIP3   OH272280   4.656   3.819  14.111  0.2817  0.2474  0.2621
16930TIP3    H172281   4.580   3.869  14.141 -0.3950 -1.7793  2.1018
16930TIP3    H272282   4.641   3.806  14.017  0.3252  3.1840 -0.1836
16931TIP3   OH272283   6.553   1.402  15.385  0.1604  0.0473 -0.5310
16931TIP3    H172284   6.599   1.344  15.324  0.4030 -0.2418 -0.0767
16931TIP3    H272285   6.466   1.361  15.395  0.7165 -0.8820  0.6737
16932TIP3   OH272286   4.806   3.258   1.660  0.0973  0.7601 -0.2045
16932TIP3    H172287   4.894   3.291   1.642 -0.3833  2.3563  0.2928
16932TIP3    H272288   4.806   3.241   1.754 -0.2769  1.2725 -0.1073
16933TIP3   OH272289   0.048   0.509  12.800  0.1413  0.8134  0.5845
16933TIP3    H172290  -0.019   0.444  12.779  0.6875 -0.2074  1.9071
16933TIP3    H272291   0.108   0.507  12.725  1.8887 -2.5325  1.9364
16934TIP3   OH272292   5.885   2.896  16.360  0.1447  0.0941 -0.0046
16934TIP3    H172293   5.953   2.958  16.332 -0.1940  1.3803  1.9552
16934TIP3    H272294   5.929   2.811  16.360  0.3373  0.0761 -3.7768
16935TIP3   OH272295   1.121   1.512  16.568  0.5322  0.1266 -0.3334
16935TIP3    H172296   1.154   1.581  16.510 -0.5958 -1.2036 -2.6445
16935TIP3    H272297   1.031   1.538  16.587  1.2077  1.0936  1.7507
16936TIP3   OH272298   0.030   1.014  11.240  0.5833 -0.1459 -0.9077
16936TIP3    H172299   0.025   0.919  11.247 -0.7541 -0.1071 -1.1002
16936TIP3    H272300   0.069   1.030  11.154  0.1486 -0.5283 -1.1798
16937TIP3   OH272301   0.025   4.997  13.555  0.0629 -0.7126  0.0828
16937TIP3    H172302   0.062   4.999  13.467 -0.5170 -1.1486 -0.1802
16937TIP3    H272303   0.045   4.909  13.587 -1.7288 -1.3547 -0.5028
16938TIP3   OH272304   0.397   4.795  12.217 -0.4347  0.0004  0.3677
16938TIP3    H172305   0.353   4.723  12.263 -1.0534  0.2332  0.1420
16938TIP3    H272306   0.329   4.834  12.163  0.3529 -0.4239 -0.9419
16939TIP3   OH272307   1.010   1.886   4.071 -0.2855  0.2705  0.0785
16939TIP3    H172308   1.002   1.879   3.976 -1.1497  2.7349 -0.0598
16939TIP3    H272309   1.096   1.848   4.091  0.7421  1.4971 -1.9043
16940TIP3   OH272310   3.563   4.051   1.844 -1.1471 -0.1939  0.2631
16940TIP3    H172311   3.527   4.023   1.928 -0.7801  1.3846  0.9576
16940TIP3    H272312   3.513   4.130   1.821 -1.0111 -0.4169 -0.8392
16941TIP3   OH272313   6.311   3.861   5.095 -0.0119 -0.8131 -0.1477
16941TIP3    H172314   6.381   3.868   5.160 -1.9504  2.1944  1.7629
16941TIP3    H272315   6.257   3.789   5.125  0.4995 -1.0823  0.1333
16942TIP3   OH272316   4.353   0.185  10.373  0.0160  0.1420  0.2472
16942TIP3    H172317   4.319   0.116  10.430  1.3727 -1.7689 -1.1614
16942TIP3    H272318   4.446   0.191  10.396 -0.1009  1.5400  0.3801
16943TIP3   OH272319   0.198   5.312  14.391  0.1801 -0.0622  0.6182
16943TIP3    H172320   0.192   5.382  14.326  1.5417 -2.4102 -2.1233
16943TIP3    H272321   0.119   5.260  14.378 -0.9256  0.9911  2.7807
16944TIP3   OH272322   3.755   4.146  15.157 -0.3915  0.1086  0.7786
16944TIP3    H172323   3.674   4.177  15.116  1.2342 -0.5557 -3.1496
16944TIP3    H272324   3.731   4.063  15.197 -1.9376  0.5168  0.7223
16945TIP3   OH272325   1.966   0.681  13.437 -0.2434  0.2424 -1.1727
16945TIP3    H172326   1.875   0.705  13.420  0.3116  2.1998 -1.5633
16945TIP3    H272327   1.990   0.733  13.514 -0.1341 -1.9941  0.3402
16946TIP3   OH272328   1.979   5.910  16.589  0.2006  0.2283  0.4256
16946TIP3    H172329   2.070   5.882  16.579 -0.1822 -1.2526  0.9636
16946TIP3    H272330   1.979   6.001  16.560  2.2112  0.7916  2.0124
16947TIP3   OH272331   6.006   4.420  15.261  0.5511 -0.4039 -0.2709
16947TIP3    H172332   6.074   4.429  15.329 -0.5674  1.5717  0.6336
16947TIP3    H272333   6.039   4.472  15.188  0.3415 -0.0017 -0.0834
16948TIP3   OH272334   1.574   3.769   5.122 -0.4150  0.0498  0.5611
16948TIP3    H172335   1.567   3.828   5.196 -0.1062 -0.0392  0.6619
16948TIP3    H272336   1.502   3.793   5.064  0.2113  1.0906  0.2025
16949TIP3   OH272337   3.757   3.827  11.954  0.2276 -0.3215 -0.3855
16949TIP3    H172338   3.848   3.832  11.927  1.1443 -0.0184  2.5830
16949TIP3    H272339   3.723   3.916  11.944  1.1669  0.2642  1.3649
16950TIP3   OH272340   3.483   6.097  12.893 -0.6158  0.1181 -0.2205
16950TIP3    H172341   3.533   6.113  12.972 -1.0049 -0.9882  0.2666
16950TIP3    H272342   3.523   6.019  12.854 -1.2036 -0.0850 -0.4381
16951TIP3   OH272343   4.450   1.738  12.357 -0.0476  0.1621  0.1542
16951TIP3    H172344   4.545   1.745  12.343  0.2340 -2.3762  0.4551
16951TIP3    H272345   4.441   1.683  12.435 -1.7712 -0.1193 -0.2142
16952TIP3   OH272346   3.385   0.752  12.844  0.0717 -0.0395 -0.9459
16952TIP3    H172347   3.468   0.773  12.887 -0.7492  0.6536  0.3010
16952TIP3    H272348   3.353   0.836  12.812  0.0109 -0.3587 -1.7291
16953TIP3   OH272349   2.024   4.218  16.961  0.1710 -0.5260 -0.0925
16953TIP3    H172350   1.992   4.203  17.050  0.1821  2.1107  0.4046
16953TIP3    H272351   1.945   4.228  16.908  0.1689  0.1867  0.0464
16954TIP3   OH272352   2.344   5.892   3.413  0.1236  0.0521 -0.0104
16954TIP3    H172353   2.298   5.852   3.487  1.1767  0.2601  0.7632
16954TIP3    H272354   2.274   5.917   3.353 -0.7568  0.0083  0.9733
16955TIP3   OH272355   5.731   3.326  16.249  0.8279 -0.2920  0.0968
16955TIP3    H172356   5.756   3.364  16.165 -1.4375 -1.3716 -1.1237
16955TIP3    H272357   5.691   3.242  16.227 -1.1785  0.0731  2.1179
16956TIP3   OH272358   6.421   6.414  10.901  0.1061 -0.3678 -0.2600
16956TIP3    H172359   6.343   6.455  10.939 -0.0221  0.2951 -1.2344
16956TIP3    H272360   6.389   6.333  10.860  0.1818 -0.8807  0.6771
16957TIP3   OH272361   4.397   2.563  17.164 -0.0964  0.5747  0.1184
16957TIP3    H172362   4.389   2.582  17.071  0.2954 -0.8139 -0.2219
16957TIP3    H272363   4.491   2.549  17.178 -0.0487  1.6482  0.9064
16958TIP3   OH272364   4.545   3.870   3.109  0.3268 -0.6856 -0.1657
16958TIP3    H172365   4.482   3.806   3.142 -0.9851  0.6578  0.0065
16958TIP3    H272366   4.595   3.896   3.186  0.5226 -1.1185 -0.1435
16959TIP3   OH272367   4.702   1.198  17.175 -0.1477 -0.5380  0.1881
16959TIP3    H172368   4.761   1.256  17.127  1.3839 -3.6567 -1.8452
16959TIP3    H272369   4.623   1.192  17.121  0.1032 -1.1315 -0.1176
16960TIP3   OH272370   3.098   0.095  13.756  0.4741  0.2864  0.6808
16960TIP3    H172371   3.049   0.023  13.796 -2.3490  1.9938  0.4279
16960TIP3    H272372   3.056   0.174  13.790  1.8768  1.8058 -1.0279
16961TIP3   OH272373   5.123   3.059   5.489  0.1551  0.1846 -0.0442
16961TIP3    H172374   5.208   3.069   5.532 -0.0455  1.2036  0.1217
16961TIP3    H272375   5.133   3.105   5.406 -0.3959  0.7640  0.2048
16962TIP3   OH272376   3.959   2.903   3.096  0.2596 -0.6591  0.4884
16962TIP3    H172377   3.969   2.897   3.191  1.9685  0.3587  0.4001
16962TIP3    H272378   4.039   2.861   3.062 -0.9070 -2.0963 -0.5227
16963TIP3   OH272379   1.002   1.524   5.328  0.0663 -0.0526 -0.3031
16963TIP3    H172380   0.999   1.498   5.236 -0.1872  0.6418 -0.4928
16963TIP3    H272381   0.956   1.608   5.331 -0.9772 -0.6522  0.6523
16964TIP3   OH272382   2.055   4.391  10.849  0.5016 -0.2166  0.0534
16964TIP3    H172383   2.117   4.319  10.841 -0.9459 -1.3796 -1.2370
16964TIP3    H272384   2.084   4.440  10.926  1.3212 -2.3724  1.1692
16965TIP3   OH272385   1.432   5.757  11.914 -0.4898  0.8187  0.5308
16965TIP3    H172386   1.438   5.661  11.912 -0.8202  0.7866  0.9181
16965TIP3    H272387   1.452   5.779  12.005 -0.4886  1.1136  0.4566
16966TIP3   OH272388   5.124   5.873  12.249 -0.2595 -0.3488 -0.1220
16966TIP3    H172389   5.199   5.933  12.252  0.8411 -1.5740 -2.1622
16966TIP3    H272390   5.052   5.927  12.217 -0.6375  1.1536  3.0193
16967TIP3   OH272391   6.436   4.577  17.122 -0.5721  0.3513 -0.1324
16967TIP3    H172392   6.434   4.609  17.212  0.3922 -0.6395  0.2443
16967TIP3    H272393   6.504   4.628  17.079  0.0543 -0.2726  0.1186
16968TIP3   OH272394   4.512   2.833  13.860 -0.4314 -0.5008  0.3490
16968TIP3    H172395   4.424   2.795  13.859 -1.0488  0.8012  1.7661
16968TIP3    H272396   4.532   2.844  13.953  0.3379  1.2274 -0.0066
16969TIP3   OH272397   3.786   6.474   6.355  0.1108 -0.2760 -0.0743
16969TIP3    H172398   3.870   6.444   6.320  0.9327  0.3105  1.3427
16969TIP3    H272399   3.787   6.569   6.340  0.5203  0.0048  1.5550
16970TIP3   OH272400   3.557   6.469  15.508  0.3200 -0.2533  0.1956
16970TIP3    H172401   3.470   6.442  15.539 -0.0370  0.1130 -0.4878
16970TIP3    H272402   3.616   6.447  15.580 -0.8528  3.0201  2.2242
16971TIP3   OH272403   5.406   5.367  14.518  0.3184 -0.2061  0.5601
16971TIP3    H172404   5.416   5.368  14.423 -0.6734  1.1736  0.4541
16971TIP3    H272405   5.492   5.339  14.551  0.8936  0.0307 -0.7030
16972TIP3   OH272406   2.733   6.059   3.617 -0.0875 -0.2637 -0.1692
16972TIP3    H172407   2.702   5.968   3.618  0.1606 -0.4172 -2.9503
16972TIP3    H272408   2.779   6.067   3.533  0.7382  2.1617  0.4939
16973TIP3   OH272409   0.146   6.052  13.944 -0.0302 -0.3570  0.0321
16973TIP3    H172410   0.092   6.107  14.000  1.0718 -0.6616  1.4290
16973TIP3    H272411   0.225   6.034  13.997 -0.2224 -2.9786 -0.4954
16974TIP3   OH272412   2.443   0.771  16.552  0.1949 -0.0165 -0.1932
16974TIP3    H172413   2.365   0.744  16.503  0.0874  0.6512 -0.3888
16974TIP3    H272414   2.478   0.844  16.502  1.9082 -1.3730 -1.0309
16975TIP3   OH272415   2.353   4.513  11.012  0.1064  0.0264  0.3103
16975TIP3    H172416   2.407   4.480  10.940 -0.2289 -0.1107  0.1196
16975TIP3    H272417   2.317   4.596  10.979  0.4804  0.2971  0.5705
16976TIP3   OH272418   1.691   3.924   5.624  0.1931 -0.5331 -0.2618
16976TIP3    H172419   1.748   3.999   5.604  0.1772 -0.5955 -0.5480
16976TIP3    H272420   1.736   3.879   5.695 -0.6556  0.6950  1.0691
16977TIP3   OH272421   1.186   5.917  16.850 -0.4077 -0.0483 -0.2594
16977TIP3    H172422   1.149   5.866  16.922  2.2360 -0.7494  0.6514
16977TIP3    H272423   1.241   5.855  16.803  0.7507  1.3128 -0.7169
16978TIP3   OH272424   6.583   1.387   5.632 -0.0941  0.2902  0.4337
16978TIP3    H172425   6.528   1.457   5.668 -1.1735 -0.6774  0.6649
16978TIP3    H272426   6.564   1.311   5.686 -1.6936 -1.1813 -2.1368
16979TIP3   OH272427   5.957   4.545   1.893  0.1569 -0.2370 -0.2918
16979TIP3    H172428   5.979   4.453   1.902  0.8123 -0.0288  0.3021
16979TIP3    H272429   6.035   4.585   1.854  0.2234  0.2204  0.2955
16980TIP3   OH272430   6.773   6.271  11.595  0.1737 -0.3188 -0.4700
16980TIP3    H172431   6.716   6.259  11.519  0.3386 -0.0979 -0.6322
16980TIP3    H272432   6.858   6.292  11.557  0.0010  0.8944 -0.2092
16981TIP3   OH272433   0.680   3.761   6.742 -0.2664 -0.1243  0.5729
16981TIP3    H172434   0.764   3.722   6.716 -0.6251 -1.0829  0.8103
16981TIP3    H272435   0.631   3.767   6.660  0.3751  1.3373  0.2732
16982TIP3   OH272436   2.691   3.123  14.966  0.1757 -0.5236 -0.3052
16982TIP3    H172437   2.714   3.112  14.874  1.5944 -1.6821  0.1789
16982TIP3    H272438   2.609   3.172  14.964  0.5877  0.1164 -2.1588
16983TIP3   OH272439   6.508   5.969  10.540  0.1446  0.0543 -0.4318
16983TIP3    H172440   6.469   6.014  10.615 -1.1821 -0.1192 -0.9911
16983TIP3    H272441   6.433   5.952  10.482  0.5943 -2.9683 -0.2023
16984TIP3   OH272442   5.956   4.256   4.976  0.1045 -0.2306  0.4161
16984TIP3    H172443   5.988   4.177   5.020  0.3975  0.3230  1.1966
16984TIP3    H272444   5.923   4.311   5.047 -0.2216  0.2992 -0.1441
16985TIP3   OH272445   0.626   5.541   0.811 -0.5713  0.0755 -0.1826
16985TIP3    H172446   0.687   5.546   0.884  1.2866 -0.4064 -1.6611
16985TIP3    H272447   0.662   5.474   0.754 -2.7934 -0.6131 -0.8508
16986TIP3   OH272448   4.019   2.183  15.101 -0.5803  0.6187 -0.1515
16986TIP3    H172449   4.021   2.274  15.130 -1.5372  0.2323  1.1803
16986TIP3    H272450   3.940   2.147  15.140 -1.5553 -0.1414 -2.7027
16987TIP3   OH272451   3.127   4.357   2.901 -0.0656 -0.1796  0.1344
16987TIP3    H172452   3.101   4.304   2.976  0.1419 -1.0139 -0.3809
16987TIP3    H272453   3.222   4.344   2.894  0.0851  0.7623  0.3937
16988TIP3   OH272454   5.269   1.245  15.556  0.4087  0.4592 -0.0962
16988TIP3    H172455   5.213   1.290  15.620  0.8962  1.3783 -0.3126
16988TIP3    H272456   5.242   1.280  15.471 -0.5407 -1.0759 -0.4620
16989TIP3   OH272457   0.060   3.752   6.321 -0.0734  0.4003 -0.7984
16989TIP3    H172458   0.020   3.798   6.394 -0.8038  0.8721 -1.4990
16989TIP3    H272459   0.154   3.766   6.333 -0.2656  1.5759 -0.6891
16990TIP3   OH272460   4.017   4.820  15.273  0.2316  0.0231  0.3449
16990TIP3    H172461   3.988   4.906  15.302 -1.1208 -0.7302  1.2771
16990TIP3    H272462   3.962   4.758  15.320  1.8393 -1.4016  0.4419
16991TIP3   OH272463   2.466   4.813  14.316 -0.4809 -0.3220  0.0587
16991TIP3    H172464   2.510   4.738  14.355 -0.5564 -0.1542  0.4762
16991TIP3    H272465   2.375   4.786  14.307 -0.4386 -0.4058 -0.1228
16992TIP3   OH272466   4.425   5.623  15.046  0.1203 -0.0044  0.1923
16992TIP3    H172467   4.417   5.528  15.044 -0.0665  0.0222 -1.5204
16992TIP3    H272468   4.519   5.640  15.045  0.1467 -0.1723 -0.4440
16993TIP3   OH272469   5.800   1.269  12.147  0.2063 -0.4793  0.0358
16993TIP3    H172470   5.773   1.352  12.185 -0.8376 -1.7521  2.1330
16993TIP3    H272471   5.726   1.241  12.092 -0.5850 -1.3559  1.5294
16994TIP3   OH272472   1.450   3.929  12.773  0.1690  0.1450 -0.1037
16994TIP3    H172473   1.458   3.844  12.729 -1.1716 -0.0620  0.0494
16994TIP3    H272474   1.512   3.986  12.725 -0.6321 -0.3007 -1.7201
16995TIP3   OH272475   0.670   0.990   0.254 -0.4978 -0.0280 -0.6347
16995TIP3    H172476   0.604   0.922   0.268 -0.2977 -0.1365 -0.2179
16995TIP3    H272477   0.678   1.034   0.339  0.0079 -0.0537 -0.6668
16996TIP3   OH272478   2.792   5.919   1.019 -0.4415 -0.2199  0.1424
16996TIP3    H172479   2.740   5.853   1.064 -0.1115 -0.4772  0.1417
16996TIP3    H272480   2.757   5.920   0.929  0.8954 -1.8212 -0.4136
16997TIP3   OH272481   0.955   4.608   1.551 -0.2386  0.2496 -0.0717
16997TIP3    H172482   1.002   4.660   1.486 -0.8182  0.3055 -0.4549
16997TIP3    H272483   0.938   4.668   1.623 -0.1316  0.3553 -0.1354
16998TIP3   OH272484   1.676   2.711  16.572  0.8811  0.0998  0.4700
16998TIP3    H172485   1.755   2.698  16.625  0.5581  0.5094  1.0648
16998TIP3    H272486   1.646   2.799  16.595  0.3562  0.0209  0.1035
16999TIP3   OH272487   3.599   3.613  15.221 -0.1106 -0.1494  0.3636
16999TIP3    H172488   3.689   3.644  15.227 -0.4713  1.0707 -0.3484
16999TIP3    H272489   3.605   3.533  15.168  0.4042  0.6014 -0.7289
17000TIP3   OH272490   5.445   5.811   5.947 -0.0718  0.3103  0.2744
17000TIP3    H172491   5.437   5.894   5.995  1.1946  0.8573 -0.4370
17000TIP3    H272492   5.525   5.821   5.896 -0.6561 -0.8198 -0.8849
17001TIP3   OH272493   4.104   0.142  12.981  0.8420  0.2520  0.0383
17001TIP3    H172494   4.087   0.185  12.898 -0.1427  3.1061  1.6435
17001TIP3    H272495   4.020   0.104  13.007  1.0136 -0.1540  0.0089
17002TIP3   OH272496   3.034   1.410   0.921 -0.3472  0.2547 -0.0398
17002TIP3    H172497   3.068   1.333   0.967  0.3776  0.6688  0.1210
17002TIP3    H272498   3.020   1.380   0.831 -1.4513 -0.4695  0.3614
17003TIP3   OH272499   3.796   5.779   4.400 -0.4463  0.0116  0.3150
17003TIP3    H172500   3.854   5.840   4.355  0.3040  0.7578  2.2223
17003TIP3    H272501   3.828   5.693   4.375  0.8551  0.4164  0.5556
17004TIP3   OH272502   4.278   6.478  13.440  0.2788  0.5895 -0.2566
17004TIP3    H172503   4.283   6.534  13.364  0.1962  1.8105  0.6270
17004TIP3    H272504   4.368   6.453  13.458  0.1726 -0.8252 -1.5550
17005TIP3   OH272505   5.387   1.944  12.305 -0.0218 -0.1462 -0.2893
17005TIP3    H172506   5.338   1.930  12.224 -2.1096 -1.6416  1.1653
17005TIP3    H272507   5.319   1.957  12.372  1.5133 -2.4367  1.8281
17006TIP3   OH272508   2.150   3.379   4.191 -0.0497  0.6163  0.4029
17006TIP3    H172509   2.073   3.339   4.151 -0.0754  1.4408 -0.4015
17006TIP3    H272510   2.176   3.448   4.130  1.5514  0.1191  0.4866
17007TIP3   OH272511   2.269   3.116   0.395 -0.3885  0.6167 -0.0976
17007TIP3    H172512   2.247   3.051   0.329  0.0838 -1.3142  1.6055
17007TIP3    H272513   2.356   3.147   0.370  0.2802 -0.9431  0.2313
17008TIP3   OH272514   1.823   6.163   3.482  0.1327  0.2906 -0.6209
17008TIP3    H172515   1.863   6.211   3.555  1.3315  0.6363 -1.4835
17008TIP3    H272516   1.733   6.147   3.510  0.4276  0.8832  0.7121
17009TIP3   OH272517   3.563   0.415  16.651  0.3753 -0.2180 -0.3184
17009TIP3    H172518   3.597   0.503  16.665  2.7069 -1.0973 -0.1600
17009TIP3    H272519   3.627   0.358  16.694 -0.9134 -2.0031 -0.7259
17010TIP3   OH272520   1.163   1.251  15.568  0.3152  0.2566  0.7882
17010TIP3    H172521   1.233   1.315  15.579  0.7059 -0.4213  2.3287
17010TIP3    H272522   1.178   1.186  15.636 -2.4497  0.6622  1.8736
17011TIP3   OH272523   2.860   1.040   2.987  0.0560  0.6837  0.2615
17011TIP3    H172524   2.919   1.081   3.050 -0.4703  2.0969 -0.1385
17011TIP3    H272525   2.773   1.045   3.028 -0.5642  3.1225 -1.2262
17012TIP3   OH272526   2.951   4.882   3.360  0.0023  0.2624 -0.0567
17012TIP3    H172527   2.975   4.789   3.360  2.3283  0.8375 -0.9181
17012TIP3    H272528   3.014   4.922   3.420 -0.1753  1.5058 -0.7109
17013TIP3   OH272529   6.699   4.143   5.771  0.5988 -0.5991  0.2384
17013TIP3    H172530   6.767   4.211   5.779 -0.1892  0.3706 -1.1620
17013TIP3    H272531   6.699   4.121   5.678 -0.7915 -0.8176  0.2886
17014TIP3   OH272532   1.865   3.891  13.385  0.0938 -0.1364 -0.1293
17014TIP3    H172533   1.951   3.923  13.360 -0.1472  0.1893 -0.5515
17014TIP3    H272534   1.874   3.868  13.478  0.7016 -0.3548 -0.2425
17015TIP3   OH272535   3.986   4.126  15.039  0.0175  0.2285  0.0893
17015TIP3    H172536   3.900   4.125  15.081 -0.2305 -0.8128 -0.4168
17015TIP3    H272537   3.977   4.188  14.966 -0.2784  0.1954  0.0964
17016TIP3   OH272538   4.125   5.538   3.077  0.0736  0.2140 -0.3022
17016TIP3    H172539   4.141   5.628   3.107 -0.9167  0.1042  0.5822
17016TIP3    H272540   4.038   5.541   3.039  0.2249 -0.2798 -0.6908
17017TIP3   OH272541   4.417   5.527   4.961 -0.6116  0.1481 -0.8654
17017TIP3    H172542   4.337   5.580   4.969 -1.3566 -0.6613 -2.5935
17017TIP3    H272543   4.478   5.585   4.915 -0.1929  0.7695  0.4609
17018TIP3   OH272544   5.938   2.364   2.573 -0.1629  0.5378 -0.0421
17018TIP3    H172545   6.012   2.304   2.578 -0.5846  0.0410  0.2154
17018TIP3    H272546   5.942   2.398   2.483 -0.4127 -0.5001 -0.4571
17019TIP3   OH272547   6.204   6.126  15.316  0.2244  0.2892 -0.1362
17019TIP3    H172548   6.149   6.144  15.239  0.0783  0.9862  0.1358
17019TIP3    H272549   6.161   6.172  15.388 -0.0211 -0.9313  0.5112
17020TIP3   OH272550   4.994   3.653   1.869  0.6096 -0.4280 -0.0999
17020TIP3    H172551   4.932   3.710   1.916  1.0841 -0.9334  1.1743
17020TIP3    H272552   5.016   3.584   1.933  2.3005 -0.3885 -0.6085
17021TIP3   OH272553   5.920   4.722  14.640  0.2635  0.7472 -0.0252
17021TIP3    H172554   5.966   4.699  14.560  0.0643  2.9791 -0.8063
17021TIP3    H272555   5.866   4.798  14.617  0.3157  1.5355  2.2528
17022TIP3   OH272556   0.738   4.603  17.139  0.3108  0.0944 -0.3120
17022TIP3    H172557   0.731   4.538  17.209 -3.5850 -1.3305 -1.8788
17022TIP3    H272558   0.781   4.556  17.068 -1.7965 -0.6069 -1.1678
17023TIP3   OH272559   1.981   6.358   2.358  0.4520  0.7568 -0.1342
17023TIP3    H172560   1.922   6.430   2.337 -2.1219 -1.1680  0.2354
17023TIP3    H272561   2.030   6.342   2.277 -0.2494  1.7437 -0.7593
17024TIP3   OH272562   6.339   3.390  11.165 -0.6355  0.2119  0.0141
17024TIP3    H172563   6.251   3.425  11.148 -2.2854 -2.4965  2.4447
17024TIP3    H272564   6.369   3.357  11.080 -2.5246  0.0215 -0.6089
17025TIP3   OH272565   4.104   6.070   1.812 -0.3659  0.1463 -0.3029
17025TIP3    H172566   4.089   6.068   1.906  0.4938  1.1879 -0.1341
17025TIP3    H272567   4.090   6.162   1.788  2.2560  0.4764 -0.6978
17026TIP3   OH272568   4.312   4.364  15.134 -0.2055 -0.2734  0.1482
17026TIP3    H172569   4.243   4.426  15.110 -0.1545 -0.9016 -1.6549
17026TIP3    H272570   4.308   4.297  15.067  2.7545  0.1359 -0.4895
17027TIP3   OH272571   4.771   3.751   2.897 -0.1333 -0.2751 -0.2766
17027TIP3    H172572   4.808   3.802   2.969  1.3573  0.1588 -1.3099
17027TIP3    H272573   4.826   3.774   2.822 -1.3681 -1.0822 -1.4323
17028TIP3   OH272574   2.965   4.363  12.738 -0.0805 -0.0698  1.0318
17028TIP3    H172575   3.051   4.405  12.743 -1.3359  2.5710  1.1334
17028TIP3    H272576   2.975   4.283  12.790  2.5322 -0.2443  0.3427
17029TIP3   OH272577   1.621   5.352   6.106 -0.4335  0.6057  0.0993
17029TIP3    H172578   1.605   5.278   6.166 -2.0026  0.1286 -0.8904
17029TIP3    H272579   1.675   5.412   6.157  0.2093 -0.8611  1.2014
17030TIP3   OH272580   2.631   2.520   2.477 -0.0306  0.2454 -0.5616
17030TIP3    H172581   2.680   2.470   2.412 -0.1530 -0.1044 -0.3829
17030TIP3    H272582   2.546   2.477   2.482  1.0820 -1.7869  2.2359
17031TIP3   OH272583   3.440   3.469  11.391 -0.3935 -0.2513 -0.0831
17031TIP3    H172584   3.397   3.553  11.373 -2.5126 -0.8463  1.8896
17031TIP3    H272585   3.474   3.478  11.480 -1.6141 -1.8322  0.5627
17032TIP3   OH272586   4.731   5.186   2.905  0.0909  0.2538  0.3795
17032TIP3    H172587   4.676   5.161   2.979 -1.4200 -0.9763 -1.1220
17032TIP3    H272588   4.817   5.149   2.926 -0.2827  0.0711  1.6064
17033TIP3   OH272589   3.213   2.821  15.453  0.1496 -0.3339 -0.2568
17033TIP3    H172590   3.202   2.796  15.545  0.3441 -0.7043 -0.3297
17033TIP3    H272591   3.218   2.737  15.406 -0.0813 -0.1452 -0.6215
17034TIP3   OH272592   2.030   5.061  10.654  0.4578 -0.0770 -0.2674
17034TIP3    H172593   2.105   5.002  10.649 -1.0096 -2.1864  1.7880
17034TIP3    H272594   2.054   5.127  10.719  1.0228 -0.0038 -0.5511
17035TIP3   OH272595   5.365   6.814  16.860 -0.5568  0.7174 -0.5224
17035TIP3    H172596   5.389   6.757  16.933 -1.1519  1.1541  0.0139
17035TIP3    H272597   5.448   6.830  16.814 -0.1207  0.7264  0.2614
17036TIP3   OH272598   2.880   5.540   3.906  0.8228 -0.2331 -0.3883
17036TIP3    H172599   2.927   5.569   3.984 -0.6565 -1.3479  0.9833
17036TIP3    H272600   2.788   5.535   3.935  0.4826 -2.2299 -1.7229
17037TIP3   OH272601   4.619   3.627   2.410 -0.9274  0.3292 -0.3001
17037TIP3    H172602   4.652   3.717   2.410  1.0004 -0.3486  0.1193
17037TIP3    H272603   4.696   3.573   2.431 -1.8618 -1.4773 -1.3713
17038TIP3   OH272604   3.719   6.721   4.536 -0.3361  0.0573  0.3542
17038TIP3    H172605   3.687   6.655   4.473 -2.6066 -0.7431  2.2507
17038TIP3    H272606   3.645   6.781   4.546  0.4182  0.8167  1.3688
17039TIP3   OH272607   5.152   6.066   2.584 -0.0994 -0.4414  0.5741
17039TIP3    H172608   5.066   6.028   2.603  0.3854 -1.7369  0.2614
17039TIP3    H272609   5.154   6.075   2.489  0.6295 -1.7225  0.4543
17040TIP3   OH272610   0.632   3.600  12.307 -0.2207 -0.4941 -0.5631
17040TIP3    H172611   0.702   3.567  12.363  2.7807  2.9824 -2.0589
17040TIP3    H272612   0.558   3.614  12.366  2.3367  1.5790  2.2431
17041TIP3   OH272613   6.695   1.797   2.282  0.0526 -0.5659  0.0204
17041TIP3    H172614   6.636   1.733   2.242  0.7561 -1.8486  0.9918
17041TIP3    H272615   6.658   1.882   2.257 -1.1603 -1.3389 -0.9037
17042TIP3   OH272616   6.249   3.364   0.149  0.3683 -0.4313  0.0540
17042TIP3    H172617   6.193   3.292   0.180 -0.8507  0.6549  0.4067
17042TIP3    H272618   6.214   3.442   0.192  0.4402  0.6803 -1.8445
17043TIP3   OH272619   0.327   0.548   3.250 -0.2248 -0.1847  0.6184
17043TIP3    H172620   0.347   0.560   3.157 -0.4160 -0.4817  0.5381
17043TIP3    H272621   0.409   0.569   3.295 -0.7058  1.9415  0.5188
17044TIP3   OH272622   2.153   2.202   4.535  0.0913  0.2388  0.0369
17044TIP3    H172623   2.123   2.214   4.625  1.2322 -1.2058  0.6327
17044TIP3    H272624   2.129   2.283   4.491 -1.5435  0.5011  1.3401
17045TIP3   OH272625   6.810   3.092   5.196  0.1082  0.3865  0.3053
17045TIP3    H172626   6.895   3.093   5.152  0.6082  2.9587  1.2211
17045TIP3    H272627   6.822   3.033   5.270  0.3273 -1.1668 -0.9370
17046TIP3   OH272628   0.475   5.715  14.941 -0.6752 -0.0487 -0.6865
17046TIP3    H172629   0.455   5.690  15.031 -0.5982 -0.1469 -0.6952
17046TIP3    H272630   0.509   5.634  14.901  0.1749  0.2307 -0.5433
17047TIP3   OH272631   3.787   5.419   6.365  0.1002  0.2247  1.0878
17047TIP3    H172632   3.867   5.376   6.333 -0.2468  0.7355 -0.5195
17047TIP3    H272633   3.810   5.512   6.369 -0.9642  0.6278 -1.2366
17048TIP3   OH272634   0.797   3.189   3.593  0.1095 -0.2483 -0.4381
17048TIP3    H172635   0.763   3.233   3.516 -1.3036 -1.0541 -0.2920
17048TIP3    H272636   0.883   3.228   3.608 -0.2947  1.0352 -1.4694
17049TIP3   OH272637   2.888   0.508   2.788 -0.3940 -0.1496 -0.0831
17049TIP3    H172638   2.827   0.436   2.803  1.2421 -1.3716  0.9603
17049TIP3    H272639   2.927   0.489   2.703  0.6041 -0.9488  0.5388
17050TIP3   OH272640   1.852   1.021   1.945 -0.3692  0.3528  0.2621
17050TIP3    H172641   1.851   1.076   2.023  1.5607 -0.6456  1.0402
17050TIP3    H272642   1.940   1.033   1.909 -0.0036 -1.9879  0.3088
17051TIP3   OH272643   3.818   6.750   3.102  0.0166 -0.0980 -0.5157
17051TIP3    H172644   3.893   6.785   3.053  0.1903 -1.0300 -0.9246
17051TIP3    H272645   3.852   6.671   3.144 -1.1583 -1.3827 -1.9622
17052TIP3   OH272646   5.453   1.850  16.182  0.0333 -0.6532 -0.5306
17052TIP3    H172647   5.460   1.815  16.271  0.7138  1.6469  0.3338
17052TIP3    H272648   5.373   1.809  16.147 -1.4323  0.0538  1.8784
17053TIP3   OH272649   1.780   6.091  16.161  0.0593  0.2602 -0.1091
17053TIP3    H172650   1.754   6.028  16.094 -0.0283  1.7630 -1.5070
17053TIP3    H272651   1.869   6.067  16.184 -0.5258 -1.3602  0.5380
17054TIP3   OH272652   4.406   3.644  13.557 -0.1251 -0.4584  0.6211
17054TIP3    H172653   4.330   3.683  13.601  0.7034  1.0766  0.7245
17054TIP3    H272654   4.370   3.567  13.512 -1.1346 -1.6215  3.2957
17055TIP3   OH272655   1.652   4.914   6.455 -0.2288  0.1050  0.0538
17055TIP3    H172656   1.724   4.908   6.393 -0.1835  0.9804  0.0081
17055TIP3    H272657   1.665   4.999   6.498 -0.1547 -0.5649  1.3808
17056TIP3   OH272658   6.251   1.335   4.933 -0.0572  0.0188  0.3134
17056TIP3    H172659   6.260   1.369   5.022  3.0239 -0.7492  0.3497
17056TIP3    H272660   6.214   1.248   4.943 -2.1781  0.9310  0.6340
17057TIP3   OH272661   4.934   4.981  10.679 -0.6964 -0.1454  0.0243
17057TIP3    H172662   4.839   4.987  10.668 -0.6290  1.0642  0.0443
17057TIP3    H272663   4.966   4.950  10.594 -1.0557  0.0122 -0.1684
17058TIP3   OH272664   0.539   2.393  11.836 -0.0609 -0.7329  0.0817
17058TIP3    H172665   0.513   2.455  11.768  0.2590 -0.8227 -0.1211
17058TIP3    H272666   0.557   2.311  11.789  0.9042 -0.5857  0.1776
17059TIP3   OH272667   2.466   4.009  16.693  0.1177  0.1044 -0.0483
17059TIP3    H172668   2.440   3.917  16.698  0.6700 -0.1266 -1.2332
17059TIP3    H272669   2.384   4.058  16.702 -0.0855 -0.4663  1.4127
17060TIP3   OH272670   1.219   4.524  12.995 -0.0388 -0.2023 -0.1272
17060TIP3    H172671   1.214   4.450  12.935 -1.4477 -0.6024  0.4567
17060TIP3    H272672   1.177   4.596  12.947 -0.5193 -0.3325  0.0947
17061TIP3   OH272673   0.309   0.711   0.419  0.0826 -0.2430 -0.2660
17061TIP3    H172674   0.343   0.748   0.500 -0.0875  0.4753 -0.5162
17061TIP3    H272675   0.239   0.770   0.393  0.4111 -0.2281 -1.1518
17062TIP3   OH272676   6.744   2.967  12.496 -0.5891 -0.1821 -0.1845
17062TIP3    H172677   6.673   3.026  12.471 -0.4161 -0.1286 -0.5416
17062TIP3    H272678   6.745   2.900  12.428 -0.0888 -0.0087 -0.3435
17063TIP3   OH272679   5.226   4.514  13.977  0.0003 -0.1378 -0.7256
17063TIP3    H172680   5.132   4.511  13.996  0.3699 -2.2324  0.9410
17063TIP3    H272681   5.231   4.550  13.889 -2.5017 -1.8566 -1.6291
17064TIP3   OH272682   5.030   0.950   0.728  0.7689 -0.1330 -0.1288
17064TIP3    H172683   5.039   0.978   0.819  0.1362 -2.1979  0.5993
17064TIP3    H272684   5.093   1.004   0.680  1.4697  0.6254  1.6049
17065TIP3   OH272685   6.026   3.099   4.614 -0.2529  0.0524  0.4477
17065TIP3    H172686   6.053   3.083   4.705 -2.6327  1.0667  1.3727
17065TIP3    H272687   6.092   3.160   4.580 -0.5843  1.4453  2.2103
17066TIP3   OH272688   5.613   3.535  13.496 -0.0331 -0.5826 -0.0094
17066TIP3    H172689   5.623   3.621  13.536 -1.4867 -0.7841  0.8434
17066TIP3    H272690   5.701   3.509  13.470  0.5603  0.6915  0.7136
17067TIP3   OH272691   5.570   0.826   4.838 -0.0656  0.2585  0.4060
17067TIP3    H172692   5.494   0.870   4.876  0.5193  2.0498 -0.5052
17067TIP3    H272693   5.569   0.739   4.879 -1.4951  0.9257  1.8410
17068TIP3   OH272694   0.400   0.802  11.696 -0.8104  0.3812  0.0188
17068TIP3    H172695   0.396   0.872  11.631  0.4232  0.1265 -0.3469
17068TIP3    H272696   0.492   0.797  11.720 -1.2724  0.5652  1.9126
17069TIP3   OH272697   1.593   4.918  11.530 -0.2518  0.0052  0.0259
17069TIP3    H172698   1.637   4.863  11.465 -0.5055 -0.7264  0.4722
17069TIP3    H272699   1.603   4.871  11.612  0.5793  1.2110  0.6291
17070TIP3   OH272700   0.898   3.997   3.425 -0.3313 -0.6091  0.4476
17070TIP3    H172701   0.966   4.037   3.479 -0.0203 -1.1219  0.4476
17070TIP3    H272702   0.881   4.060   3.356  1.0545 -1.0125 -0.2724
17071TIP3   OH272703   5.747   5.597   1.643 -0.3369 -0.3927 -0.2334
17071TIP3    H172704   5.805   5.529   1.677 -0.6196 -1.2943 -1.5225
17071TIP3    H272705   5.748   5.665   1.710  1.7683 -0.6447  0.0335
17072TIP3   OH272706   0.185   0.964  12.172 -0.1884 -0.4281  0.4094
17072TIP3    H172707   0.107   0.916  12.143 -0.3043  0.2794 -0.4803
17072TIP3    H272708   0.215   1.010  12.094  2.2597 -2.2055  0.2271
17073TIP3   OH272709   3.316   4.761   5.073  0.2034 -0.1880  0.4823
17073TIP3    H172710   3.331   4.802   5.158 -0.1490  0.1655  0.3742
17073TIP3    H272711   3.394   4.706   5.059  0.0434 -0.6166  1.2471
17074TIP3   OH272712   1.533   4.781  13.088  0.0141  0.4899  0.0902
17074TIP3    H172713   1.438   4.789  13.099  0.0969  0.7485  0.6217
17074TIP3    H272714   1.543   4.709  13.026 -0.5620  1.1534 -0.7758
17075TIP3   OH272715   2.576   4.558  13.056  0.0421  0.1301 -0.4517
17075TIP3    H172716   2.499   4.611  13.037  0.1751 -0.5558 -3.1856
17075TIP3    H272717   2.637   4.578  12.984  1.7036 -0.6903  0.6874
17076TIP3   OH272718   3.769   3.177   0.526  0.3789 -0.0041  0.4653
17076TIP3    H172719   3.796   3.111   0.589 -0.1487  0.5449  1.2780
17076TIP3    H272720   3.674   3.167   0.519  0.8134 -2.8000 -3.3567
17077TIP3   OH272721   6.707   4.075   5.490 -0.3672 -0.2527  0.3470
17077TIP3    H172722   6.787   4.112   5.453 -0.9859 -2.1746 -3.1243
17077TIP3    H272723   6.717   3.981   5.477 -1.8246 -0.7576  2.7562
17078TIP3   OH272724   1.699   1.789   4.626 -0.2997 -0.7688  0.1561
17078TIP3    H172725   1.741   1.871   4.652 -0.0048 -0.9041  0.1177
17078TIP3    H272726   1.657   1.756   4.705  0.2166 -0.9567  0.3552
17079TIP3   OH272727   5.130   1.104  13.489 -0.4291 -0.0195  0.2575
17079TIP3    H172728   5.196   1.136  13.552  0.0975 -0.3436 -0.1249
17079TIP3    H272729   5.151   1.011  13.479  0.3611  0.3424 -1.4770
17080TIP3   OH272730   4.286   4.449  14.240  0.6936  0.4637 -0.4112
17080TIP3    H172731   4.294   4.366  14.286  2.2386 -0.0668 -1.6126
17080TIP3    H272732   4.275   4.425  14.148  1.7282  1.5958 -0.8458
17081TIP3   OH272733   3.717   0.180   3.137 -0.4342  0.3663 -0.2234
17081TIP3    H172734   3.710   0.091   3.172  0.8530  0.4035  0.1427
17081TIP3    H272735   3.705   0.169   3.043 -0.7280 -0.1433 -0.1287
17082TIP3   OH272736   4.606   4.127  12.470  0.2191 -0.8043  0.6500
17082TIP3    H172737   4.601   4.040  12.430 -0.9006 -0.3607 -0.2220
17082TIP3    H272738   4.536   4.177  12.428  0.4379  0.3383  1.5994
17083TIP3   OH272739   0.723   5.426  16.614  0.8168  0.4360 -0.2443
17083TIP3    H172740   0.711   5.421  16.708  0.6367  0.5981 -0.2587
17083TIP3    H272741   0.750   5.337  16.589  0.0895  0.1804 -0.1440
17084TIP3   OH272742   2.802   1.249   0.542 -0.0232  0.2813  0.1784
17084TIP3    H172743   2.824   1.182   0.477  1.3354 -0.8216  1.7013
17084TIP3    H272744   2.709   1.265   0.530 -0.4635 -2.1599 -0.0177
17085TIP3   OH272745   1.537   0.180  13.282  0.5611  0.3491  0.1338
17085TIP3    H172746   1.546   0.171  13.187 -1.0601  0.1251 -0.0203
17085TIP3    H272747   1.617   0.223  13.310  1.4576 -0.4075 -1.2189
17086TIP3   OH272748   2.056   5.188  15.324  0.1639 -0.5557 -0.0284
17086TIP3    H172749   2.052   5.261  15.261 -0.5868  0.0854  0.7458
17086TIP3    H272750   2.028   5.112  15.274 -3.2740  0.4532  0.2136
17087TIP3   OH272751   6.087   1.298  14.859  0.0738 -0.1755 -0.1694
17087TIP3    H172752   6.061   1.310  14.768  0.7942 -1.3731 -0.5432
17087TIP3    H272753   6.098   1.203  14.868  1.5300  0.0780  0.7420
17088TIP3   OH272754   0.284   1.803   3.560  0.1203  0.2549 -0.1221
17088TIP3    H172755   0.224   1.729   3.549 -0.7041  0.9298 -0.2555
17088TIP3    H272756   0.315   1.795   3.650  1.4942 -1.3081 -0.6924
17089TIP3   OH272757   2.111   4.814   2.599 -0.0394 -0.3028 -0.1582
17089TIP3    H172758   2.076   4.900   2.576 -0.2877 -0.9734 -2.3560
17089TIP3    H272759   2.205   4.830   2.613 -0.1114  0.3371 -0.3798
17090TIP3   OH272760   3.366   3.251  16.714  0.9496  0.1358  0.5945
17090TIP3    H172761   3.294   3.312  16.702  0.5164 -0.6506 -0.9571
17090TIP3    H272762   3.344   3.204  16.795 -0.8955 -0.9051 -0.4763
17091TIP3   OH272763   2.556   1.185   2.552  0.0703  0.7117 -0.2681
17091TIP3    H172764   2.587   1.228   2.473 -1.3894 -1.0765 -1.8555
17091TIP3    H272765   2.469   1.221   2.567  0.2113  0.8085  0.3534
17092TIP3   OH272766   2.435   0.371   2.394  0.3692  0.5577  0.6230
17092TIP3    H172767   2.433   0.352   2.300  1.3928  1.6963  0.3603
17092TIP3    H272768   2.522   0.344   2.422 -0.4929 -1.2951  1.5916
17093TIP3   OH272769   4.639   1.556  13.481  0.1465 -0.2197 -0.3886
17093TIP3    H172770   4.592   1.613  13.422 -1.4147 -0.0104  1.0218
17093TIP3    H272771   4.732   1.573  13.462 -0.3146  0.6057 -2.0014
17094TIP3   OH272772   1.282   2.528   2.905 -0.8248  0.3777 -0.5154
17094TIP3    H172773   1.228   2.457   2.870  0.8123  0.4147 -3.3097
17094TIP3    H272774   1.359   2.484   2.940 -0.6683  0.6271 -0.5468
17095TIP3   OH272775   2.638   4.956  10.465 -0.4422 -0.2333  0.0649
17095TIP3    H172776   2.563   4.920  10.417 -0.1539  0.1930 -0.7285
17095TIP3    H272777   2.655   5.039  10.421  0.9008 -0.6277 -0.1608
17096TIP3   OH272778   1.137   4.180   4.389  0.6980 -0.1363 -0.3617
17096TIP3    H172779   1.134   4.086   4.405  0.5309  0.0169  0.5006
17096TIP3    H272780   1.145   4.188   4.293  1.0932 -1.0259 -0.4063
17097TIP3   OH272781   4.854   5.055   2.640  0.5230 -0.1936  0.0739
17097TIP3    H172782   4.814   5.138   2.614 -2.0670 -1.2548  0.5979
17097TIP3    H272783   4.890   5.073   2.727 -2.7789 -0.4588  1.5395
17098TIP3   OH272784   5.775   0.357   1.479 -0.6752  0.4634  0.2542
17098TIP3    H172785   5.769   0.291   1.547 -1.3745  0.5457  0.2691
17098TIP3    H272786   5.732   0.318   1.403 -1.1379  0.9185  0.2774
17099TIP3   OH272787   3.355   4.812  15.427  0.0273 -0.1545  0.3831
17099TIP3    H172788   3.303   4.735  15.405 -0.2039  0.1147 -0.0090
17099TIP3    H272789   3.377   4.800  15.520  0.6691 -1.0799  0.1085
17100TIP3   OH272790   4.843   0.917   2.163  0.2158 -0.2393 -0.3236
17100TIP3    H172791   4.868   0.959   2.244 -0.4700  2.1960 -1.3422
17100TIP3    H272792   4.923   0.915   2.110  0.4869 -1.1598  0.1103
17101TIP3   OH272793   4.691   6.724   4.439  0.3754  0.0193 -0.1933
17101TIP3    H172794   4.617   6.767   4.480  1.2334  0.1856  1.2160
17101TIP3    H272795   4.693   6.637   4.479  0.9781  0.0398 -0.1779
17102TIP3   OH272796   6.526   3.816   3.388 -0.5658 -0.4262  0.0918
17102TIP3    H172797   6.526   3.723   3.365 -0.5800  0.1908 -2.5268
17102TIP3    H272798   6.563   3.819   3.476  2.5030 -2.6264 -1.0497
17103TIP3   OH272799   3.541   3.550  17.031 -0.1757 -0.8632  0.0562
17103TIP3    H172800   3.534   3.457  17.053  1.1292 -0.8059  0.7900
17103TIP3    H272801   3.609   3.553  16.963  1.7078 -0.2051  1.9039
17104TIP3   OH272802   2.475   6.597  13.273  0.4415 -0.2918  0.0694
17104TIP3    H172803   2.403   6.658  13.254  0.2932  0.0877  1.7528
17104TIP3    H272804   2.432   6.519  13.307  0.7459 -0.6021 -0.2607
17105TIP3   OH272805   1.512   5.077   1.395  0.4935 -0.4512 -0.2480
17105TIP3    H172806   1.540   5.134   1.323  2.9910 -1.9860 -0.5495
17105TIP3    H272807   1.428   5.041   1.366  0.5325  0.4564 -1.5337
17106TIP3   OH272808   4.524   5.633   0.330  0.1120 -0.6189  0.2347
17106TIP3    H172809   4.523   5.728   0.343  0.2047 -0.7141  0.9518
17106TIP3    H272810   4.605   5.616   0.282  0.2560 -0.3689  0.3876
17107TIP3   OH272811   5.084   3.878  14.567  0.3810  0.6900 -0.5634
17107TIP3    H172812   4.997   3.918  14.562  0.9457  1.9287 -0.5554
17107TIP3    H272813   5.091   3.827  14.486 -0.9159 -0.5943  0.1031
17108TIP3   OH272814   3.946   0.032  11.757  0.3193  0.3023 -0.1277
17108TIP3    H172815   3.987  -0.027  11.819 -2.1989 -1.7045 -0.2795
17108TIP3    H272816   3.884   0.083  11.810 -1.1406 -0.7416 -0.7863
17109TIP3   OH272817   4.136   5.295  15.372  0.6826 -0.1135 -0.3628
17109TIP3    H172818   4.108   5.268  15.459 -0.6406  2.1016 -0.0794
17109TIP3    H272819   4.231   5.291  15.375  0.6154 -1.5830  0.6588
17110TIP3   OH272820   1.212   2.101  16.529  0.1172  0.3370 -0.1891
17110TIP3    H172821   1.204   2.061  16.616 -0.1822 -0.4190 -0.5561
17110TIP3    H272822   1.278   2.049  16.484 -0.5792 -0.0166 -0.8201
17111TIP3   OH272823   2.888   3.760   5.213 -0.0431 -0.2894  0.0643
17111TIP3    H172824   2.946   3.830   5.182 -1.5362  1.5835  1.3445
17111TIP3    H272825   2.846   3.728   5.133  1.2392 -0.2827 -0.6348
17112TIP3   OH272826   4.306   0.784   2.004  1.0651  0.5640 -0.3435
17112TIP3    H172827   4.297   0.757   1.913 -0.4191  0.1604 -0.0878
17112TIP3    H272828   4.317   0.879   2.001  0.3558  0.6226 -0.8923
17113TIP3   OH272829   0.006   2.066   2.593  0.0401  0.2523  0.0201
17113TIP3    H172830  -0.007   1.973   2.574  1.7945  0.6796 -3.8211
17113TIP3    H272831  -0.023   2.111   2.514  2.2450  2.7424  0.5573
17114TIP3   OH272832   0.047   5.872  12.345  0.3149  0.1083 -0.0346
17114TIP3    H172833   0.128   5.836  12.310  0.1248 -2.2904  1.8475
17114TIP3    H272834  -0.011   5.796  12.355 -1.0370  1.2980  1.6215
17115TIP3   OH272835   4.401   0.835   4.591  0.0369 -0.3031  0.1031
17115TIP3    H172836   4.354   0.913   4.562 -0.5025 -1.6751 -2.9340
17115TIP3    H272837   4.350   0.803   4.666 -2.6499 -0.4628 -1.6894
17116TIP3   OH272838   1.003   6.072   5.231 -0.4008  0.2911  0.0914
17116TIP3    H172839   1.041   6.067   5.318  1.6916  0.5246 -0.7899
17116TIP3    H272840   1.021   6.161   5.202  0.6505 -0.3714 -1.3380
17117TIP3   OH272841   2.537   1.585  13.822 -0.6659 -0.3518  0.3973
17117TIP3    H172842   2.507   1.500  13.853  1.5462 -1.0394  0.7769
17117TIP3    H272843   2.520   1.645  13.895 -3.0099 -0.2735 -0.1910
17118TIP3   OH272844   3.097   3.956   1.848  0.3957 -0.1946  0.0154
17118TIP3    H172845   3.149   4.026   1.888 -1.0576  1.2092 -0.5120
17118TIP3    H272846   3.149   3.877   1.862  1.9716  0.9518  0.7988
17119TIP3   OH272847   4.547   6.754   3.368  0.4202 -0.1398  0.5067
17119TIP3    H172848   4.598   6.787   3.442  1.2467  0.7592 -0.4635
17119TIP3    H272849   4.612   6.735   3.300 -0.4340 -0.0034 -0.3578
17120TIP3   OH272850   4.893   6.813   5.375  0.1698  0.5325 -0.4037
17120TIP3    H172851   4.964   6.752   5.356  2.0094  2.2103  0.9818
17120TIP3    H272852   4.916   6.892   5.327 -1.4356  0.6860 -0.9675
17121TIP3   OH272853   4.089   3.557   2.456  0.9525 -0.1360  0.3745
17121TIP3    H172854   4.066   3.642   2.418  0.0263 -1.3388 -1.8738
17121TIP3    H272855   4.050   3.559   2.544  0.9692  1.7633  0.3587
17122TIP3   OH272856   2.385   0.824   6.050  0.2021 -0.3831  0.3026
17122TIP3    H172857   2.296   0.802   6.079 -0.1474  1.3223  0.5807
17122TIP3    H272858   2.375   0.841   5.956  0.0796  0.5527  0.4796
17123TIP3   OH272859   4.889   2.561  16.214  0.3360 -0.0789  0.4573
17123TIP3    H172860   4.851   2.482  16.251  0.5168 -0.0603  0.6826
17123TIP3    H272861   4.831   2.631  16.242  0.2585 -0.1128  0.3813
17124TIP3   OH272862   2.515   0.112   3.499 -0.2886 -0.0940 -0.4974
17124TIP3    H172863   2.563   0.121   3.417 -0.1145 -0.1352 -0.3991
17124TIP3    H272864   2.540   0.026   3.532  2.1455  1.1997  1.2222
17125TIP3   OH272865   2.507   1.858  11.134  0.0272 -0.3998 -0.1429
17125TIP3    H172866   2.500   1.897  11.222 -1.4770 -1.8256  0.3785
17125TIP3    H272867   2.571   1.914  11.089 -0.4524  1.3693  1.2945
17126TIP3   OH272868   1.975   3.447   3.134 -0.8037  0.3065  0.0688
17126TIP3    H172869   1.963   3.376   3.071  0.2376  0.4917 -0.3364
17126TIP3    H272870   1.927   3.417   3.212 -0.4064 -0.8191 -0.1062
17127TIP3   OH272871   0.229   5.773  15.578 -0.2499 -0.7768  0.3048
17127TIP3    H172872   0.260   5.843  15.521  0.8374 -1.5838 -0.0894
17127TIP3    H272873   0.201   5.819  15.658  0.4081  0.1183  0.0320
17128TIP3   OH272874   3.030   3.241   1.461 -0.9589 -0.4621  0.2408
17128TIP3    H172875   3.039   3.332   1.431 -1.5665 -0.2339  0.7346
17128TIP3    H272876   2.973   3.247   1.538  1.3731 -0.8928  2.0663
17129TIP3   OH272877   0.605   3.102   3.024 -0.3748  0.5419  0.1154
17129TIP3    H172878   0.700   3.103   3.010  0.0860 -2.3335  2.7701
17129TIP3    H272879   0.594   3.095   3.118 -3.2947  1.8379 -0.0623
17130TIP3   OH272880   1.454   5.697   3.155  0.6782  0.8306 -0.2582
17130TIP3    H172881   1.403   5.636   3.208  2.0578 -1.0352 -1.0319
17130TIP3    H272882   1.428   5.784   3.186 -3.2547 -0.0360 -0.9407
17131TIP3   OH272883   6.783   1.565  11.295  0.0965  0.3922  0.2192
17131TIP3    H172884   6.771   1.548  11.202  0.6821 -0.6151  0.3293
17131TIP3    H272885   6.874   1.543  11.313  1.0978  4.1527  0.2629
17132TIP3   OH272886   1.936   4.472   3.452  0.5026 -0.1529  0.3833
17132TIP3    H172887   1.861   4.526   3.474  1.5519  1.5052 -0.0219
17132TIP3    H272888   1.999   4.488   3.522 -0.1206 -2.7827  1.5902
17133TIP3   OH272889   5.101   2.866   5.291 -0.2301 -0.0569 -0.2406
17133TIP3    H172890   5.160   2.928   5.250 -1.1849 -0.3449 -2.0940
17133TIP3    H272891   5.088   2.901   5.380  0.4561  1.5354 -0.7450
17134TIP3   OH272892   6.079   0.705  12.001  0.4079  0.5407 -0.0914
17134TIP3    H172893   6.079   0.624  11.949 -1.1525  0.7829 -0.4950
17134TIP3    H272894   6.171   0.727  12.009  0.9635 -2.0354  1.2081
17135TIP3   OH272895   0.872   3.395   1.197  0.6291 -0.1211 -0.0363
17135TIP3    H172896   0.835   3.425   1.280  1.1300 -0.4716  0.3174
17135TIP3    H272897   0.890   3.302   1.211  0.9624 -0.1219 -0.4494
17136TIP3   OH272898   0.318   4.984   0.182 -0.1026  0.2102 -0.3892
17136TIP3    H172899   0.321   5.073   0.216  0.6572 -0.4055  1.1915
17136TIP3    H272900   0.397   4.942   0.216 -0.7442 -1.2329 -0.6321
17137TIP3   OH272901   6.452   6.611   6.569 -0.0326 -0.2567 -0.3499
17137TIP3    H172902   6.501   6.629   6.489 -1.8068  0.3298 -1.3491
17137TIP3    H272903   6.370   6.572   6.538 -0.6713 -0.1492  1.1896
17138TIP3   OH272904   0.091   3.567   1.966 -0.1383 -0.0508  0.1174
17138TIP3    H172905   0.081   3.634   2.033  0.8353 -0.3913  0.6233
17138TIP3    H272906   0.185   3.567   1.946 -0.4067 -0.0165 -1.1754
17139TIP3   OH272907   2.433   3.013  12.105 -0.6648 -0.4332  0.1320
17139TIP3    H172908   2.384   2.941  12.144  0.1794 -0.4326  1.2314
17139TIP3    H272909   2.372   3.086  12.104 -0.8250 -0.5461  1.1249
17140TIP3   OH272910   0.746   1.914  14.265  0.1830  0.1723  0.0548
17140TIP3    H172911   0.674   1.909  14.203  0.8450 -1.4531 -0.6019
17140TIP3    H272912   0.737   2.000  14.305 -1.3108  0.5219 -0.9977
17141TIP3   OH272913   6.500   5.031   5.800  0.2040  0.3887  0.1081
17141TIP3    H172914   6.580   5.029   5.746  0.0723  1.3788 -0.1376
17141TIP3    H272915   6.488   5.124   5.821 -1.2257  0.3186 -0.3714
17142TIP3   OH272916   3.286   2.487   3.028  0.1452  0.2523 -0.3339
17142TIP3    H172917   3.207   2.471   3.079  0.3306  1.9427  0.5204
17142TIP3    H272918   3.255   2.505   2.940 -0.4637  1.2838  0.0826
17143TIP3   OH272919   6.475   0.382  16.905  0.0596  0.6015 -0.3461
17143TIP3    H172920   6.460   0.315  16.971 -0.0343 -0.1410 -1.1177
17143TIP3    H272921   6.406   0.446  16.920  0.3555  0.7082  0.6127
17144TIP3   OH272922   2.011   5.326   0.800 -0.4568  0.0376 -0.0810
17144TIP3    H172923   1.937   5.385   0.819  1.7985  3.1346 -0.4920
17144TIP3    H272924   2.029   5.342   0.707  0.3555 -1.1598 -0.1298
17145TIP3   OH272925   4.677   3.763   5.111  0.0906 -0.6612 -0.5387
17145TIP3    H172926   4.772   3.774   5.105  0.1019 -0.8295 -0.6932
17145TIP3    H272927   4.642   3.852   5.117  0.3237 -0.6379  0.4910
17146TIP3   OH272928   0.741   6.348  11.131  0.4343 -0.2992 -0.4049
17146TIP3    H172929   0.764   6.426  11.080  0.3007 -0.3937 -0.6064
17146TIP3    H272930   0.817   6.335  11.188  0.1046  0.4718  0.2247
17147TIP3   OH272931   0.357   5.131  15.353  0.1110 -0.4880  0.2842
17147TIP3    H172932   0.312   5.138  15.437  1.1581  0.6698  0.7682
17147TIP3    H272933   0.323   5.204  15.301  0.5604 -0.3058  0.2409
17148TIP3   OH272934   4.904   5.472   0.455 -0.0908 -0.2676  0.0486
17148TIP3    H172935   4.824   5.461   0.507 -0.2824  2.8781  0.4905
17148TIP3    H272936   4.874   5.516   0.375  1.2635  1.4971  0.4927
17149TIP3   OH272937   1.365   1.441   0.476  0.1329  0.1312  0.5413
17149TIP3    H172938   1.395   1.529   0.453  0.0864  0.3211  1.1824
17149TIP3    H272939   1.445   1.389   0.483  0.0386 -0.4493 -2.0510
17150TIP3   OH272940   2.168   5.131  15.024 -0.0532 -0.4627  0.1780
17150TIP3    H172941   2.111   5.186  14.970 -0.5998 -1.5305 -0.3446
17150TIP3    H272942   2.252   5.178  15.026 -0.7982  0.8776  0.5575
17151TIP3   OH272943   4.450   0.073  15.815 -0.0445  0.0259 -0.1899
17151TIP3    H172944   4.512   0.011  15.777  2.6280  2.3885  0.1352
17151TIP3    H272945   4.503   0.151  15.834 -2.2494  0.6111  4.0470
17152TIP3   OH272946   1.295   0.785   0.681  0.0743 -0.1736 -0.2530
17152TIP3    H172947   1.235   0.710   0.685 -2.0053  1.4694  0.1636
17152TIP3    H272948   1.237   0.861   0.678  2.1773  1.4763  0.4742
17153TIP3   OH272949   6.188   6.328   0.961  0.0646 -0.9167 -0.6639
17153TIP3    H172950   6.220   6.418   0.969 -0.5142 -0.5194 -2.4565
17153TIP3    H272951   6.264   6.279   0.929 -0.1095 -0.6866 -1.4499
17154TIP3   OH272952   4.290   5.463  15.708  0.1144 -0.1552  0.6355
17154TIP3    H172953   4.247   5.548  15.712  1.3364  0.4543  1.3166
17154TIP3    H272954   4.363   5.476  15.648  0.0986 -0.8185  0.4738
17155TIP3   OH272955   1.178   0.334  10.345 -0.3927  0.7661 -0.0294
17155TIP3    H172956   1.225   0.418  10.343  2.8273 -1.0008 -1.5921
17155TIP3    H272957   1.143   0.324  10.257  2.0111 -0.9894 -0.8304
17156TIP3   OH272958   2.063   3.157  11.753 -0.4416  0.3235 -0.0465
17156TIP3    H172959   2.035   3.240  11.716 -0.7515 -0.3751 -1.4044
17156TIP3    H272960   2.147   3.139  11.711 -0.4105 -0.0935  0.1891
17157TIP3   OH272961   3.599   0.781   0.345  0.5746 -0.5160 -0.1255
17157TIP3    H172962   3.669   0.716   0.352  1.3760  0.4973  1.4075
17157TIP3    H272963   3.582   0.787   0.251  1.3745 -1.9995 -0.3785
17158TIP3   OH272964   5.761   2.274  15.422 -0.0031 -0.3404 -0.0468
17158TIP3    H172965   5.726   2.334  15.357  1.5788  1.3874  0.6310
17158TIP3    H272966   5.850   2.306  15.438  0.2558 -1.8220  1.6286
17159TIP3   OH272967   1.296   2.207  11.240  0.2778 -0.3209  0.6475
17159TIP3    H172968   1.362   2.170  11.182  0.7810  1.7806 -0.1665
17159TIP3    H272969   1.215   2.162  11.216  1.1332 -1.9751  0.7660
17160TIP3   OH272970   1.739   4.297   0.317  0.3306 -0.0578  0.3563
17160TIP3    H172971   1.655   4.316   0.277  0.7587 -0.3190 -0.6671
17160TIP3    H272972   1.726   4.316   0.410 -0.3444  1.5839 -0.0631
17161TIP3   OH272973   5.179   1.778  12.692  0.2550 -1.0626  0.2495
17161TIP3    H172974   5.265   1.805  12.662  0.3798 -2.4409 -0.6734
17161TIP3    H272975   5.120   1.847  12.661  0.8964 -0.5687  0.1222
17162TIP3   OH272976   1.215   5.104  15.960  0.1478  0.7600  0.3086
17162TIP3    H172977   1.155   5.036  15.992 -0.1025  1.0530  0.4643
17162TIP3    H272978   1.190   5.117  15.869  0.3809  0.4409  0.2006
17163TIP3   OH272979   6.805   6.420  13.004  0.2622 -0.1145 -0.3790
17163TIP3    H172980   6.888   6.464  13.023  0.7359 -1.8589  1.8952
17163TIP3    H272981   6.744   6.456  13.068 -0.2288 -0.2672 -0.7581
17164TIP3   OH272982   5.472   5.418   5.960  0.6993 -0.4284  1.0964
17164TIP3    H172983   5.415   5.465   6.021 -0.3934  1.1451 -1.0571
17164TIP3    H272984   5.560   5.448   5.982  0.1738  1.3395  0.8919
17165TIP3   OH272985   0.449   1.105   0.764  0.2475 -0.1658  0.1614
17165TIP3    H172986   0.403   1.103   0.849  0.1989  0.5425  0.1575
17165TIP3    H272987   0.380   1.095   0.699  0.1087  0.7431  0.1611
17166TIP3   OH272988   5.555   6.507  16.391  0.0980  0.5343 -0.2212
17166TIP3    H172989   5.581   6.544  16.306  2.5772  0.1955  0.3629
17166TIP3    H272990   5.630   6.455  16.418 -0.5880  0.8343  2.3214
17167TIP3   OH272991   1.064   5.495  15.740 -0.4254  0.1904 -0.0904
17167TIP3    H172992   1.157   5.516  15.728 -0.8366  1.3643 -1.3846
17167TIP3    H272993   1.058   5.460  15.829  1.0812  1.1301  0.3924
17168TIP3   OH272994   6.727   4.476   3.683  0.3116 -0.1038 -0.1171
17168TIP3    H172995   6.640   4.515   3.685  0.3872  0.1778 -1.8693
17168TIP3    H272996   6.771   4.511   3.761 -1.9517 -2.2472  2.1950
17169TIP3   OH272997   4.635   3.059   3.154 -0.0158  0.0438  0.0564
17169TIP3    H172998   4.552   3.014   3.169 -1.1107  2.5841  1.9337
17169TIP3    H272999   4.631   3.089   3.064 -1.4532  0.7999  0.3707
17170TIP3   OH273000   1.686   0.502  12.733  0.2213  0.2644 -0.2703
17170TIP3    H173001   1.765   0.554  12.751  0.9954 -1.2222  0.8327
17170TIP3    H273002   1.694   0.427  12.792 -1.7018 -0.2517 -0.6383
17171TIP3   OH273003   6.203   1.150  16.910  0.7015 -0.2176 -0.3759
17171TIP3    H173004   6.160   1.229  16.879 -0.7445 -0.7604  0.2118
17171TIP3    H273005   6.132   1.094  16.941  1.6625 -1.8647 -1.0348
17172TIP3   OH273006   4.286   0.164  16.174 -0.3190  0.4756 -0.7842
17172TIP3    H173007   4.213   0.113  16.210 -1.1726  1.7532 -0.6742
17172TIP3    H273008   4.256   0.255  16.177  2.6639  1.4610  2.6219
17173TIP3   OH273009   2.883   5.497  16.569 -0.1631 -0.6411 -0.6042
17173TIP3    H173010   2.813   5.489  16.635 -0.4182 -1.1116 -0.9279
17173TIP3    H273011   2.900   5.591  16.563 -0.9096 -0.5066 -0.6613
17174TIP3   OH273012   1.126   3.837   1.997  0.0042 -0.3486  0.5357
17174TIP3    H173013   1.173   3.897   1.939 -0.7708 -0.3234 -0.0750
17174TIP3    H273014   1.098   3.891   2.071 -0.2193 -0.0714  0.2498
17175TIP3   OH273015   3.084   5.962   1.414 -0.1225  0.0191  0.0558
17175TIP3    H173016   2.996   5.974   1.378  0.3107 -1.2493 -1.4511
17175TIP3    H273017   3.083   5.874   1.452  0.8109 -0.4184 -0.9080
17176TIP3   OH273018   3.090   4.197   4.570 -0.0741  0.2440  0.0225
17176TIP3    H173019   3.157   4.264   4.559 -0.5104  0.8657  1.0797
17176TIP3    H273020   3.007   4.242   4.556 -0.2880 -0.5573 -1.4288
17177TIP3   OH273021   0.575   2.181  15.264 -0.1089  0.5241 -0.3819
17177TIP3    H173022   0.639   2.116  15.234 -0.5754  0.1785 -0.6221
17177TIP3    H273023   0.525   2.136  15.332 -1.6656 -0.0042 -1.8237
17178TIP3   OH273024   4.531   1.287  14.053 -0.1953  0.0368 -0.1858
17178TIP3    H173025   4.573   1.352  13.997  0.7205 -0.5750 -0.2421
17178TIP3    H273026   4.517   1.332  14.136  1.1473  0.0880  0.0264
17179TIP3   OH273027   1.141   3.609   6.056 -0.0481  0.1621 -0.1512
17179TIP3    H173028   1.225   3.565   6.043 -0.0075 -0.6544  2.4374
17179TIP3    H273029   1.163   3.702   6.054  0.8586 -0.0371  0.0343
17180TIP3   OH273030   2.903   0.544   6.513 -0.1931  0.3208 -0.4987
17180TIP3    H173031   2.931   0.453   6.502 -2.1031 -0.2298 -0.8810
17180TIP3    H273032   2.944   0.591   6.440  0.1334 -0.3703 -0.7653
17181TIP3   OH273033   6.513   3.274   6.399 -0.3334  0.2227  0.3876
17181TIP3    H173034   6.519   3.185   6.365 -2.5594 -0.7538  2.4062
17181TIP3    H273035   6.438   3.272   6.458  0.3433  3.1380  1.4211
17182TIP3   OH273036   6.116   1.716  15.534 -0.2051 -0.5219  0.1014
17182TIP3    H173037   6.102   1.779  15.604 -2.4585  0.3721 -1.1187
17182TIP3    H273038   6.210   1.700  15.535 -0.0077  0.5616  2.3801
17183TIP3   OH273039   1.350   2.539  14.821 -0.1608  0.2478  0.1160
17183TIP3    H173040   1.264   2.499  14.811 -0.0072 -0.4207  1.3714
17183TIP3    H273041   1.405   2.469  14.857  1.1514  0.3832 -1.5846
17184TIP3   OH273042   4.711   3.325   6.171  0.4526 -0.2301 -0.1324
17184TIP3    H173043   4.659   3.363   6.100  2.7444  1.8367 -0.7858
17184TIP3    H273044   4.795   3.306   6.131  1.4805  0.1295  1.8070
17185TIP3   OH273045   1.966   0.993  15.054 -0.1975  0.2023 -0.3144
17185TIP3    H173046   2.034   1.055  15.080 -0.5637 -0.4603  2.3401
17185TIP3    H273047   2.015   0.914  15.028  0.0794  0.1025  0.5163
17186TIP3   OH273048   4.269   3.646  12.648 -0.1867  0.6426 -0.0957
17186TIP3    H173049   4.324   3.716  12.683  0.1896  0.5665 -0.5311
17186TIP3    H273050   4.240   3.597  12.725  0.0105  0.9405  0.1674
17187TIP3   OH273051   0.666   2.100  12.144  0.0180 -0.0911 -0.6724
17187TIP3    H173052   0.612   2.141  12.212 -0.7337 -0.5264 -0.9988
17187TIP3    H273053   0.756   2.121  12.169 -0.3266  1.2564 -0.5146
17188TIP3   OH273054   4.229   2.575  12.147  0.4522  0.2679 -0.0698
17188TIP3    H173055   4.216   2.581  12.242 -0.1347 -1.0429 -0.0664
17188TIP3    H273056   4.315   2.535  12.138  0.2289 -0.2050 -0.0924
17189TIP3   OH273057   1.486   2.770  14.778 -0.0486  0.0230 -0.7594
17189TIP3    H173058   1.424   2.697  14.780 -0.0305  0.0049 -0.8418
17189TIP3    H273059   1.431   2.848  14.789  0.0917 -0.0866  0.8434
17190TIP3   OH273060   5.321   6.045   5.159  0.0162  0.2096 -0.1055
17190TIP3    H173061   5.378   6.053   5.235  1.5997  0.1782 -1.2839
17190TIP3    H273062   5.287   5.955   5.164 -0.7134  0.5441  1.1295
17191TIP3   OH273063   5.304   4.375  13.677 -0.0828 -0.0263  0.2279
17191TIP3    H173064   5.214   4.395  13.651  0.0982 -0.9279 -1.1588
17191TIP3    H273065   5.358   4.421  13.612  0.4670  0.5863  1.1109
17192TIP3   OH273066   3.501   5.362   2.808  0.3073  0.1885 -0.1244
17192TIP3    H173067   3.509   5.436   2.749 -0.9454  0.0786 -0.4448
17192TIP3    H273068   3.414   5.326   2.790  0.0938 -0.1217  1.4530
17193TIP3   OH273069   2.539   2.234  17.018 -0.0582  0.3233 -0.0000
17193TIP3    H173070   2.517   2.282  17.097  1.2139  0.3328  0.3548
17193TIP3    H273071   2.455   2.208  16.981 -0.7306  2.2383  0.1589
17194TIP3   OH273072   4.518   0.861   2.844  0.0361  0.6751  0.4841
17194TIP3    H173073   4.602   0.836   2.883 -0.4603  1.0309  1.8086
17194TIP3    H273074   4.514   0.811   2.762  0.8589 -0.5074  1.1467
17195TIP3   OH273075   4.759   0.861  12.692  0.0976  0.1940  0.3611
17195TIP3    H173076   4.663   0.862  12.690  0.1200  0.1388 -2.1662
17195TIP3    H273077   4.784   0.953  12.700 -0.1453  0.2818  0.1022
17196TIP3   OH273078   2.952   6.756  11.950 -0.0965  0.5706 -0.1235
17196TIP3    H173079   3.015   6.825  11.971 -0.1067  0.2280  1.0817
17196TIP3    H273080   2.988   6.714  11.872  1.2775  0.2709  0.6511
17197TIP3   OH273081   5.649   4.887  16.971  0.1376  0.4497 -0.0943
17197TIP3    H173082   5.742   4.884  16.994  0.6269 -0.0623 -2.1321
17197TIP3    H273083   5.644   4.948  16.897 -0.9410 -0.6834 -0.9651
17198TIP3   OH273084   5.366   0.325   0.821 -0.3681  0.5572 -0.5487
17198TIP3    H173085   5.361   0.413   0.782  2.1210 -0.3178 -3.0017
17198TIP3    H273086   5.357   0.266   0.746 -0.0006 -1.2476  0.8171
17199TIP3   OH273087   5.430   3.881  14.236  0.4285  0.4050 -0.3341
17199TIP3    H173088   5.393   3.960  14.195  0.7408  0.6676 -0.1174
17199TIP3    H273089   5.464   3.830  14.162  0.7807  0.7688 -0.4308
17200TIP3   OH273090   0.962   4.087  12.956 -0.0259 -0.0228  0.4169
17200TIP3    H173091   0.968   4.079  12.861 -0.3631 -2.4268  0.5565
17200TIP3    H273092   1.052   4.103  12.984  0.4587 -1.6204 -0.1559
17201TIP3   OH273093   1.389   6.235   4.102 -0.4941  0.8930 -0.4848
17201TIP3    H173094   1.428   6.287   4.172 -2.3876 -0.5927  1.7131
17201TIP3    H273095   1.310   6.282   4.077 -1.1823  0.0763  0.1575
17202TIP3   OH273096   6.036   3.870  10.649  0.7344 -0.2906  0.3000
17202TIP3    H173097   6.018   3.780  10.675  2.4867 -1.0104 -0.8886
17202TIP3    H273098   6.074   3.863  10.561  0.7326  1.6073  0.1164
17203TIP3   OH273099   2.336   4.842  17.061  0.1320  0.8463 -0.7058
17203TIP3    H173100   2.266   4.794  17.016  1.5337  0.8752 -2.9691
17203TIP3    H273101   2.405   4.777  17.074  0.0735  1.0476  0.6988
17204TIP3   OH273102   2.376   1.112   0.865  0.5667 -0.5275  0.2281
17204TIP3    H173103   2.466   1.093   0.840 -0.2426 -2.8993 -1.0383
17204TIP3    H273104   2.348   1.035   0.914 -1.8450 -1.3801 -2.3749
17205TIP3   OH273105   2.067   2.644   3.632 -0.3198  0.3450  0.2261
17205TIP3    H173106   1.973   2.634   3.651 -0.2794 -0.0228  0.2367
17205TIP3    H273107   2.072   2.648   3.537 -0.2686 -0.4624  0.1912
17206TIP3   OH273108   0.395   5.264   0.287  0.1073  0.3152 -0.2750
17206TIP3    H173109   0.487   5.239   0.288  0.1360  0.4240 -0.1781
17206TIP3    H273110   0.369   5.265   0.379  0.1348  0.7410 -0.2691
17207TIP3   OH273111   1.951   3.332  17.276 -0.2748 -0.6216 -0.5451
17207TIP3    H173112   1.955   3.424  17.250  0.2028 -0.4974 -0.0453
17207TIP3    H273113   1.858   3.315  17.287 -0.2251  0.8133  2.8209
17208TIP3   OH273114   0.182   6.483  11.569  0.2490  0.4826  0.0715
17208TIP3    H173115   0.204   6.420  11.638 -2.1071 -0.5376 -0.0664
17208TIP3    H273116   0.176   6.431  11.489 -0.7958  1.0276 -0.2138
17209TIP3   OH273117   4.323   4.314  10.767  0.4007  0.3130  0.5220
17209TIP3    H173118   4.312   4.323  10.862  1.4185 -0.6460  0.7304
17209TIP3    H273119   4.361   4.398  10.740 -1.5059  1.2592  0.6965
17210TIP3   OH273120   2.860   3.642   5.449 -0.1048  0.1264 -0.2762
17210TIP3    H173121   2.774   3.600   5.452  0.2886 -0.6542  0.1665
17210TIP3    H273122   2.859   3.693   5.368 -0.7681 -0.3463 -0.5679
17211TIP3   OH273123   2.322   1.146   1.894  0.6267  0.3124 -0.4541
17211TIP3    H173124   2.360   1.060   1.908 -0.0572  0.1528  0.5081
17211TIP3    H273125   2.391   1.196   1.850  1.2469 -0.5337 -0.4601
17212TIP3   OH273126   2.733   6.793   5.863  0.1471 -0.1413  0.1638
17212TIP3    H173127   2.807   6.843   5.830 -0.2219  0.6632  0.5570
17212TIP3    H273128   2.764   6.757   5.947  0.5231 -0.8539 -0.2717
17213TIP3   OH273129   1.263   2.035   3.409 -0.2040 -0.0426  0.0531
17213TIP3    H173130   1.334   2.011   3.350  2.3283  1.4819  2.3462
17213TIP3    H273131   1.243   1.955   3.457 -0.0685 -0.4690 -0.5918
17214TIP3   OH273132   4.204   5.761   2.789  0.3940 -0.2079  0.0053
17214TIP3    H173133   4.168   5.814   2.861 -0.8370 -4.5055  2.7885
17214TIP3    H273134   4.299   5.770   2.799  0.2172  1.0016  0.7963
17215TIP3   OH273135   5.930   6.253   0.929  0.2616 -0.4722  0.2520
17215TIP3    H173136   6.010   6.303   0.946  0.1645 -0.1143 -0.3156
17215TIP3    H273137   5.910   6.211   1.013  1.3067 -0.9593  0.2659
17216TIP3   OH273138   5.146   5.440   0.246  0.0246  0.1978  0.1532
17216TIP3    H173139   5.068   5.393   0.275 -1.7235  2.3346 -0.8821
17216TIP3    H273140   5.171   5.493   0.321 -0.2850  0.4291  0.0980
17217TIP3   OH273141   3.815   5.128  16.097 -0.1057 -0.2750 -0.0535
17217TIP3    H173142   3.731   5.126  16.143 -0.1250 -1.2818 -0.1209
17217TIP3    H273143   3.871   5.184  16.152 -0.7773  0.2995  0.0506
17218TIP3   OH273144   5.634   2.394  14.596  0.4262  0.2351 -0.4390
17218TIP3    H173145   5.693   2.319  14.606 -1.5901 -1.3645 -0.2949
17218TIP3    H273146   5.671   2.461  14.653  2.4212 -0.5334 -0.7932
17219TIP3   OH273147   5.408   5.525   2.310 -0.4428  0.1172  0.1127
17219TIP3    H173148   5.440   5.535   2.399 -0.4092 -1.6423  0.3069
17219TIP3    H273149   5.480   5.559   2.255  0.7018 -1.3863  0.6461
17220TIP3   OH273150   3.921   1.032  16.652 -0.6672 -0.1319  0.2560
17220TIP3    H173151   3.877   0.973  16.590 -1.4119  0.2319  0.4372
17220TIP3    H273152   3.873   1.022  16.734 -0.4695  0.3368  0.4316
17221TIP3   OH273153   2.361   6.660   1.070  0.0873 -0.2184  0.1651
17221TIP3    H173154   2.317   6.742   1.049 -0.7431 -0.6746  0.0978
17221TIP3    H273155   2.454   6.684   1.080  0.0306  0.5100 -1.0335
17222TIP3   OH273156   4.911   3.860   1.704 -0.6187  0.6575  0.1523
17222TIP3    H173157   4.954   3.934   1.749  0.1770  1.2222 -1.4700
17222TIP3    H273158   4.955   3.783   1.739  0.2540  1.1095  0.0818
17223TIP3   OH273159   6.503   6.035   5.565  0.4132 -0.3369 -0.6769
17223TIP3    H173160   6.482   6.121   5.529 -1.3867  0.5195  2.2339
17223TIP3    H273161   6.420   5.987   5.561  0.5092 -0.6802  0.9819
17224TIP3   OH273162   5.857   5.724   4.706 -0.3561 -0.2963 -0.8512
17224TIP3    H173163   5.782   5.666   4.717  0.2944 -1.3710 -1.8395
17224TIP3    H273164   5.859   5.743   4.612 -1.0637  2.0505 -0.4279
17225TIP3   OH273165   4.598   2.107  14.494  0.2256  0.4016  0.6418
17225TIP3    H173166   4.674   2.052  14.477 -1.9356 -1.9687 -1.7909
17225TIP3    H273167   4.542   2.054  14.552 -0.8382  0.9500  0.1333
17226TIP3   OH273168   1.173   6.512   5.907  0.5545  0.3522 -0.6023
17226TIP3    H173169   1.229   6.461   5.966 -0.6705  1.9300  2.0208
17226TIP3    H273170   1.232   6.576   5.867  1.3714 -0.6629 -1.0580
17227TIP3   OH273171   5.710   1.162  11.638  0.4112  0.4208  0.4471
17227TIP3    H173172   5.765   1.183  11.563  1.4202  0.2051  1.1071
17227TIP3    H273173   5.770   1.122  11.701 -0.8377 -1.3575  0.5300
17228TIP3   OH273174   2.901   3.283  10.432  0.4327 -0.1015  0.1471
17228TIP3    H173175   2.874   3.374  10.443  0.7053  0.0298 -0.2621
17228TIP3    H273176   2.982   3.276  10.483  1.8598  0.5864 -1.9503
17229TIP3   OH273177   6.811   1.806  11.460  0.5112 -0.3494 -0.2051
17229TIP3    H173178   6.817   1.725  11.410  0.3798  0.0178 -0.8205
17229TIP3    H273179   6.874   1.865  11.418  1.0079 -0.3088  0.5803
17230TIP3   OH273180   4.836   1.450  17.095  0.7986  0.1985 -0.2369
17230TIP3    H173181   4.891   1.515  17.051  0.0527  0.8415 -0.2256
17230TIP3    H273182   4.778   1.502  17.150  2.5465 -0.6419  2.4977
17231TIP3   OH273183   4.347   2.542   0.837  0.3429  0.7354  0.4437
17231TIP3    H173184   4.426   2.597   0.838 -0.6598  2.1933  1.1169
17231TIP3    H273185   4.288   2.587   0.777  0.2790 -0.7384 -0.6118
17232TIP3   OH273186   3.379   5.250   0.341 -0.1745  0.2711  0.5437
17232TIP3    H173187   3.427   5.334   0.339 -1.3324  0.9288 -0.0071
17232TIP3    H273188   3.319   5.258   0.415 -0.3444 -0.0404  0.4401
17233TIP3   OH273189   3.353   1.096  10.990  0.1376  0.2045  0.0458
17233TIP3    H173190   3.315   1.182  10.977  1.9590  1.0001 -0.1155
17233TIP3    H273191   3.443   1.104  10.961  0.5241 -1.5785  0.6489
17234TIP3   OH273192   3.882   5.920   4.648 -0.7347  0.0358  0.0107
17234TIP3    H173193   3.814   5.853   4.660 -1.1550  0.4607  0.0300
17234TIP3    H273194   3.940   5.883   4.582  1.2916 -2.0871  2.8503
17235TIP3   OH273195   0.391   1.891   2.200  0.6687  0.3701 -0.2538
17235TIP3    H173196   0.393   1.900   2.295  1.3667  1.8085 -0.3986
17235TIP3    H273197   0.316   1.944   2.173  0.0463 -0.5966 -0.4593
17236TIP3   OH273198   1.385   3.785   6.128  0.2755  0.1392 -0.5488
17236TIP3    H173199   1.310   3.829   6.089 -0.5856  2.5689  3.5558
17236TIP3    H273200   1.348   3.731   6.198  2.1661 -0.1842  0.2412
17237TIP3   OH273201   2.249   0.893  16.918 -0.1752 -0.1674 -0.3543
17237TIP3    H173202   2.278   0.964  16.975 -0.4284 -0.6516  0.3877
17237TIP3    H273203   2.168   0.926  16.878 -0.0448  0.1412 -0.3628
17238TIP3   OH273204   2.373   0.639  15.773  0.1318 -0.8899  0.5289
17238TIP3    H173205   2.364   0.580  15.698 -1.5118 -0.9106  0.7342
17238TIP3    H273206   2.284   0.666  15.793  0.9031  2.4393 -0.1725
17239TIP3   OH273207   5.183   0.141   0.351 -0.0652  0.5138 -0.3207
17239TIP3    H173208   5.091   0.164   0.368 -0.1772  0.6702 -1.1452
17239TIP3    H273209   5.201   0.177   0.264  0.3200 -0.8675 -0.8190
17240TIP3   OH273210   0.005   6.510  14.627  0.6012 -0.1322  0.3270
17240TIP3    H173211  -0.001   6.438  14.689  0.2289 -0.6463 -0.2952
17240TIP3    H273212  -0.077   6.505  14.577  1.1392 -0.0738 -0.5709
17241TIP3   OH273213   3.939   5.199  11.324  0.1359  0.1486 -0.6083
17241TIP3    H173214   3.907   5.213  11.235  0.1768  0.2241 -0.6111
17241TIP3    H273215   3.862   5.211  11.380  0.0861 -0.0134 -0.6432
17242TIP3   OH273216   3.200   5.291   3.035  0.0554  0.0665  0.2309
17242TIP3    H173217   3.230   5.303   2.945  0.1555  2.3728  0.5445
17242TIP3    H273218   3.165   5.201   3.037  1.3018 -0.4893 -1.7233
17243TIP3   OH273219   6.786   4.134  11.111 -0.4102 -0.0788  0.6510
17243TIP3    H173220   6.795   4.071  11.183 -0.3253  0.2926  0.9635
17243TIP3    H273221   6.714   4.191  11.138  0.4021  0.8060  0.9955
17244TIP3   OH273222   2.716   5.731   4.480 -0.1981  0.4502  0.5808
17244TIP3    H173223   2.657   5.703   4.550  0.0722  0.5657  0.8554
17244TIP3    H273224   2.804   5.723   4.518 -0.0100 -0.2259 -0.0030
17245TIP3   OH273225   1.624   6.419   2.420 -0.0115 -0.5106  0.3050
17245TIP3    H173226   1.714   6.387   2.423 -0.3024 -1.2599  1.7712
17245TIP3    H273227   1.571   6.340   2.411 -0.6231 -0.2728  1.6154
17246TIP3   OH273228   5.253   3.423   0.644  0.1214  0.8909  0.4833
17246TIP3    H173229   5.173   3.375   0.625  0.4440  0.5171  0.0640
17246TIP3    H273230   5.284   3.454   0.559 -2.2400  5.3297  1.1338
17247TIP3   OH273231   2.429   0.777  13.705  0.2212  0.4066  0.9337
17247TIP3    H173232   2.417   0.805  13.614 -1.1047  0.1127  1.0213
17247TIP3    H273233   2.469   0.690  13.698  2.1428  1.2647  0.6609
17248TIP3   OH273234   6.031   4.811  15.351  0.3709  0.0620 -0.6424
17248TIP3    H173235   5.998   4.882  15.296 -1.1432 -1.0581 -1.2252
17248TIP3    H273236   5.953   4.761  15.375  1.0200  0.4336  2.4214
17249TIP3   OH273237   1.955   6.298   5.155 -0.9740  0.3156  0.0777
17249TIP3    H173238   1.867   6.262   5.170 -0.7691  0.9459  3.1699
17249TIP3    H273239   1.941   6.392   5.142 -0.6437  0.6971  2.3107
17250TIP3   OH273240   5.168   6.221  14.094  0.2725 -0.3676 -0.1261
17250TIP3    H173241   5.144   6.166  14.020 -1.3240  0.3032 -0.1228
17250TIP3    H273242   5.232   6.169  14.143  0.8159 -1.0934 -1.5942
17251TIP3   OH273243   5.084   2.469  12.642 -0.2000 -0.1236  0.1260
17251TIP3    H173244   5.137   2.426  12.709  0.3006 -0.3941 -0.4429
17251TIP3    H273245   5.146   2.493  12.573 -0.4344  1.7524  0.5465
17252TIP3   OH273246   1.579   4.388  11.111  0.8324  0.1942 -0.3677
17252TIP3    H173247   1.539   4.302  11.098 -0.3983  0.3124  2.2736
17252TIP3    H273248   1.547   4.441  11.038  0.0466 -1.0654 -0.9499
17253TIP3   OH273249   6.729   4.076  15.753  0.3802 -0.1230 -0.3248
17253TIP3    H173250   6.761   4.027  15.677  2.2609  1.4530 -0.5786
17253TIP3    H273251   6.777   4.039  15.827 -0.1290 -0.4189 -0.1331
17254TIP3   OH273252   2.418   1.066   0.065  0.0535  0.1219  0.4552
17254TIP3    H173253   2.327   1.078   0.093 -0.0168 -0.0105  0.2828
17254TIP3    H273254   2.440   0.977   0.094  0.6458  0.7278  1.9407
17255TIP3   OH273255   4.280   5.619  12.408  0.5945 -0.2887  0.0024
17255TIP3    H173256   4.368   5.652  12.427  1.4172 -2.4401  0.0419
17255TIP3    H273257   4.232   5.628  12.490  0.5314  1.6043 -0.2281
17256TIP3   OH273258   0.363   0.648   2.085 -0.0829 -0.2852 -0.0196
17256TIP3    H173259   0.450   0.688   2.078 -0.3694  0.1150 -1.5399
17256TIP3    H273260   0.355   0.594   2.006 -0.9318 -0.8947  0.4733
17257TIP3   OH273261   6.682   3.228  12.135  0.0094 -0.4194 -0.3786
17257TIP3    H173262   6.633   3.195  12.210  0.0679 -1.3978 -0.7594
17257TIP3    H273263   6.767   3.254  12.172 -0.5448  0.6558  0.1653
17258TIP3   OH273264   4.659   3.500   3.857  0.1355 -0.0287  0.6871
17258TIP3    H173265   4.683   3.551   3.934  0.5836 -0.0376  0.5570
17258TIP3    H273266   4.623   3.419   3.893  0.4059 -0.0623  0.8909
17259TIP3   OH273267   6.148   3.130   2.019 -0.0569 -0.4131  0.3266
17259TIP3    H173268   6.120   3.083   2.098  0.9929 -1.1798  0.2498
17259TIP3    H273269   6.143   3.065   1.949 -0.9152  0.2448 -0.2343
17260TIP3   OH273270   1.834   6.016  15.202 -0.5108  0.0617  0.0181
17260TIP3    H173271   1.851   6.031  15.109 -1.1139  3.9275  0.4894
17260TIP3    H273272   1.910   6.053  15.247 -1.3631  0.4033  1.1966
17261TIP3   OH273273   5.480   5.692  15.290  0.1145 -0.2123 -0.2660
17261TIP3    H173274   5.545   5.721  15.354 -1.8618  2.0345  0.7904
17261TIP3    H273275   5.509   5.730  15.207 -0.8634  2.4630  0.5708
17262TIP3   OH273276   1.931   5.418  16.058  0.2072 -0.2770  0.6767
17262TIP3    H173277   1.900   5.450  15.973  1.1959 -1.5076 -0.1576
17262TIP3    H273278   1.939   5.497  16.111  1.1497  0.7245 -0.8849
17263TIP3   OH273279   6.453   1.053  12.320 -0.3655  0.2606 -0.2123
17263TIP3    H173280   6.478   1.143  12.296  0.3340 -0.0494 -0.6719
17263TIP3    H273281   6.377   1.064  12.377 -0.6441  1.1180 -0.7378
17264TIP3   OH273282   1.569   5.497   2.795  0.1421  0.2405  0.5997
17264TIP3    H173283   1.617   5.459   2.869 -1.4310 -1.1143  0.9567
17264TIP3    H273284   1.605   5.452   2.718 -0.6014 -0.8497  0.8761
17265TIP3   OH273285   2.827   5.807  17.084 -0.3511 -0.4096  0.2186
17265TIP3    H173286   2.769   5.865  17.134 -0.3472 -0.6588  0.5112
17265TIP3    H273287   2.844   5.733  17.142 -0.3530 -0.7049 -0.1512
17266TIP3   OH273288   6.428   1.116  15.897  0.3533 -0.4005  0.7517
17266TIP3    H173289   6.505   1.169  15.915  2.4444 -3.3843  0.9875
17266TIP3    H273290   6.386   1.158  15.822  1.9156  1.5309  0.9287
17267TIP3   OH273291   6.038   4.404   3.822 -0.3888  0.3517 -0.0175
17267TIP3    H173292   5.950   4.438   3.806 -1.3197 -0.1873  3.5626
17267TIP3    H273293   6.083   4.475   3.867 -0.1723 -0.6962  1.4358
17268TIP3   OH273294   3.364   1.391   1.377 -0.3030  0.0624  0.9908
17268TIP3    H173295   3.322   1.315   1.334 -0.0238  0.4445  0.0280
17268TIP3    H273296   3.302   1.463   1.363 -0.1800  0.2029  1.1744
17269TIP3   OH273297   2.416   5.375   5.196 -0.8014 -0.6559  0.1487
17269TIP3    H173298   2.423   5.303   5.259 -1.7881 -0.4093  0.5522
17269TIP3    H273299   2.499   5.373   5.148  0.5020 -0.0165  2.3409
17270TIP3   OH273300   2.972   6.524  16.992  0.0167 -0.1744 -0.2420
17270TIP3    H173301   2.952   6.541  17.084  0.1346  0.1114 -0.2682
17270TIP3    H273302   2.901   6.566  16.944  0.0288 -0.2045 -0.2858
17271TIP3   OH273303   4.105   3.858   0.809 -0.5526  0.1686  0.5068
17271TIP3    H173304   4.140   3.861   0.898  0.5648 -1.4720  0.1397
17271TIP3    H273305   4.086   3.766   0.793 -0.9429  0.4728 -0.8862
17272TIP3   OH273306   3.753   2.924   1.695 -0.0794  0.1498 -1.3462
17272TIP3    H173307   3.661   2.940   1.713 -0.0159  0.5093 -1.3285
17272TIP3    H273308   3.787   3.010   1.669  0.6492  0.4092  0.3760
17273TIP3   OH273309   2.825   6.257  11.572  0.3448 -0.2743 -0.5536
17273TIP3    H173310   2.810   6.164  11.591  2.7653 -0.5305  0.3332
17273TIP3    H273311   2.796   6.268  11.482 -0.4480 -1.7900 -0.4940
17274TIP3   OH273312   1.053   4.817   3.916  0.0570 -0.0971 -0.0080
17274TIP3    H173313   1.007   4.895   3.883  0.3478 -0.2541 -0.7867
17274TIP3    H273314   1.027   4.812   4.008 -0.7759  0.3335 -0.2079
17275TIP3   OH273315   3.979   5.041  11.621  0.3175  0.0512 -0.4653
17275TIP3    H173316   4.043   4.969  11.625  1.7771  1.2753 -1.0630
17275TIP3    H273317   4.030   5.116  11.589 -0.4627  2.1247  2.8595
17276TIP3   OH273318   3.745   2.145  11.497 -0.8440 -0.2720  0.0644
17276TIP3    H173319   3.741   2.193  11.580 -0.7050  2.2220 -1.3296
17276TIP3    H273320   3.654   2.139  11.468 -0.9027 -1.2365  0.4252
17277TIP3   OH273321   4.852   4.451  15.832  0.1947 -0.0987 -0.5699
17277TIP3    H173322   4.857   4.364  15.872  0.3621  0.6197  1.0288
17277TIP3    H273323   4.758   4.469  15.826  0.1765  0.5859  1.3431
17278TIP3   OH273324   0.123   2.546  11.673  0.6801 -0.1649  0.5146
17278TIP3    H173325   0.179   2.484  11.625 -1.0261 -1.5527  0.2257
17278TIP3    H273326   0.042   2.548  11.622  0.1646  1.1757  1.3656
17279TIP3   OH273327   4.721   6.250   4.658 -0.2068  0.9886  0.1574
17279TIP3    H173328   4.743   6.219   4.746 -2.5895  1.2243  0.8590
17279TIP3    H273329   4.802   6.290   4.626  0.7751  0.6113  2.1068
17280TIP3   OH273330   6.301   5.718   6.032  0.2248 -0.8304  0.3532
17280TIP3    H173331   6.270   5.808   6.022  0.8807 -0.4264  1.8019
17280TIP3    H273332   6.394   5.727   6.054  0.6680 -1.9195 -0.9803
17281TIP3   OH273333   5.962   1.035  16.974  0.0625  0.5660  0.1521
17281TIP3    H173334   5.933   0.993  17.054  1.1521 -0.3038  0.0886
17281TIP3    H273335   5.982   0.963  16.914 -0.0649  1.1984 -0.6664
17282TIP3   OH273336   4.211   5.087  14.769 -0.6409  0.3134  0.7845
17282TIP3    H173337   4.217   5.093  14.864 -2.8736  0.2113  0.9706
17282TIP3    H273338   4.177   5.172  14.742 -0.6643  0.0993  0.1400
17283TIP3   OH273339   2.555   3.733   4.790  0.3274  0.5117 -0.2445
17283TIP3    H173340   2.505   3.677   4.849  1.5001 -0.1390  0.1493
17283TIP3    H273341   2.505   3.731   4.708 -1.1266  1.1554  0.6137
17284TIP3   OH273342   1.171   0.637   2.374 -0.2180  0.2407 -0.5840
17284TIP3    H173343   1.111   0.690   2.427  0.2158  2.6329 -2.4210
17284TIP3    H273344   1.257   0.678   2.387  0.5292 -1.3860 -0.2832
17285TIP3   OH273345   5.734   1.647   4.629 -0.7808 -0.2053 -0.3893
17285TIP3    H173346   5.754   1.659   4.722 -1.5110 -3.1048  0.2021
17285TIP3    H273347   5.639   1.658   4.624 -1.0794 -2.4855 -0.3188
17286TIP3   OH273348   0.201   1.250  11.607 -0.4568  0.3547 -0.1844
17286TIP3    H173349   0.143   1.279  11.678 -1.4879 -2.3473  0.1187
17286TIP3    H273350   0.289   1.256  11.644 -0.8313  0.8590  0.6388
17287TIP3   OH273351   4.335   1.949   2.721 -0.1500 -0.3203 -0.1299
17287TIP3    H173352   4.330   1.968   2.814 -2.3035  0.3604 -0.3488
17287TIP3    H273353   4.335   1.854   2.715  3.2206 -0.4248  0.6637
17288TIP3   OH273354   6.723   4.690   5.694  0.1039  0.0669 -0.5731
17288TIP3    H173355   6.770   4.682   5.611  0.2137  2.0967 -0.7279
17288TIP3    H273356   6.792   4.691   5.760  0.1247  0.3267 -0.5982
17289TIP3   OH273357   3.030   6.160  16.635  0.6164 -0.2131  0.1863
17289TIP3    H173358   2.965   6.124  16.696  0.8504  1.0262  1.1976
17289TIP3    H273359   3.111   6.117  16.660  0.5905 -0.1737  0.3449
17290TIP3   OH273360   4.796   0.080  13.720  0.6851 -0.0375  0.5529
17290TIP3    H173361   4.825   0.154  13.667 -2.2882  2.4427  2.2478
17290TIP3    H273362   4.728   0.038  13.667  1.0168 -0.4313  0.4300
17291TIP3   OH273363   1.870   0.583   4.116  0.3245  0.4600  0.2474
17291TIP3    H173364   1.826   0.508   4.155 -0.4776  0.5228 -0.5371
17291TIP3    H273365   1.952   0.548   4.080  0.2382  0.0866  0.4196
17292TIP3   OH273366   6.529   5.502  14.927 -0.1045  0.1750 -0.6392
17292TIP3    H173367   6.481   5.581  14.950 -3.0062 -1.4223 -0.9044
17292TIP3    H273368   6.508   5.487  14.835 -0.6443 -1.6012 -0.2418
17293TIP3   OH273369   1.517   4.281  13.689 -0.0926  0.2562 -0.0748
17293TIP3    H173370   1.522   4.288  13.785  0.3778  0.3690 -0.1051
17293TIP3    H273371   1.482   4.194  13.673 -0.0268  0.1770  0.2017
17294TIP3   OH273372   6.539   4.730  12.050 -0.4095  0.0036  0.0616
17294TIP3    H173373   6.470   4.755  11.988 -0.7690 -0.5392  0.2452
17294TIP3    H273374   6.606   4.797  12.038 -0.8790  0.4245 -0.2625
17295TIP3   OH273375   1.479   6.393  12.077 -0.6649 -0.2225  0.1166
17295TIP3    H173376   1.522   6.351  12.152  1.5422 -0.9898 -1.5324
17295TIP3    H273377   1.446   6.320  12.024  1.3922  0.1338 -1.7239
17296TIP3   OH273378   3.840   3.007  10.910  0.1415  0.6037  0.1658
17296TIP3    H173379   3.867   3.068  10.841 -3.8701 -0.0314 -2.1087
17296TIP3    H273380   3.898   2.932  10.900 -0.4326  0.4790 -2.6649
17297TIP3   OH273381   6.048   3.969   2.777 -0.1693 -0.0109 -0.1732
17297TIP3    H173382   5.971   3.943   2.827  0.4760  0.6440  1.2021
17297TIP3    H273383   6.099   4.022   2.838  1.3187 -0.3409 -1.1010
17298TIP3   OH273384   2.680   1.584   0.742  0.3640 -0.1135 -0.3604
17298TIP3    H173385   2.677   1.555   0.651  0.8782 -2.0462  0.2181
17298TIP3    H273386   2.616   1.528   0.787  0.1282  0.8104  0.4843
17299TIP3   OH273387   1.140   3.934   0.666  0.0360 -0.0151  0.1238
17299TIP3    H173388   1.167   3.842   0.670 -1.4763 -0.4871 -0.2609
17299TIP3    H273389   1.127   3.950   0.572 -0.1462  0.4625  0.2317
17300TIP3   OH273390   2.458   5.203  13.744 -0.1687 -0.3289 -0.2030
17300TIP3    H173391   2.478   5.289  13.707 -0.4722 -0.2382 -0.1609
17300TIP3    H273392   2.540   5.154  13.738  0.1050  0.0820  0.0941
17301TIP3   OH273393   0.861   3.849  12.369 -0.1675 -0.1084  0.4251
17301TIP3    H173394   0.831   3.889  12.288  1.0567  0.9871  0.4889
17301TIP3    H273395   0.889   3.761  12.343  2.3659  0.9853 -0.8376
17302TIP3   OH273396   2.902   6.412  14.001  0.2274 -0.5427  0.0037
17302TIP3    H173397   2.892   6.324  14.036 -0.7096 -0.6930 -0.6305
17302TIP3    H273398   2.818   6.432  13.960 -0.5810  1.7246  2.5578
17303TIP3   OH273399   1.146   2.334  13.887  0.0253  0.2705 -0.1460
17303TIP3    H173400   1.181   2.375  13.966 -3.1388  0.5764  1.1811
17303TIP3    H273401   1.051   2.347  13.893 -0.6647 -3.2836 -1.9643
17304TIP3   OH273402   5.304   5.610   1.899  0.3001 -0.0882  0.2467
17304TIP3    H173403   5.348   5.536   1.939  0.6409 -0.1572 -0.2530
17304TIP3    H273404   5.211   5.593   1.913  0.4574  0.5520  2.1658
17305TIP3   OH273405   2.265   5.941   4.762  0.8656 -0.3198 -0.3318
17305TIP3    H173406   2.176   5.971   4.744  1.1444  0.6379 -0.1606
17305TIP3    H273407   2.254   5.859   4.810  0.0272  0.8246  1.5119
17306TIP3   OH273408   5.308   2.444   0.557 -0.1592  0.4475 -0.4480
17306TIP3    H173409   5.310   2.380   0.628  1.2224  0.3211 -0.5858
17306TIP3    H273410   5.295   2.392   0.478 -0.0313  0.4350 -0.4602
17307TIP3   OH273411   5.802   0.402  11.706  0.6927 -0.3641  0.3401
17307TIP3    H173412   5.737   0.414  11.775 -1.3999 -0.3662 -1.5904
17307TIP3    H273413   5.815   0.489  11.668 -0.6843 -0.9213 -1.4601
17308TIP3   OH273414   2.115   5.852  12.292  0.4547 -0.1685  0.7387
17308TIP3    H173415   2.172   5.776  12.308  0.5194  0.2339  2.5358
17308TIP3    H273416   2.156   5.898  12.219 -0.2152 -2.4764 -1.1389
17309TIP3   OH273417   3.301   1.715   2.553  0.2757  0.2832  0.1730
17309TIP3    H173418   3.343   1.778   2.493  0.2114  0.1873  0.0276
17309TIP3    H273419   3.228   1.679   2.502 -0.1498  0.6502  0.5180
17310TIP3   OH273420   3.943   6.313   3.948  0.5100  0.2463  0.2619
17310TIP3    H173421   3.867   6.256   3.932  0.7836  0.2267 -0.9707
17310TIP3    H273422   3.971   6.341   3.861  0.9849  1.4911  0.8029
17311TIP3   OH273423   0.431   5.175  11.346 -0.4977  0.2988 -0.2063
17311TIP3    H173424   0.392   5.125  11.417 -0.2651  0.8931  0.3480
17311TIP3    H273425   0.390   5.141  11.267 -0.2585 -0.8361  0.1552
17312TIP3   OH273426   4.661   5.383  16.645 -0.0515 -0.3345 -0.6325
17312TIP3    H173427   4.676   5.413  16.555  2.1242 -1.4906 -0.6726
17312TIP3    H273428   4.714   5.442  16.699 -0.1403 -0.6207 -0.2270
17313TIP3   OH273429   1.040   1.227   5.683 -0.5243  0.3840  0.4892
17313TIP3    H173430   1.056   1.136   5.708 -0.9013  0.5231  1.2267
17313TIP3    H273431   0.973   1.222   5.614  0.3810  0.0208 -0.3821
17314TIP3   OH273432   5.531   3.617  11.714  0.0712  0.0948  0.1049
17314TIP3    H173433   5.569   3.583  11.795 -1.0285  1.0561  1.0484
17314TIP3    H273434   5.453   3.563  11.699 -1.8187  2.2683  1.7425
17315TIP3   OH273435   0.202   2.946   0.085  0.2031 -0.0551 -0.1375
17315TIP3    H173436   0.147   3.005   0.137  1.4418  1.6266 -0.7023
17315TIP3    H273437   0.244   3.002   0.020  3.0860 -1.1776  0.6756
17316TIP3   OH273438   4.359   4.503  15.657  0.5129  0.0467 -0.4083
17316TIP3    H173439   4.317   4.517  15.573 -1.9914 -5.0356 -0.1958
17316TIP3    H273440   4.402   4.417  15.649  1.8842  0.3313  2.8554
17317TIP3   OH273441   4.604   0.568  13.458 -0.2703 -0.4506  0.4066
17317TIP3    H173442   4.635   0.550  13.369  0.3879  1.9369  0.1059
17317TIP3    H273443   4.528   0.624  13.446  0.3930  0.6798  1.3584
17318TIP3   OH273444   4.552   2.252  17.250 -0.5346 -0.0835 -0.0278
17318TIP3    H173445   4.584   2.338  17.223 -0.5967 -0.3365 -0.9163
17318TIP3    H273446   4.625   2.213  17.299 -0.0099 -0.0694 -0.7916
17319TIP3   OH273447   0.124   3.836   1.024 -0.2503  0.2387 -0.7118
17319TIP3    H173448   0.114   3.930   1.006 -0.8559  0.1093 -1.0504
17319TIP3    H273449   0.086   3.793   0.948 -0.8433 -0.2890 -0.1247
17320TIP3   OH273450   1.218   2.270  17.114 -0.2612 -0.2203  0.2380
17320TIP3    H173451   1.184   2.356  17.138  1.1943  1.1351 -2.3587
17320TIP3    H273452   1.141   2.213  17.115 -1.5108  1.4323  0.4742
17321TIP3   OH273453   2.564   3.843  13.509 -0.0405 -0.2559  0.0160
17321TIP3    H173454   2.589   3.909  13.445 -0.5475  0.5197  0.6126
17321TIP3    H273455   2.643   3.790  13.521  0.1643 -0.2006 -0.9805
17322TIP3   OH273456   3.199   0.452   1.075  0.2054  0.1567  0.0172
17322TIP3    H173457   3.137   0.518   1.043  0.1981 -0.2049 -0.7247
17322TIP3    H273458   3.177   0.440   1.167 -1.1882 -0.3781 -0.3775
17323TIP3   OH273459   0.447   2.400  16.915 -0.2438  0.0219  0.0567
17323TIP3    H173460   0.413   2.485  16.943  1.2442  0.4927  0.4591
17323TIP3    H273461   0.479   2.414  16.827 -3.7214 -1.1473 -1.4973
17324TIP3   OH273462   5.607   6.089  15.417  0.3105  0.0664 -0.6200
17324TIP3    H173463   5.562   6.090  15.333  0.2193 -0.4649 -0.5757
17324TIP3    H273464   5.673   6.158  15.409  0.9211 -0.6112 -1.4601
17325TIP3   OH273465   1.326   2.631   1.426 -0.2060 -0.0771 -0.2059
17325TIP3    H173466   1.266   2.590   1.363  0.9385  2.2675 -2.9257
17325TIP3    H273467   1.407   2.581   1.417 -0.5448 -0.7884  0.6379
17326TIP3   OH273468   5.178   1.368  16.526  0.1776 -0.3041  0.9041
17326TIP3    H173469   5.166   1.435  16.459  0.3144 -0.7309  0.4532
17326TIP3    H273470   5.123   1.295  16.496 -1.0440  0.1023  2.0773
17327TIP3   OH273471   3.420   1.277   5.759 -0.6189  0.3164 -0.0428
17327TIP3    H173472   3.420   1.324   5.843 -0.7990  2.0883 -1.0224
17327TIP3    H273473   3.380   1.338   5.697 -0.8397 -1.1251 -1.3516
17328TIP3   OH273474   2.657   1.548   6.059 -0.2560  0.3417  0.3218
17328TIP3    H173475   2.597   1.593   6.119 -1.9757 -1.5961  0.1346
17328TIP3    H273476   2.708   1.489   6.115 -0.8815 -0.4466  0.0730
17329TIP3   OH273477   4.471   5.646   3.644 -0.1817  0.1359 -0.8605
17329TIP3    H173478   4.466   5.696   3.726  1.1013 -0.7893 -0.1881
17329TIP3    H273479   4.403   5.580   3.651  0.9114 -0.9179  0.1710
17330TIP3   OH273480   2.017   0.628   6.005  0.0070 -0.0122  0.1315
17330TIP3    H173481   2.040   0.611   5.914 -1.7010  0.6052 -0.4233
17330TIP3    H273482   2.052   0.715   6.023  1.3427 -0.5984  0.4220
17331TIP3   OH273483   0.601   0.524  13.659  0.1734 -0.4221  0.3939
17331TIP3    H173484   0.548   0.548  13.582  0.9460  0.8363  0.2549
17331TIP3    H273485   0.536   0.498  13.725 -0.5811  0.2591 -0.0718
17332TIP3   OH273486   6.142   2.921  12.848  0.1642 -0.0410 -0.2848
17332TIP3    H173487   6.114   2.834  12.822  0.6838 -0.3332  0.1349
17332TIP3    H273488   6.220   2.939  12.795 -0.2772  0.4091 -0.7951
17333TIP3   OH273489   6.251   6.678   4.156 -0.6253 -0.0313  0.1855
17333TIP3    H173490   6.250   6.768   4.123 -2.0693  0.6192  1.9441
17333TIP3    H273491   6.292   6.684   4.242  1.6966 -1.4896 -0.7690
17334TIP3   OH273492   4.881   3.247   2.830 -0.4061 -0.4172  0.0817
17334TIP3    H173493   4.947   3.207   2.886 -0.3981  1.7279  1.6314
17334TIP3    H273494   4.856   3.177   2.769  2.4598 -1.5871  0.1881
17335TIP3   OH273495   5.818   5.966  15.222  0.2581  0.1319  0.5914
17335TIP3    H173496   5.815   5.895  15.159 -2.4198  2.0925 -1.6321
17335TIP3    H273497   5.828   5.923  15.307  0.3055 -2.7595 -0.8232
17336TIP3   OH273498   5.265   0.617   6.581  0.3317  0.0184  0.2268
17336TIP3    H173499   5.257   0.532   6.538 -1.8630  0.9473 -1.2724
17336TIP3    H273500   5.328   0.666   6.528 -0.4403  0.2699 -0.4543
17337TIP3   OH273501   6.621   2.152  12.071 -0.7060 -0.5354  0.4394
17337TIP3    H173502   6.699   2.169  12.019 -0.6256 -2.0130  0.0615
17337TIP3    H273503   6.552   2.202  12.028 -0.9851 -2.9403 -2.0440
17338TIP3   OH273504   3.644   0.685   2.991  0.5098 -0.2749  0.3544
17338TIP3    H173505   3.736   0.707   3.004  0.2046 -0.2563  2.7059
17338TIP3    H273506   3.641   0.590   2.989  0.8219 -0.2502 -1.7462
17339TIP3   OH273507   1.904   3.437  15.036 -0.0569 -0.2788 -0.6321
17339TIP3    H173508   1.928   3.516  14.988 -0.7795  0.4365  0.1676
17339TIP3    H273509   1.943   3.366  14.986  1.5428  0.6627 -0.7619
17340TIP3   OH273510   2.157   0.252   1.233  0.0389 -0.7003  0.1378
17340TIP3    H173511   2.217   0.316   1.270  0.5065 -0.2436 -1.3530
17340TIP3    H273512   2.087   0.242   1.298  1.0428 -0.2398  1.2827
17341TIP3   OH273513   1.201   0.228  16.502 -0.2396  0.2952 -0.1380
17341TIP3    H173514   1.170   0.241  16.412 -0.4993  0.9365  0.0379
17341TIP3    H273515   1.295   0.212  16.492 -0.6157 -1.7233 -0.6850
17342TIP3   OH273516   6.568   1.837   3.742 -0.5247  0.3336  0.1832
17342TIP3    H173517   6.550   1.922   3.702 -0.6267  0.1111 -0.2489
17342TIP3    H273518   6.580   1.856   3.835 -0.7115  0.7956  0.1136
17343TIP3   OH273519   5.185   0.953   5.485  0.3943  0.4650  0.1070
17343TIP3    H173520   5.215   0.869   5.519  2.1902  1.2008  0.3595
17343TIP3    H273521   5.144   0.996   5.561 -0.5316 -0.1783 -0.0256
17344TIP3   OH273522   3.660   5.744  13.504  0.1969  0.1731  0.0648
17344TIP3    H173523   3.727   5.805  13.536 -0.7983  1.2380  0.1575
17344TIP3    H273524   3.674   5.664  13.555  0.9572  0.6093  0.5601
17345TIP3   OH273525   5.779   5.231  13.798  0.3317  0.7580 -0.5906
17345TIP3    H173526   5.841   5.174  13.842 -1.1394  1.4438  2.4834
17345TIP3    H273527   5.769   5.192  13.711  3.5718 -0.4209 -0.5217
17346TIP3   OH273528   1.646   0.156  14.342  0.7568  0.2840 -0.0451
17346TIP3    H173529   1.632   0.137  14.249  0.9185 -1.9511  0.3505
17346TIP3    H273530   1.560   0.177  14.376  0.3555 -1.0013 -0.2538
17347TIP3   OH273531   3.581   5.702   3.539  0.1311 -0.2586 -0.5941
17347TIP3    H173532   3.632   5.779   3.513  0.2864 -0.6391 -1.4550
17347TIP3    H273533   3.611   5.681   3.627 -0.1020  0.8234 -0.2417
17348TIP3   OH273534   2.989   2.482  12.094  0.3098  0.2066  1.1672
17348TIP3    H173535   2.943   2.472  12.011  0.9138  1.3898  0.6767
17348TIP3    H273536   3.014   2.575  12.097 -1.7785  0.7622  3.7269
17349TIP3   OH273537   0.261   5.223   3.151  0.1250  0.0635 -0.1607
17349TIP3    H173538   0.263   5.195   3.242  1.3595  3.0658  0.8016
17349TIP3    H273539   0.317   5.301   3.149 -1.1424  0.9551 -3.1572
17350TIP3   OH273540   6.193   0.140  15.683  1.2056 -0.1733  0.6245
17350TIP3    H173541   6.213   0.069  15.745  0.5346  0.8668  2.0510
17350TIP3    H273542   6.189   0.219  15.737  0.2533  0.7009 -0.6949
17351TIP3   OH273543   5.412   2.381   2.824  0.4711  0.0367  0.2587
17351TIP3    H173544   5.331   2.332   2.834 -0.5253  1.5546 -0.0575
17351TIP3    H273545   5.384   2.472   2.812  2.1740  0.4371 -0.9838
17352TIP3   OH273546   1.322   6.656   0.729 -0.3583 -0.5265  0.2411
17352TIP3    H173547   1.356   6.611   0.807 -0.1716  0.8087  0.9560
17352TIP3    H273548   1.348   6.601   0.656 -0.5040 -1.7875  1.1233
17353TIP3   OH273549   4.021   1.102   0.871 -0.0630  0.5264  0.1745
17353TIP3    H173550   4.092   1.166   0.870  0.2735  0.1379 -0.6424
17353TIP3    H273551   3.954   1.140   0.814 -0.0397  0.3558  0.0328
17354TIP3   OH273552   5.851   1.866   2.946 -0.3038  0.0272  0.3056
17354TIP3    H173553   5.792   1.941   2.937 -1.0254 -0.6974 -1.2471
17354TIP3    H273554   5.793   1.791   2.961  0.0885 -0.8902 -2.4168
17355TIP3   OH273555   2.157   5.568  13.705 -0.5927 -0.6822 -0.3045
17355TIP3    H173556   2.251   5.552  13.708 -0.5615 -0.2598  2.5112
17355TIP3    H273557   2.117   5.481  13.707 -0.3053 -0.8769 -1.8639
17356TIP3   OH273558   2.660   6.071   4.612 -0.4612 -0.4184  0.8706
17356TIP3    H173559   2.636   6.011   4.681 -0.3976 -1.1651  0.2496
17356TIP3    H273560   2.635   6.027   4.531  0.4451 -0.0188  0.3591
17357TIP3   OH273561   4.274   0.628  14.381  0.0964 -0.5075  0.2823
17357TIP3    H173562   4.340   0.681  14.426  0.9623 -2.0547  0.9071
17357TIP3    H273563   4.282   0.653  14.289  2.2178 -1.2978  0.2136
17358TIP3   OH273564   3.498   5.034   0.462  0.1615  0.3068 -0.8493
17358TIP3    H173565   3.554   4.986   0.401 -0.2993  0.6353 -1.5399
17358TIP3    H273566   3.449   5.095   0.407  0.4079  1.2539 -0.0387
17359TIP3   OH273567   5.061   0.243  15.274  0.3852  0.1522  0.0401
17359TIP3    H173568   4.975   0.263  15.235 -0.1302 -0.1498  1.0044
17359TIP3    H273569   5.045   0.245  15.368  1.4402  0.0545  0.2215
17360TIP3   OH273570   1.960   5.227   3.457 -0.2106  0.3714 -0.0578
17360TIP3    H173571   2.009   5.152   3.424  0.4006  0.9130 -0.3887
17360TIP3    H273572   1.871   5.213   3.426 -0.0563 -0.1237 -0.2756
17361TIP3   OH273573   0.367   2.488  11.535  0.3781 -0.2347  0.1014
17361TIP3    H173574   0.426   2.415  11.553  1.0884  0.7614  2.0244
17361TIP3    H273575   0.347   2.481  11.442  0.6255 -2.7244  0.2130
17362TIP3   OH273576   3.610   1.340   6.273  0.5281  0.0263  0.0961
17362TIP3    H173577   3.540   1.402   6.253  0.6075 -0.0975 -0.5760
17362TIP3    H273578   3.687   1.395   6.286  0.7078  0.0349 -1.0024
17363TIP3   OH273579   0.541   0.965  16.266 -0.6761 -0.1133 -0.0431
17363TIP3    H173580   0.502   1.049  16.292  0.3995  0.2255  0.5413
17363TIP3    H273581   0.573   0.927  16.348 -1.2035 -1.1237 -0.3032
17364TIP3   OH273582   5.451   4.991   2.800 -0.5447  0.0839  0.1911
17364TIP3    H173583   5.380   4.939   2.763 -1.1029  0.9226  0.0656
17364TIP3    H273584   5.471   4.948   2.883  0.0332 -1.2090 -0.6077
17365TIP3   OH273585   1.915   6.295   0.742  0.0244 -0.4031 -0.0717
17365TIP3    H173586   1.826   6.330   0.746 -0.4856 -0.9397 -4.1981
17365TIP3    H273587   1.903   6.200   0.746  0.8024 -0.4164  3.4065
17366TIP3   OH273588   3.554   0.274   6.403  0.3838  0.5494 -0.6172
17366TIP3    H173589   3.507   0.334   6.461 -2.5840 -0.7027 -1.6325
17366TIP3    H273590   3.622   0.328   6.363  0.1007  2.3362  1.2036
17367TIP3   OH273591   4.751   0.634   4.253  0.0327 -0.4435  0.5051
17367TIP3    H173592   4.762   0.729   4.258  0.0975 -0.5227  2.2549
17367TIP3    H273593   4.663   0.622   4.218  0.2020  0.2532 -0.1746
17368TIP3   OH273594   6.188   6.195   4.251  0.5306 -0.1005  0.0201
17368TIP3    H173595   6.128   6.262   4.283 -1.3629 -2.1194  0.8945
17368TIP3    H273596   6.241   6.171   4.327  0.8864  0.0896 -0.1685
17369TIP3   OH273597   4.144   1.531  15.247  0.2264  0.5879  0.1075
17369TIP3    H173598   4.078   1.505  15.312 -0.2867 -0.3624 -0.7682
17369TIP3    H273599   4.176   1.448  15.211  0.6504  1.0967 -0.7001
17370TIP3   OH273600   1.107   5.452  11.423  0.0538 -0.1080 -0.1720
17370TIP3    H173601   1.125   5.406  11.505 -1.2356 -0.4389 -0.0510
17370TIP3    H273602   1.083   5.383  11.361  1.1127  0.1322 -0.8666
17371TIP3   OH273603   2.118   3.897  15.552  0.5885  0.0108  0.0074
17371TIP3    H173604   2.114   3.845  15.633  2.8140  0.8194  0.6766
17371TIP3    H273605   2.063   3.849  15.490 -2.4531  0.1945  2.4268
17372TIP3   OH273606   1.936   4.221   0.127 -0.2173  0.0518 -0.3037
17372TIP3    H173607   1.887   4.282   0.181 -1.3634  0.7111 -2.0210
17372TIP3    H273608   2.004   4.186   0.184 -0.8122  1.4201  1.2631
17373TIP3   OH273609   4.097   0.859  15.035  0.2780 -0.0970  0.5810
17373TIP3    H173610   4.140   0.944  15.042 -0.1147  0.0374  1.5287
17373TIP3    H273611   4.156   0.806  14.982  1.0903  0.4118  0.9736
17374TIP3   OH273612   2.174   5.888  14.448  0.2565 -0.1797  0.6557
17374TIP3    H173613   2.202   5.797  14.437  0.3573 -0.1471  0.6367
17374TIP3    H273614   2.095   5.883  14.502  0.2427 -0.2809  0.6262
17375TIP3   OH273615   2.372   0.438   5.793  0.6768  0.1856  0.3317
17375TIP3    H173616   2.390   0.356   5.747 -2.2655  0.3405 -1.2423
17375TIP3    H273617   2.371   0.414   5.885 -0.7345 -1.7232 -0.1327
17376TIP3   OH273618   4.176   0.835   1.356  0.3227  0.0826  0.3333
17376TIP3    H173619   4.120   0.892   1.408  0.2951  1.3055 -1.0129
17376TIP3    H273620   4.127   0.821   1.274  0.8240 -0.9638  0.2070
17377TIP3   OH273621   2.938   4.184   2.150 -0.3984 -0.1483 -0.0353
17377TIP3    H173622   2.867   4.120   2.148  0.5354 -1.1815 -1.1123
17377TIP3    H273623   2.981   4.170   2.234  0.6473 -1.8765 -0.8603
17378TIP3   OH273624   5.238   0.800  16.413  0.1350 -0.2817 -0.6758
17378TIP3    H173625   5.291   0.760  16.481  3.1406 -1.0093 -3.3294
17378TIP3    H273626   5.153   0.756  16.418  0.6981 -1.1104  1.7941
17379TIP3   OH273627   4.544   4.442   6.415 -0.2262  0.7400  0.0482
17379TIP3    H173628   4.557   4.462   6.322  1.4414  1.4131  0.4055
17379TIP3    H273629   4.595   4.363   6.430 -0.2076  0.8337  0.4812
17380TIP3   OH273630   5.126   0.371  16.801 -0.6551  0.2218  0.2785
17380TIP3    H173631   5.143   0.283  16.836 -1.7300 -0.5967 -1.2166
17380TIP3    H273632   5.167   0.371  16.715  0.6780  1.7272  0.8857
17381TIP3   OH273633   1.394   1.868  16.515 -0.8238  0.0399 -0.4133
17381TIP3    H173634   1.472   1.864  16.459 -0.2956  0.0272  0.3128
17381TIP3    H273635   1.423   1.831  16.599 -1.4984  0.4137 -0.0109
17382TIP3   OH273636   4.635   0.638  16.319 -0.4620  0.1550 -0.0443
17382TIP3    H173637   4.666   0.626  16.409 -1.9023  0.8647  0.5567
17382TIP3    H273638   4.610   0.550  16.290  0.1503 -0.0987  0.1829
17383TIP3   OH273639   2.833   3.009  13.508  0.3086  0.0615  0.1327
17383TIP3    H173640   2.902   2.952  13.541 -0.0409 -1.1546 -1.1725
17383TIP3    H273641   2.837   3.000  13.413 -3.6990 -2.5722  0.0822
17384TIP3   OH273642   1.582   3.161   3.083 -0.8195 -1.0768 -0.4454
17384TIP3    H173643   1.490   3.185   3.083 -0.1756  1.4794 -1.0492
17384TIP3    H273644   1.629   3.241   3.104  1.3130 -2.1714 -0.8059
17385TIP3   OH273645   3.352   3.203   1.841 -0.1542  0.1112  0.8897
17385TIP3    H173646   3.406   3.269   1.798 -0.6489 -0.3578 -0.4748
17385TIP3    H273647   3.384   3.119   1.807  0.5251 -0.3723  2.6648
17386TIP3   OH273648   2.147   6.385  12.811  0.1220  0.3754 -0.6311
17386TIP3    H173649   2.086   6.440  12.859 -2.1388 -1.7079 -1.0474
17386TIP3    H273650   2.131   6.297  12.843  0.0225 -0.7712 -3.6710
17387TIP3   OH273651   6.011   3.585  10.658 -0.2583  0.8236 -0.0728
17387TIP3    H173652   6.016   3.496  10.691  0.4599  1.4255  1.4927
17387TIP3    H273653   6.041   3.580  10.567 -0.6846 -0.5925 -0.1330
17388TIP3   OH273654   2.475   1.824  15.163 -0.5713 -0.1190  0.5204
17388TIP3    H173655   2.438   1.743  15.130 -0.4792 -0.0252  0.1794
17388TIP3    H273656   2.550   1.797  15.216 -1.6239 -0.3626  1.9342
17389TIP3   OH273657   3.749   1.003   1.212  0.5375  0.0280 -0.1249
17389TIP3    H173658   3.774   0.947   1.286  0.3580  0.1189  0.0031
17389TIP3    H273659   3.758   0.946   1.135  0.9012 -0.0123 -0.0528
17390TIP3   OH273660   2.639   0.878   1.823 -0.4752  0.1721  0.2583
17390TIP3    H173661   2.650   0.972   1.804 -0.7229  0.4258  1.3212
17390TIP3    H273662   2.687   0.834   1.753  1.4142  1.1212  0.9425
17391TIP3   OH273663   5.634   5.968  12.392  0.1759  0.0894  0.0585
17391TIP3    H173664   5.678   5.982  12.477 -0.4272 -0.7982  0.5254
17391TIP3    H273665   5.703   5.935  12.335  0.0983 -1.4997  0.8500
17392TIP3   OH273666   6.383   5.300  11.899 -0.2662  0.0713  0.1308
17392TIP3    H173667   6.333   5.354  11.960  0.2398  0.1222  0.5049
17392TIP3    H273668   6.459   5.353  11.875  0.7903 -0.8575  1.3251
17393TIP3   OH273669   4.168   2.180  14.092 -0.3166  0.5016 -0.2072
17393TIP3    H173670   4.132   2.108  14.144  0.1993  1.3423  1.3603
17393TIP3    H273671   4.259   2.189  14.123 -0.8954  2.9797  0.9504
17394TIP3   OH273672   2.297   3.179   0.707  0.0234  0.0709  0.2512
17394TIP3    H173673   2.354   3.250   0.676 -1.2351  0.7752 -0.5348
17394TIP3    H273674   2.275   3.130   0.628 -1.0503  0.2630  0.4170
17395TIP3   OH273675   6.505   5.712  10.816  0.7336 -0.1697  0.1189
17395TIP3    H173676   6.533   5.622  10.828 -0.0673 -0.9136 -3.1307
17395TIP3    H273677   6.473   5.716  10.726 -1.1476  2.8578  0.8256
17396TIP3   OH273678   3.050   2.696   6.170  0.3932 -0.0957  0.3811
17396TIP3    H173679   2.963   2.656   6.177  0.7922 -1.4804 -2.0671
17396TIP3    H273680   3.099   2.657   6.243 -0.5591 -0.5986  0.7655
17397TIP3   OH273681   2.332   4.883   1.858  0.2560 -0.3891  0.3485
17397TIP3    H173682   2.325   4.966   1.906  1.0965 -0.2014  0.1490
17397TIP3    H273683   2.328   4.908   1.765 -1.3959 -0.7524  0.3032
17398TIP3   OH273684   3.348   5.200   3.406 -0.3801 -0.1434  0.3416
17398TIP3    H173685   3.303   5.188   3.322 -2.2971  0.2194  1.3139
17398TIP3    H273686   3.384   5.289   3.401  0.1760 -0.3970 -0.3864
17399TIP3   OH273687   2.055   0.067   5.730 -0.1260  0.6228 -0.5070
17399TIP3    H173688   2.097   0.037   5.811 -1.3618 -2.6617 -0.9759
17399TIP3    H273689   1.980   0.119   5.758 -0.2812 -0.1169  0.4579
17400TIP3   OH273690   6.122   0.379  16.152 -0.5275  0.1882  0.1909
17400TIP3    H173691   6.216   0.390  16.134 -0.7359  1.0314 -0.4077
17400TIP3    H273692   6.091   0.325  16.079 -0.2225 -1.3583  1.1869
17401TIP3   OH273693   0.549   5.943   1.802  0.2486  0.4571  0.4835
17401TIP3    H173694   0.549   6.017   1.863 -0.2478  0.2917  0.6910
17401TIP3    H273695   0.460   5.908   1.808  0.0536  0.7430 -0.7133
17402TIP3   OH273696   5.992   3.387   0.632  0.0993  0.0248 -0.1447
17402TIP3    H173697   5.997   3.304   0.584  1.7376  0.0598 -0.0558
17402TIP3    H273698   6.025   3.452   0.570  0.8166  0.2946  0.5224
17403TIP3   OH273699   2.438   4.096   3.087 -0.5299  0.2689  0.2817
17403TIP3    H173700   2.369   4.030   3.088 -0.7968  0.5604  2.6518
17403TIP3    H273701   2.463   4.107   3.178  2.7587  0.0996 -0.5327
17404TIP3   OH273702   2.894   3.913   3.751 -0.1220 -0.3194 -0.3112
17404TIP3    H173703   2.885   3.961   3.833  2.0771 -2.2558  1.1268
17404TIP3    H273704   2.857   3.826   3.769 -0.0984 -0.6011 -1.5460
17405TIP3   OH273705   0.339   0.621   4.978 -0.0533  0.8231  0.0198
17405TIP3    H173706   0.428   0.649   5.000  0.3132 -0.1223 -0.2349
17405TIP3    H273707   0.345   0.592   4.887 -0.0051 -1.7890  0.8117
17406TIP3   OH273708   4.159   2.813  11.355  0.1312  0.0367  0.2869
17406TIP3    H173709   4.188   2.884  11.298  0.7945 -1.4629 -1.2887
17406TIP3    H273710   4.093   2.766  11.303 -1.0475  0.0827  1.6984
17407TIP3   OH273711   1.151   6.600  14.896  0.2580  0.0491 -0.5907
17407TIP3    H173712   1.113   6.566  14.815 -1.1346  0.4002 -0.1117
17407TIP3    H273713   1.235   6.556  14.904 -0.0771 -0.8068 -1.6773
17408TIP3   OH273714   5.620   6.707  15.369 -0.6371 -0.0956  0.5105
17408TIP3    H173715   5.666   6.790  15.360 -1.2549  0.3053  1.0137
17408TIP3    H273716   5.575   6.713  15.454 -0.3227 -1.1170  0.7643
17409TIP3   OH273717   4.654   0.346   1.476 -0.2261  0.1580  0.8287
17409TIP3    H173718   4.691   0.293   1.405  0.3621  0.9267  0.5475
17409TIP3    H273719   4.629   0.283   1.543 -1.2004 -0.6177 -0.2507
17410TIP3   OH273720   2.999   4.390  11.701  0.3187 -0.0408  0.1340
17410TIP3    H173721   3.046   4.307  11.704  0.3411 -0.0137  0.8030
17410TIP3    H273722   3.026   4.431  11.619 -0.2424 -1.0089 -0.5361
17411TIP3   OH273723   1.999   4.420   4.388 -0.5061  0.5156  0.2364
17411TIP3    H173724   1.997   4.401   4.294 -0.3579  1.1949  0.0984
17411TIP3    H273725   2.086   4.455   4.405  0.0943 -1.2747  0.9603
17412TIP3   OH273726   5.169   1.837  15.944 -0.3799 -0.1131  0.0369
17412TIP3    H173727   5.132   1.912  15.898 -1.8815 -0.5222  0.5623
17412TIP3    H273728   5.237   1.804  15.885 -0.5116  0.9391 -0.7160
17413TIP3   OH273729   6.241   0.361   5.226 -0.1255 -0.3633  0.4367
17413TIP3    H173730   6.277   0.318   5.303 -0.0077  0.0017  0.5845
17413TIP3    H273731   6.242   0.293   5.158  2.1939  0.0330  0.0443
17414TIP3   OH273732   2.929   2.709   1.830  0.1542  0.2257  0.1997
17414TIP3    H173733   2.957   2.757   1.908 -0.1390  3.3717 -1.5657
17414TIP3    H273734   3.004   2.712   1.771 -0.0193 -1.1622 -0.1182
17415TIP3   OH273735   3.578   2.802  14.864  0.6701  0.2354  0.2562
17415TIP3    H173736   3.539   2.780  14.779  0.7915  1.5163 -0.1487
17415TIP3    H273737   3.537   2.743  14.926  0.1383 -0.3125 -0.6063
17416TIP3   OH273738   1.664   6.555   1.533  0.1493  0.6620  0.0124
17416TIP3    H173739   1.647   6.541   1.440 -3.3526 -0.0822  0.6882
17416TIP3    H273740   1.753   6.590   1.537  1.4066 -1.9499 -3.3891
17417TIP3   OH273741   6.615   1.591   2.123 -0.3174 -0.2697  0.2738
17417TIP3    H173742   6.557   1.515   2.126 -1.2565  0.4207 -0.1104
17417TIP3    H273743   6.601   1.628   2.035  2.5400 -1.5222 -0.7688
17418TIP3   OH273744   3.486   1.150   2.926  0.0308  0.2323  0.0810
17418TIP3    H173745   3.453   1.108   2.847  0.0714 -1.2535  0.8331
17418TIP3    H273746   3.460   1.091   2.997  3.7607 -0.6766  0.7543
17419TIP3   OH273747   1.133   6.297   0.460  0.1380 -0.0001  0.4355
17419TIP3    H173748   1.109   6.205   0.464  1.2449 -0.4166 -1.6742
17419TIP3    H273749   1.163   6.310   0.370 -1.3043  2.7423  0.2998
17420TIP3   OH273750   2.480   0.528  15.251 -0.6607 -0.1413 -0.7252
17420TIP3    H173751   2.537   0.495  15.321 -1.4185  1.3809  0.6460
17420TIP3    H273752   2.445   0.449  15.210  0.7469 -1.0716 -0.1787
17421TIP3   OH273753   6.779   5.235  16.231 -0.0066 -0.4957  0.8542
17421TIP3    H173754   6.754   5.282  16.152 -0.8668  0.9965  1.9765
17421TIP3    H273755   6.784   5.144  16.205 -1.3458 -0.1551 -0.6673
17422TIP3   OH273756   2.335   6.751   1.669 -0.0304 -0.2130 -0.1196
17422TIP3    H173757   2.382   6.719   1.746  1.2265  0.4348 -0.6125
17422TIP3    H273758   2.356   6.845   1.665  1.0869 -0.5105 -2.0550
17423TIP3   OH273759   6.427   5.124   3.901 -0.7287 -0.2029  0.1663
17423TIP3    H173760   6.519   5.096   3.907 -1.5361 -2.6304  1.9436
17423TIP3    H273761   6.432   5.219   3.890  2.0236 -0.4078 -0.8548
17424TIP3   OH273762   6.202   6.186   1.754  0.0664 -0.3411  0.0176
17424TIP3    H173763   6.143   6.242   1.703 -2.4529 -1.1488  1.8922
17424TIP3    H273764   6.153   6.105   1.766  1.3141 -0.8306  2.1436
17425TIP3   OH273765   0.914   0.336   2.899  0.1070  0.1539  0.0382
17425TIP3    H173766   0.895   0.406   2.961 -1.8064  0.5026 -0.9162
17425TIP3    H273767   0.869   0.260   2.934 -0.3348  0.1624 -0.4994
17426TIP3   OH273768   6.298   5.982   0.369  0.0713 -0.3310 -0.1133
17426TIP3    H173769   6.237   6.050   0.341  0.3337  0.9077  2.1336
17426TIP3    H273770   6.384   6.026   0.370  0.6125 -1.3469 -0.8222
17427TIP3   OH273771   1.522   4.618   0.640  0.5146 -0.1933 -0.4732
17427TIP3    H173772   1.465   4.543   0.659  1.0948 -0.4080  0.5006
17427TIP3    H273773   1.491   4.687   0.698 -1.4158  1.0525 -2.9209
17428TIP3   OH273774   4.782   3.667  11.444 -0.3174  0.3111  0.6699
17428TIP3    H173775   4.822   3.672  11.531  0.6215 -2.6119  0.4516
17428TIP3    H273776   4.855   3.653  11.384 -1.2499 -0.8137 -0.2262
17429TIP3   OH273777   6.377   4.068   3.948  0.1898  0.6350  0.6932
17429TIP3    H173778   6.403   4.003   4.014  1.4224  2.4473  2.0428
17429TIP3    H273779   6.301   4.029   3.905  1.2266 -1.9417  1.0941
17430TIP3   OH273780   0.175   2.109  16.016  0.3849 -0.3193 -0.2113
17430TIP3    H173781   0.186   2.168  15.941 -1.4385 -2.1848 -2.0124
17430TIP3    H273782   0.081   2.110  16.033  0.6254 -1.0030  1.1541
17431TIP3   OH273783   1.107   0.068  12.570 -0.0110  0.8273 -0.2235
17431TIP3    H173784   1.072   0.084  12.657 -0.4008  2.2875 -0.6315
17431TIP3    H273785   1.188   0.019  12.585  0.0153  1.2271  0.9631
17432TIP3   OH273786   3.921   1.250   2.520 -0.3120  0.4976  0.4066
17432TIP3    H173787   3.964   1.244   2.605  1.0757 -0.4937 -0.3480
17432TIP3    H273788   3.977   1.307   2.468 -2.6290  3.4649  0.9987
17433TIP3   OH273789   1.597   3.047   3.919 -0.5107 -0.4165  0.5286
17433TIP3    H173790   1.597   3.026   4.012  2.2945  2.1625  1.1656
17433TIP3    H273791   1.566   3.137   3.914  0.8265 -0.0039 -0.8526
17434TIP3   OH273792   6.682   5.924   2.618 -0.6816  0.0853  0.1816
17434TIP3    H173793   6.630   5.907   2.539 -1.6393  1.0595  0.5938
17434TIP3    H273794   6.647   6.006   2.652  0.3603  0.1444  1.1088
17435TIP3   OH273795   2.480   6.290   1.384 -0.9251 -0.3311  0.7004
17435TIP3    H173796   2.422   6.214   1.385 -3.4537  1.4878 -1.1180
17435TIP3    H273797   2.533   6.279   1.305  0.5939 -1.5014  1.8488
17436TIP3   OH273798   3.529   3.092   5.314 -0.4260  0.0775 -0.4093
17436TIP3    H173799   3.466   3.020   5.321 -0.1919 -0.1030 -0.1545
17436TIP3    H273800   3.615   3.049   5.314 -0.2954  0.3380 -0.5335
17437TIP3   OH273801   4.372   4.825  14.255  0.0211  0.2146  0.0758
17437TIP3    H173802   4.314   4.749  14.257  0.0168  0.2044 -0.3971
17437TIP3    H273803   4.342   4.880  14.327  1.2500 -1.1220  1.6527
17438TIP3   OH273804   3.546   2.678  14.465 -0.4508 -1.0748 -0.1020
17438TIP3    H173805   3.482   2.741  14.432 -1.4792 -2.7659 -1.3627
17438TIP3    H273806   3.557   2.615  14.394  0.0967 -2.6954  1.3887
17439TIP3   OH273807   6.010   2.397  13.263 -0.0825 -0.2332 -0.0065
17439TIP3    H173808   6.064   2.439  13.330 -0.1096 -0.0208 -0.1154
17439TIP3    H273809   6.050   2.425  13.180 -0.8573  0.5972 -0.1012
17440TIP3   OH273810   0.016   6.699  13.829 -0.4033 -0.5618  0.3532
17440TIP3    H173811  -0.075   6.674  13.844  0.3605 -3.4065  0.4771
17440TIP3    H273812   0.016   6.737  13.741 -1.8007  0.0143  0.5911
17441TIP3   OH273813   2.673   4.534   1.378  0.1611  0.2162 -0.1943
17441TIP3    H173814   2.750   4.496   1.420  0.2262  0.7002  0.1396
17441TIP3    H273815   2.685   4.629   1.388 -1.3277  0.2701  1.4538
17442TIP3   OH273816   6.046   5.119   3.086 -0.1621  0.1545  0.1384
17442TIP3    H173817   6.050   5.038   3.137  1.1739  0.7458  1.0037
17442TIP3    H273818   6.114   5.108   3.019  0.7657  0.9991  0.9315
17443TIP3   OH273819   3.092   2.404   3.219 -0.3370  0.3421  0.6235
17443TIP3    H173820   3.069   2.334   3.159 -0.4541  0.4191  0.5778
17443TIP3    H273821   3.073   2.369   3.306 -0.8389  0.4851  0.5722
17444TIP3   OH273822   3.992   2.457   2.143 -0.2146  0.0646  0.0106
17444TIP3    H173823   4.031   2.465   2.055 -1.7647  0.8933 -0.6278
17444TIP3    H273824   4.040   2.521   2.195 -1.1814  1.6191 -0.9583
17445TIP3   OH273825   3.228   5.598  13.932 -0.6520 -0.4329  0.1583
17445TIP3    H173826   3.219   5.614  14.026 -0.0543 -1.4613  0.3969
17445TIP3    H273827   3.306   5.647  13.906 -0.0459 -1.2219  0.4685
17446TIP3   OH273828   0.228   1.780   4.264  0.8445  0.4730  0.2835
17446TIP3    H173829   0.169   1.855   4.255  2.5969  1.9921  1.2422
17446TIP3    H273830   0.169   1.706   4.279 -1.0145  1.3328 -2.3193
17447TIP3   OH273831   1.886   5.801   4.005 -0.7580  0.3381  0.0586
17447TIP3    H173832   1.975   5.770   3.989 -0.6388  0.8228 -0.2203
17447TIP3    H273833   1.855   5.747   4.078  0.0176  0.6479  0.6296
17448TIP3   OH273834   0.603   4.077  11.629 -0.1928 -0.0377  0.2664
17448TIP3    H173835   0.687   4.115  11.655  0.3020  0.3354 -1.7605
17448TIP3    H273836   0.540   4.148  11.642  0.1602  0.3670 -0.1924
17449TIP3   OH273837   4.456   2.104   0.487  0.6905  0.0920  0.3336
17449TIP3    H173838   4.499   2.143   0.563  0.8415  1.9810 -0.7058
17449TIP3    H273839   4.438   2.177   0.429 -1.6863 -0.9994 -0.3637
17450TIP3   OH273840   1.458   2.265  15.987 -0.0109  0.4058  0.8806
17450TIP3    H173841   1.466   2.359  15.969  0.1832  0.6368  2.0902
17450TIP3    H273842   1.521   2.249  16.057 -0.5194 -0.4929  1.1382
17451TIP3   OH273843   1.382   2.868  11.377  0.3221  0.0097 -0.0491
17451TIP3    H173844   1.286   2.870  11.376  0.3093 -0.5552 -1.5137
17451TIP3    H273845   1.406   2.848  11.286  1.8380  0.5777  0.2166
17452TIP3   OH273846   0.482   6.219   5.085  0.6289 -0.3291  0.3802
17452TIP3    H173847   0.478   6.181   4.997 -1.1204 -0.3423  0.4464
17452TIP3    H273848   0.487   6.313   5.071  0.3821 -0.3330  0.2685
17453TIP3   OH273849   1.447   1.346   5.798 -0.0517  0.3083  0.0337
17453TIP3    H173850   1.364   1.368   5.841 -0.2935 -0.7069  0.1154
17453TIP3    H273851   1.424   1.275   5.738  0.7911 -0.1086  0.1988
17454TIP3   OH273852   2.789   0.774   6.622  0.4090 -0.2509  0.2444
17454TIP3    H173853   2.845   0.700   6.600 -0.7860 -0.8321 -0.8576
17454TIP3    H273854   2.779   0.822   6.540  0.4271  0.6482  0.7530
17455TIP3   OH273855   0.294   2.396  15.226  0.4009  0.2278  0.4713
17455TIP3    H173856   0.247   2.376  15.307 -1.1105 -0.5586 -0.5755
17455TIP3    H273857   0.276   2.322  15.168 -0.5701  1.8964 -1.4342
17456TIP3   OH273858   4.370   3.007  14.460 -0.0022 -0.1708 -1.1409
17456TIP3    H173859   4.278   2.987  14.478  0.2678  0.5212  1.1704
17456TIP3    H273860   4.419   2.938  14.504  0.7383  2.4308  2.3566
17457TIP3   OH273861   3.872   5.722  12.057 -0.3719  0.2723 -0.1477
17457TIP3    H173862   3.946   5.767  12.099  1.1946 -1.6007 -0.8365
17457TIP3    H273863   3.829   5.675  12.128 -0.2039  0.4140  0.0506
17458TIP3   OH273864   1.087   4.156  16.076 -0.1950 -0.4890  0.0142
17458TIP3    H173865   1.134   4.138  16.157 -1.8702 -1.9081  0.6915
17458TIP3    H273866   1.072   4.251  16.078 -0.0940 -0.4899  1.2881
17459TIP3   OH273867   5.475   3.942  16.297 -0.3120 -0.0994 -0.4626
17459TIP3    H173868   5.409   3.996  16.340 -0.3267 -0.4510 -0.0334
17459TIP3    H273869   5.432   3.909  16.218 -0.5711 -0.1366 -0.3044
17460TIP3   OH273870   1.121   5.268   3.205  0.0856 -0.0999 -0.5134
17460TIP3    H173871   1.083   5.355   3.217 -1.0675 -0.7431  0.5525
17460TIP3    H273872   1.193   5.282   3.144  0.6615  1.8021  0.5801
17461TIP3   OH273873   2.414   4.404  16.714 -0.0983 -0.4126 -1.1673
17461TIP3    H173874   2.326   4.442  16.710  0.6543  1.3461 -1.4776
17461TIP3    H273875   2.407   4.335  16.781 -1.0585  1.4855  0.7453
17462TIP3   OH273876   1.462   4.870   4.277 -0.2856 -0.2398  0.5390
17462TIP3    H173877   1.373   4.843   4.303 -0.3119 -2.0425 -1.3026
17462TIP3    H273878   1.505   4.891   4.360 -2.4146  0.6259  1.4700
17463TIP3   OH273879   0.777   2.959   2.347 -0.3784 -0.1815  0.7907
17463TIP3    H173880   0.773   3.001   2.433 -1.2267  0.0050  0.6707
17463TIP3    H273881   0.708   3.003   2.297  0.3160 -0.0729 -0.0792
17464TIP3   OH273882   6.004   4.385  12.341  0.0722  0.1916 -0.4040
17464TIP3    H173883   6.039   4.381  12.251  2.3497 -0.0679  0.4527
17464TIP3    H273884   6.016   4.297  12.375  1.0333  0.7538  0.7768
17465TIP3   OH273885   4.482   5.335   2.387 -0.3467  0.3573 -0.2710
17465TIP3    H173886   4.431   5.255   2.378 -1.5017  0.8368  1.5726
17465TIP3    H273887   4.562   5.320   2.336 -1.0520 -1.5138 -0.8411
17466TIP3   OH273888   0.876   0.340  10.421  0.2279 -0.5196 -0.0085
17466TIP3    H173889   0.851   0.391  10.344  1.6046 -0.3822 -0.3868
17466TIP3    H273890   0.972   0.341  10.420  0.2620 -1.2469  1.2273
17467TIP3   OH273891   1.262   2.229   6.298  0.7954  0.3049  0.2492
17467TIP3    H173892   1.254   2.229   6.394  1.9134 -0.5784  0.3498
17467TIP3    H273893   1.245   2.138   6.273  1.0584  0.4193 -0.3497
17468TIP3   OH273894   6.319   6.450  12.180 -0.4562 -0.1962  0.0042
17468TIP3    H173895   6.353   6.540  12.187  1.7838 -1.0341  0.3873
17468TIP3    H273896   6.277   6.434  12.265 -1.4852  0.7139 -0.3199
17469TIP3   OH273897   5.646   1.160  16.243 -0.1657 -0.3247 -0.0741
17469TIP3    H173898   5.565   1.199  16.276 -0.0862  0.1665 -0.4548
17469TIP3    H273899   5.650   1.188  16.152  0.6507  0.0131  0.0581
17470TIP3   OH273900   1.007   2.332  11.265  0.3728  0.1097  0.2521
17470TIP3    H173901   1.064   2.283  11.324 -0.6758 -1.3349  0.0877
17470TIP3    H273902   0.924   2.341  11.313 -0.4555 -0.9968 -0.9348
17471TIP3   OH273903   2.234   3.248  14.220  0.5706 -0.8229  0.4359
17471TIP3    H173904   2.209   3.200  14.299 -0.2799 -2.0755 -0.5676
17471TIP3    H273905   2.192   3.200  14.149  2.1990 -0.3556 -0.8807
17472TIP3   OH273906   1.905   4.498  12.033 -0.1132  0.3109  0.4496
17472TIP3    H173907   1.934   4.518  11.944  0.0728 -3.3852 -0.4139
17472TIP3    H273908   1.813   4.524  12.035  0.2722  1.7559 -0.3530
17473TIP3   OH273909   3.303   5.967   4.409 -0.1709  0.4831 -0.1945
17473TIP3    H173910   3.379   5.974   4.467 -0.1426 -0.9352 -0.0424
17473TIP3    H273911   3.339   5.934   4.327 -0.7903 -1.5470  0.3135
17474TIP3   OH273912   5.193   0.150  11.985  0.0461  0.3142  0.3736
17474TIP3    H173913   5.211   0.233  11.942  1.2555  0.7667  1.7145
17474TIP3    H273914   5.275   0.102  11.980 -0.7210 -0.9150 -0.6180
17475TIP3   OH273915   6.641   1.564   3.786 -0.0893 -0.0834 -1.3557
17475TIP3    H173916   6.606   1.535   3.870 -0.4771 -0.4463 -1.6415
17475TIP3    H273917   6.605   1.652   3.774  2.2113  1.1212  0.1756
17476TIP3   OH273918   1.296   5.171  13.440 -0.4638 -0.4883 -0.1270
17476TIP3    H173919   1.358   5.221  13.387  1.3876 -0.3912  2.0831
17476TIP3    H273920   1.213   5.218  13.431  0.2124  0.4409 -1.6080
17477TIP3   OH273921   0.552   1.932  16.966 -0.4586  0.1040  1.1909
17477TIP3    H173922   0.488   1.973  16.909  0.8730  2.3344  1.2360
17477TIP3    H273923   0.523   1.955  17.055  0.5587  1.4177  1.2004
17478TIP3   OH273924   4.355   2.304  12.424 -0.6670 -0.3153  0.0132
17478TIP3    H173925   4.434   2.285  12.474 -0.2843  0.7200 -0.1765
17478TIP3    H273926   4.324   2.219  12.395  0.7096 -0.6998 -0.3941
17479TIP3   OH273927   0.608   1.952   1.140 -0.5865 -0.0616 -0.0393
17479TIP3    H173928   0.584   1.961   1.048  0.3414  1.4200 -0.1583
17479TIP3    H273929   0.601   2.041   1.175  1.5530 -0.1603  0.6926
17480TIP3   OH273930   1.841   1.755   2.009  0.4911 -0.0020  0.1458
17480TIP3    H173931   1.770   1.712   2.057 -1.0618  1.9206 -0.3563
17480TIP3    H273932   1.850   1.704   1.928  0.1590 -0.6590  0.5199
17481TIP3   OH273933   0.015   2.900  13.101 -0.3435 -0.1101 -0.2755
17481TIP3    H173934  -0.052   2.832  13.098  0.0554 -0.7452  3.6281
17481TIP3    H273935  -0.033   2.981  13.117 -0.4092 -0.1141 -0.4436
17482TIP3   OH273936   3.439   5.362  16.588  0.5766  0.0032  0.0526
17482TIP3    H173937   3.522   5.341  16.546 -0.4626 -2.3600 -0.9051
17482TIP3    H273938   3.378   5.378  16.515 -0.0554  0.7020  0.7229
17483TIP3   OH273939   0.873   1.365   0.040 -0.0555  0.5108 -0.2580
17483TIP3    H173940   0.895   1.430  -0.027  1.3151 -0.5749 -0.8965
17483TIP3    H273941   0.855   1.285  -0.010 -1.5632  0.3470  0.5268
17484TIP3   OH273942   4.727   6.714   0.090  0.1363 -0.3110 -0.6001
17484TIP3    H173943   4.817   6.744   0.077 -0.1440  0.4859 -0.6812
17484TIP3    H273944   4.673   6.777   0.043 -0.5928  0.3136  1.0459
17485TIP3   OH273945   3.996   0.915  14.584 -0.0488 -0.8120 -0.5320
17485TIP3    H173946   3.954   0.850  14.640 -0.1517 -0.2832  0.0146
17485TIP3    H273947   4.058   0.960  14.641 -2.6384  2.1213  0.1443
17486TIP3   OH273948   2.651   4.600  13.577  0.0122  0.1018 -0.1358
17486TIP3    H173949   2.655   4.620  13.483  0.6392  0.9459  0.0617
17486TIP3    H273950   2.740   4.616  13.608 -0.3002  0.2431  0.6880
17487TIP3   OH273951   0.944   4.699   2.082  0.2252 -0.8731  0.4072
17487TIP3    H173952   0.850   4.715   2.081  0.1603 -1.1808 -1.6703
17487TIP3    H273953   0.984   4.786   2.088 -0.1909 -0.4390 -2.3421
17488TIP3   OH273954   2.079   2.595   0.799 -0.3140 -0.6065 -0.3174
17488TIP3    H173955   2.101   2.639   0.881 -0.6251 -1.8630  0.4403
17488TIP3    H273956   2.095   2.662   0.732  4.0898 -0.8717  0.3266
17489TIP3   OH273957   4.640   0.494   4.645 -0.2714 -0.1527 -0.0368
17489TIP3    H173958   4.716   0.442   4.619  0.3667  0.3336  0.8433
17489TIP3    H273959   4.570   0.465   4.586  0.6172 -0.5250 -0.9337
17490TIP3   OH273960   3.778   5.195   5.612 -0.4757 -0.0734  0.2783
17490TIP3    H173961   3.785   5.128   5.679  1.3815 -0.6044 -0.4104
17490TIP3    H273962   3.711   5.163   5.552 -0.0479 -1.0247  0.2965
17491TIP3   OH273963   0.671   0.357   0.318 -0.2427  0.3350  0.4832
17491TIP3    H173964   0.716   0.435   0.349  1.0424 -1.3087  2.8832
17491TIP3    H273965   0.732   0.318   0.254  1.2674 -1.1819  2.7636
17492TIP3   OH273966   0.193   1.765  16.234 -0.1082 -0.4501  0.8298
17492TIP3    H173967   0.222   1.804  16.151  1.9183  1.8034  2.4972
17492TIP3    H273968   0.230   1.677  16.233  1.6755  0.2629  0.1892
17493TIP3   OH273969   4.977   5.165  15.056 -0.1046 -0.1926 -0.1546
17493TIP3    H173970   5.072   5.156  15.059 -0.0892  0.2107  0.8691
17493TIP3    H273971   4.962   5.259  15.046 -0.4020 -0.1739  0.4341
17494TIP3   OH273972   4.868   1.844  16.674 -0.2388 -0.0319 -0.6712
17494TIP3    H173973   4.811   1.845  16.750  0.2288 -1.8286 -0.2764
17494TIP3    H273974   4.833   1.775  16.618  1.4709 -1.0946 -0.4689
17495TIP3   OH273975   6.664   0.894  16.561 -0.8562  0.1214 -1.2023
17495TIP3    H173976   6.677   0.799  16.565 -1.2062  0.0078 -2.6426
17495TIP3    H273977   6.752   0.930  16.551 -0.7375 -0.0518 -0.7986
17496TIP3   OH273978   0.725   0.547  17.000  0.4082  0.0934 -0.4490
17496TIP3    H173979   0.804   0.593  16.971  0.5939 -0.5646 -1.0304
17496TIP3    H273980   0.727   0.553  17.095  0.9508  0.4351 -0.4789
17497TIP3   OH273981   5.890   2.857   1.559 -0.4861  0.1716  0.1088
17497TIP3    H173982   5.889   2.778   1.613 -0.9519 -1.1742 -1.8155
17497TIP3    H273983   5.911   2.928   1.620  1.3292 -1.6174  1.6311
17498TIP3   OH273984   2.793   3.588  12.628  0.5114 -0.3243  0.6186
17498TIP3    H173985   2.748   3.616  12.548 -0.9154 -0.4683  1.3422
17498TIP3    H273986   2.832   3.668  12.663  0.4610 -0.1109  0.1859
17499TIP3   OH273987   0.175   0.544  17.009 -0.0491  0.7275  0.3854
17499TIP3    H173988   0.172   0.635  16.980  1.1043  0.9676  0.9773
17499TIP3    H273989   0.244   0.504  16.956  0.9463  0.7566  1.6397
17500TIP3   OH273990   1.024   1.077  15.947 -0.3459  0.3123 -0.6387
17500TIP3    H173991   1.006   0.987  15.921 -0.1832  0.5609 -1.6323
17500TIP3    H273992   1.072   1.070  16.029 -3.4725 -0.4314  1.2068
17501TIP3   OH273993   1.876   2.445   0.730 -0.5174  0.0687 -0.2876
17501TIP3    H173994   1.904   2.354   0.739 -1.5507 -0.1411  0.9289
17501TIP3    H273995   1.938   2.495   0.783 -0.4742 -0.0243 -0.2507
17502TIP3   OH273996   6.658   6.215  11.330  0.9860 -0.3077 -0.3817
17502TIP3    H173997   6.696   6.215  11.242 -0.1740  1.1300 -0.8998
17502TIP3    H273998   6.618   6.129  11.339  2.8748 -1.2097 -0.4770
17503TIP3   OH273999   5.770   3.915   1.368  0.1783  0.1921 -0.1517
17503TIP3    H174000   5.692   3.871   1.332 -1.1013  3.6288 -1.8613
17503TIP3    H274001   5.818   3.946   1.291  0.3541  2.8046  0.9343
17504TIP3   OH274002   4.620   1.049  14.800  0.5070  0.2689 -0.0569
17504TIP3    H174003   4.641   1.107  14.727 -0.6231 -0.4869 -1.0033
17504TIP3    H274004   4.634   1.102  14.878  0.9189  1.3415 -0.8497
17505TIP3   OH274005   4.519   2.543  14.831 -0.1642  0.0423 -0.0436
17505TIP3    H174006   4.484   2.514  14.915  0.1387  1.4007  0.5645
17505TIP3    H274007   4.517   2.465  14.776 -0.8724 -0.7283  1.0549
17506TIP3   OH274008   2.178   1.492  13.494  0.4858 -0.1455 -0.3005
17506TIP3    H174009   2.233   1.433  13.442  1.6388  1.7091 -1.2240
17506TIP3    H274010   2.123   1.537  13.430  0.4690  0.6589  0.2705
17507TIP3   OH274011   6.072   1.538   2.222  0.2438  0.3914  0.1885
17507TIP3    H174012   5.986   1.530   2.182  0.9004 -0.1050 -1.1549
17507TIP3    H274013   6.068   1.481   2.299 -0.6221  0.3853  0.1450
17508TIP3   OH274014   6.227   5.036  16.704 -0.6492  0.7912  0.1501
17508TIP3    H174015   6.298   4.993  16.751 -0.5908  1.0044  0.2580
17508TIP3    H274016   6.158   5.046  16.770  0.1147  2.7494  0.6895
17509TIP3   OH274017   4.748   3.640  16.137  0.1059 -0.0572 -0.0886
17509TIP3    H174018   4.665   3.615  16.096 -0.1060  1.6589 -0.7544
17509TIP3    H274019   4.756   3.733  16.118  2.2802 -0.2479 -0.1734
17510TIP3   OH274020   6.535   3.372  11.961 -0.2837  0.6020  0.1476
17510TIP3    H174021   6.502   3.399  12.047  0.3712  0.9192  0.3006
17510TIP3    H274022   6.592   3.298  11.979  0.5213  1.1951  0.0830
17511TIP3   OH274023   2.492   5.905   5.119 -0.0934 -0.1797  1.0421
17511TIP3    H174024   2.485   5.810   5.121  0.1922 -0.2039  0.9399
17511TIP3    H274025   2.521   5.929   5.208  0.7471 -0.2656  0.7909
17512TIP3   OH274026   0.128   6.420  15.824  0.0037 -0.5313 -0.8294
17512TIP3    H174027   0.204   6.363  15.838 -0.1121 -0.6407 -0.6304
17512TIP3    H274028   0.143   6.460  15.739 -0.3257 -1.5109 -1.3524
17513TIP3   OH274029   1.099   3.225  16.673 -0.8196  0.1575  0.0962
17513TIP3    H174030   1.004   3.212  16.678 -0.8978  0.2586 -0.9291
17513TIP3    H274031   1.116   3.242  16.580  0.4834 -2.0554 -0.1159
17514TIP3   OH274032   6.121   6.393   2.647  0.7064  0.6346 -0.1827
17514TIP3    H174033   6.093   6.478   2.613  1.8326  1.0592 -0.0762
17514TIP3    H274034   6.182   6.414   2.718  0.3715 -0.2624  0.3863
17515TIP3   OH274035   0.757   1.944  12.793  0.2764 -0.4529 -0.4941
17515TIP3    H174036   0.814   1.951  12.717  0.5998  0.4439 -0.1783
17515TIP3    H274037   0.801   1.881  12.851  0.4647 -0.4764 -0.6639
17516TIP3   OH274038   5.003   3.942  12.596  0.2311  0.5879  0.6513
17516TIP3    H174039   5.002   3.846  12.602 -0.6855  0.5148 -0.6271
17516TIP3    H274040   5.085   3.967  12.640  1.3813 -0.8896 -0.5877
17517TIP3   OH274041   6.795   6.042   1.297  0.3278 -0.2509 -0.1038
17517TIP3    H174042   6.765   6.120   1.251  0.0122 -0.9065 -1.0148
17517TIP3    H274043   6.720   6.014   1.349 -0.0131 -0.7502 -0.8580
17518TIP3   OH274044   2.723   2.912  12.986 -0.3626 -0.1293 -0.1953
17518TIP3    H174045   2.649   2.962  12.952 -1.0175  0.3408  1.8539
17518TIP3    H274046   2.700   2.820  12.970 -0.7752  0.0698 -0.7445
17519TIP3   OH274047   2.034   5.467  13.055 -0.1995 -0.3311  0.1813
17519TIP3    H174048   1.994   5.463  13.142  1.2945  0.4720  0.9281
17519TIP3    H274049   2.032   5.376  13.024 -1.2962 -0.5249  0.7815
17520TIP3   OH274050   4.609   6.729   2.949  0.1542 -0.2163 -0.3515
17520TIP3    H174051   4.676   6.732   2.881 -0.6057  2.7488 -1.0169
17520TIP3    H274052   4.544   6.667   2.917  1.0626 -0.7862 -1.1141
17521TIP3   OH274053   6.759   0.740   0.470  0.6421  0.5473  0.0595
17521TIP3    H174054   6.724   0.653   0.449  1.9119  0.3424 -1.2819
17521TIP3    H274055   6.736   0.793   0.393 -0.1534  1.4166  0.8887
17522TIP3   OH274056   6.109   1.193  11.192 -0.1739  0.3023 -0.3050
17522TIP3    H174057   6.159   1.210  11.272  0.2224  0.0753 -0.5026
17522TIP3    H274058   6.137   1.261  11.131  0.8550 -0.5728 -0.8406
17523TIP3   OH274059   3.826   4.547   4.974  0.1403 -0.2315  0.5220
17523TIP3    H174060   3.887   4.588   5.035  1.7391 -0.0677 -1.1515
17523TIP3    H274061   3.851   4.581   4.888 -1.6044 -1.0140 -0.3182
17524TIP3   OH274062   0.088   1.124   3.669  0.2400 -0.4715  0.5430
17524TIP3    H174063  -0.002   1.155   3.659  1.0288  1.1524 -1.6620
17524TIP3    H274064   0.078   1.036   3.706 -2.3703 -1.2660 -1.8551
17525TIP3   OH274065   0.485   6.368  16.873  0.1519  0.3381 -0.9868
17525TIP3    H174066   0.553   6.310  16.907 -2.1875 -0.0121  3.5806
17525TIP3    H274067   0.424   6.309  16.829  0.4109  0.0215 -0.9270
17526TIP3   OH274068   1.175   4.341   2.984  0.2885  0.0870 -0.2576
17526TIP3    H174069   1.227   4.404   2.933  0.6679 -0.1860 -0.2088
17526TIP3    H274070   1.210   4.348   3.072  1.8481 -1.8175 -0.7128
17527TIP3   OH274071   5.917   5.862  17.118  0.1649 -0.1557  0.2938
17527TIP3    H174072   5.838   5.902  17.154  1.0571  1.8237  0.0890
17527TIP3    H274073   5.962   5.826  17.194 -0.3296 -0.2493  0.5469
17528TIP3   OH274074   2.637   2.467  15.006  0.0618 -0.6520 -0.0164
17528TIP3    H174075   2.690   2.546  15.021  0.8892 -1.1987 -0.0408
17528TIP3    H274076   2.624   2.431  15.094 -2.6727  1.0026  0.3182
17529TIP3   OH274077   5.206   4.137  14.728  0.0697 -0.6402  0.3129
17529TIP3    H174078   5.139   4.092  14.779 -0.6117 -0.4803 -0.4272
17529TIP3    H274079   5.201   4.228  14.757  0.7144 -0.8324  1.0375
17530TIP3   OH274080   2.455   0.218   0.969 -0.1122  0.2856  0.3437
17530TIP3    H174081   2.450   0.254   0.880 -1.2302 -2.5627 -0.7862
17530TIP3    H274082   2.366   0.189   0.989  0.4576 -0.5218  1.7880
17531TIP3   OH274083   2.882   4.714   0.486  0.0948  0.5905 -0.3452
17531TIP3    H174084   2.964   4.665   0.474  0.3083  1.2021 -1.4285
17531TIP3    H274085   2.821   4.650   0.522  0.7435 -0.1480 -0.5490
17532TIP3   OH274086   3.420   1.908   1.285  0.0939  0.9044  0.3011
17532TIP3    H174087   3.357   1.977   1.305 -1.5089 -0.2191 -0.8117
17532TIP3    H274088   3.404   1.841   1.351  0.4323  0.7913  0.2716
17533TIP3   OH274089   4.272   0.080  13.478 -0.8156  0.1322  0.1502
17533TIP3    H174090   4.343   0.139  13.504 -0.2190 -0.4958 -0.0511
17533TIP3    H274091   4.264   0.018  13.551  0.6258 -1.4177 -0.9861
17534TIP3   OH274092   3.312   6.180  10.595  0.4086 -0.2751 -0.5571
17534TIP3    H174093   3.278   6.108  10.542  2.8802 -2.0680  0.1893
17534TIP3    H274094   3.405   6.159  10.608  0.7233  2.0266  1.3475
17535TIP3   OH274095   3.216   0.408  15.612 -0.7657  0.1165  0.0825
17535TIP3    H174096   3.257   0.330  15.573  0.6378  1.1702 -0.5899
17535TIP3    H274097   3.269   0.481  15.581 -1.5540  1.2731  1.4014
17536TIP3   OH274098   0.508   1.867   3.455  0.7458  0.0165  0.6763
17536TIP3    H174099   0.420   1.856   3.490 -0.1497  0.4461 -1.3730
17536TIP3    H274100   0.549   1.781   3.467 -0.6291 -0.7724 -0.1857
17537TIP3   OH274101   2.741   5.279   2.787 -0.3793 -0.7389 -0.3460
17537TIP3    H174102   2.805   5.343   2.820 -0.4655 -0.0321 -1.5076
17537TIP3    H274103   2.685   5.261   2.862  0.3959 -0.3846  0.3331
17538TIP3   OH274104   5.863   3.309  11.950 -0.3176 -0.4533  0.8756
17538TIP3    H174105   5.920   3.232  11.958 -0.7597 -0.7805  0.8541
17538TIP3    H274106   5.798   3.284  11.885  1.5450  1.1537 -1.6998
17539TIP3   OH274107   1.526   4.529  12.704  0.1198  0.2213  0.0562
17539TIP3    H174108   1.493   4.556  12.618  1.5215  1.1828 -0.1951
17539TIP3    H274109   1.542   4.612  12.750  0.2068 -0.2780  0.9299
17540TIP3   OH274110   3.165   1.954  15.251 -0.7445  0.4370 -0.4446
17540TIP3    H174111   3.253   1.921  15.236 -0.8206 -1.3687  2.6592
17540TIP3    H274112   3.178   2.045  15.279  0.1602  0.0694  0.3357
17541TIP3   OH274113   6.030   4.710   2.657 -0.6771 -0.5999 -0.1849
17541TIP3    H174114   6.122   4.737   2.660 -0.8234 -0.2057  1.3200
17541TIP3    H274115   6.003   4.724   2.567  0.7525 -0.7333 -0.6443
17542TIP3   OH274116   6.312   4.068   2.408  0.1853  0.3469 -0.2422
17542TIP3    H174117   6.341   4.106   2.491 -1.8035  0.1584  0.5803
17542TIP3    H274118   6.244   4.005   2.433 -1.2519  1.1205 -2.0860
17543TIP3   OH274119   1.045   0.681   0.736 -0.2632  0.0219 -0.2185
17543TIP3    H174120   1.047   0.642   0.823 -0.8233  0.9556  0.2236
17543TIP3    H274121   0.963   0.651   0.698  0.2332 -0.8227 -0.6383
17544TIP3   OH274122   5.581   4.118  15.792  0.2191  1.0182 -0.1613
17544TIP3    H174123   5.490   4.133  15.765  0.4446  1.7413 -0.5557
17544TIP3    H274124   5.629   4.112  15.709  0.5976  1.0859  0.0532
17545TIP3   OH274125   2.235   3.334   5.103  0.0207  0.0516  0.4118
17545TIP3    H174126   2.174   3.263   5.120 -0.6398  0.4632 -0.1859
17545TIP3    H274127   2.234   3.345   5.008 -0.2958  1.2014  0.5327
17546TIP3   OH274128   6.781   4.142  16.571 -0.2166  0.3586  0.4771
17546TIP3    H174129   6.710   4.149  16.507  0.1990 -1.5980 -0.2477
17546TIP3    H274130   6.822   4.228  16.571 -1.8082  1.1440 -0.0197
17547TIP3   OH274131   4.913   1.373  11.906 -0.7441 -0.7410  0.1659
17547TIP3    H174132   4.961   1.441  11.955  0.2806 -1.6733  0.4747
17547TIP3    H274133   4.822   1.402  11.908 -0.2813  0.7675  0.0690
17548TIP3   OH274134   3.475   1.520  14.130 -0.0967  0.2581 -0.2596
17548TIP3    H174135   3.388   1.554  14.153 -0.3159 -0.3551 -0.1709
17548TIP3    H274136   3.477   1.432  14.168 -0.6743 -0.9838 -2.9716
17549TIP3   OH274137   5.856   1.796   0.619 -0.5930 -0.5338 -0.0753
17549TIP3    H174138   5.897   1.772   0.702 -0.5210  0.8705  0.3141
17549TIP3    H274139   5.930   1.804   0.558 -0.5191 -0.3469  0.0376
17550TIP3   OH274140   4.443   4.663   4.410 -0.0715 -0.0296 -0.1605
17550TIP3    H174141   4.367   4.626   4.365 -1.1126 -0.9370  2.2612
17550TIP3    H274142   4.448   4.754   4.379 -1.8084 -0.1269 -0.7477
17551TIP3   OH274143   3.700   5.205  11.463 -0.0030 -0.3843  0.4015
17551TIP3    H174144   3.736   5.240  11.545  1.3055 -2.2205  0.6516
17551TIP3    H274145   3.634   5.142  11.492  0.2878 -0.8561  0.0477
17552TIP3   OH274146   0.492   1.272   3.042  0.0188  0.3997  0.5624
17552TIP3    H174147   0.497   1.187   2.998  2.4739  0.0053  1.5079
17552TIP3    H274148   0.563   1.323   3.003 -0.5458  1.5375  1.0018
17553TIP3   OH274149   0.766   6.489  14.651 -0.2678  0.3771 -0.3449
17553TIP3    H174150   0.839   6.467  14.593 -0.2244 -1.0917  0.2521
17553TIP3    H274151   0.765   6.419  14.716 -0.7030  1.6705  1.0769
17554TIP3   OH274152   4.998   1.607   5.076 -0.0840 -0.2821  0.0151
17554TIP3    H174153   5.080   1.637   5.115 -0.0373 -0.2946 -0.0742
17554TIP3    H274154   4.945   1.579   5.150 -0.4713  0.8556  0.1699
17555TIP3   OH274155   2.022   3.235   2.310  0.0311 -0.0255 -0.3537
17555TIP3    H174156   1.938   3.199   2.338  0.8440 -1.2447  0.5810
17555TIP3    H274157   2.074   3.159   2.285  1.5977  0.5050  1.1351
17556TIP3   OH274158   3.789   6.606  15.166 -0.1563 -0.2261  0.0020
17556TIP3    H174159   3.841   6.610  15.246  0.2529  0.6413 -0.3091
17556TIP3    H274160   3.734   6.528  15.178  1.0526 -1.0429  0.4224
17557TIP3   OH274161   6.414   2.054   4.378  0.0222  0.1929  0.7057
17557TIP3    H174162   6.481   2.000   4.419 -1.6484 -1.7829  0.9092
17557TIP3    H274163   6.394   2.009   4.296 -0.3574  1.2964  0.1788
17558TIP3   OH274164   3.795   3.719  15.515 -0.2269 -0.2104 -0.6444
17558TIP3    H174165   3.779   3.646  15.575  1.6848  0.1667  0.3529
17558TIP3    H274166   3.880   3.699  15.475 -0.5306  0.5680 -1.7023
17559TIP3   OH274167   1.342   5.497   4.740  0.1091 -0.1442 -0.6751
17559TIP3    H174168   1.331   5.527   4.649 -0.0655  0.4855 -0.4524
17559TIP3    H274169   1.422   5.542   4.770 -1.9963  2.8034  0.7410
17560TIP3   OH274170   2.135   4.419  15.428  0.6427 -0.3408 -0.2117
17560TIP3    H174171   2.126   4.359  15.502 -2.1006 -0.7647 -0.8410
17560TIP3    H274172   2.106   4.504  15.461  0.7657 -0.2170 -0.4161
17561TIP3   OH274173   4.054   0.389  16.330  0.5199 -0.5406 -0.1174
17561TIP3    H174174   3.985   0.391  16.264 -0.8527  0.8635  1.3130
17561TIP3    H274175   4.118   0.452  16.299  0.5481 -0.8984 -0.8030
17562TIP3   OH274176   4.164   3.229   6.394  0.1880  0.0027  0.3487
17562TIP3    H174177   4.231   3.253   6.457  0.1133  0.3050  0.3151
17562TIP3    H274178   4.120   3.312   6.373  1.1277  0.1516 -1.1523
17563TIP3   OH274179   1.123   5.113   1.627 -0.0512  0.4075  0.6735
17563TIP3    H174180   1.200   5.109   1.683 -0.0363 -0.9307  0.5748
17563TIP3    H274181   1.068   5.182   1.665 -0.0006 -0.4153  2.2733
17564TIP3   OH274182   1.080   3.614  11.198  0.1475 -0.5579 -0.0762
17564TIP3    H174183   1.099   3.601  11.104 -0.1962  0.7304 -0.3330
17564TIP3    H274184   1.116   3.700  11.217 -0.3769 -0.5437  0.8295
17565TIP3   OH274185   2.245   4.551   4.391 -0.5705 -0.2030  0.0753
17565TIP3    H174186   2.248   4.596   4.307 -0.3985 -0.8101 -0.2457
17565TIP3    H274187   2.326   4.502   4.395 -1.4399 -1.7078 -0.2710
17566TIP3   OH274188   2.706   4.274  14.853 -0.3899  0.2790 -0.2999
17566TIP3    H174189   2.727   4.184  14.875  1.3849  0.6873 -0.2699
17566TIP3    H274190   2.663   4.308  14.932 -1.5341 -0.6752 -0.5005
17567TIP3   OH274191   6.790   0.019  15.552 -0.1316 -0.3382 -0.3345
17567TIP3    H174192   6.856   0.067  15.503 -0.3280 -0.1868 -0.4506
17567TIP3    H274193   6.839  -0.052  15.595  0.3020  0.4658  0.5257
17568TIP3   OH274194   4.753   6.682   1.191 -0.0900  0.2644 -0.6947
17568TIP3    H174195   4.750   6.596   1.232 -4.2202  0.4067 -0.5067
17568TIP3    H274196   4.796   6.738   1.257  2.4671 -1.5042 -0.7651
17569TIP3   OH274197   5.243   5.636   5.976 -0.4016 -0.6480 -0.4105
17569TIP3    H174198   5.250   5.628   6.071 -1.3481 -0.4253 -0.3200
17569TIP3    H274199   5.298   5.711   5.955 -1.0782  0.0038  0.0985
17570TIP3   OH274200   5.188   0.317  12.926  0.0392 -0.4266 -0.4835
17570TIP3    H174201   5.178   0.254  12.854 -1.1284 -0.2645 -0.4717
17570TIP3    H274202   5.116   0.296  12.986  0.1779  0.3392 -0.0456
17571TIP3   OH274203   3.671   2.365  12.238 -0.0082  0.1378 -0.2223
17571TIP3    H174204   3.736   2.336  12.302  1.5085  0.1205 -1.7472
17571TIP3    H274205   3.714   2.437  12.192 -0.1988 -1.3374 -2.7608
17572TIP3   OH274206   5.940   1.409  12.920  0.4542  0.1797  0.1504
17572TIP3    H174207   6.002   1.459  12.866 -0.5336  0.9097 -0.3293
17572TIP3    H274208   5.927   1.462  12.998 -1.3460  1.1693 -0.7963
17573TIP3   OH274209   5.170   4.849  13.958  0.0483  0.3252 -0.0267
17573TIP3    H174210   5.249   4.843  14.012 -0.3200 -0.1581  0.4670
17573TIP3    H274211   5.196   4.815  13.873  0.4718  0.5079  0.0340
17574TIP3   OH274212   5.613   0.661  13.088  0.2653  0.0299 -0.0166
17574TIP3    H174213   5.566   0.685  13.008  0.3248  0.6477  0.1336
17574TIP3    H274214   5.638   0.569  13.075  2.1857  0.7450 -1.6602
17575TIP3   OH274215   2.582   0.128  14.583 -0.3745 -0.1948  0.5809
17575TIP3    H174216   2.630   0.062  14.533  0.9752  1.4291 -0.3667
17575TIP3    H274217   2.523   0.079  14.639  0.1281 -2.1635 -0.5800
17576TIP3   OH274218   1.852   5.279  11.429  0.4733  0.0654  0.3700
17576TIP3    H174219   1.819   5.331  11.355 -0.8454 -1.0575  0.1561
17576TIP3    H274220   1.908   5.213  11.389  1.1700  0.5511  0.5366
17577TIP3   OH274221   4.486   4.884   2.724  0.2651 -0.4140  0.4962
17577TIP3    H174222   4.460   4.813   2.666  2.3471  0.0245 -1.0009
17577TIP3    H274223   4.480   4.963   2.670  0.4898  0.2294  1.3967
17578TIP3   OH274224   2.858   4.939  17.086 -0.0815  0.5088 -0.6791
17578TIP3    H174225   2.886   5.012  17.141 -1.4608  1.5250 -1.2760
17578TIP3    H274226   2.770   4.918  17.118  0.1805 -0.6995 -0.7191
17579TIP3   OH274227   4.467   5.845   3.093  0.5227  0.4752 -0.0309
17579TIP3    H174228   4.493   5.753   3.099  0.6576  0.4741 -0.5717
17579TIP3    H274229   4.406   5.857   3.165 -0.8305 -0.4969 -0.9749
17580TIP3   OH274230   6.647   0.296  16.446  0.1996  0.1019 -0.0118
17580TIP3    H174231   6.621   0.281  16.537  0.3090 -0.3923 -0.0602
17580TIP3    H274232   6.690   0.382  16.446  1.6030 -0.5809  0.6969
17581TIP3   OH274233   3.627   1.111   3.195  0.1779  0.1138  0.5081
17581TIP3    H174234   3.706   1.058   3.186  2.1869  2.8577  1.4807
17581TIP3    H274235   3.596   1.093   3.284  0.5753  0.2056  0.6644
17582TIP3   OH274236   0.118   6.658   1.548 -0.3315  0.2598 -0.2496
17582TIP3    H174237   0.044   6.643   1.489  0.0720 -0.3214 -0.6187
17582TIP3    H274238   0.178   6.585   1.530 -0.6540 -0.4785  1.5758
17583TIP3   OH274239   4.068   5.706   0.303 -0.1156  0.9264 -0.0287
17583TIP3    H174240   4.120   5.716   0.223 -1.6140  0.5155 -1.0593
17583TIP3    H274241   4.122   5.650   0.360  0.5956  0.5614 -1.0573
17584TIP3   OH274242   4.063   0.471  12.445  0.5271  0.0471  0.1229
17584TIP3    H174243   4.012   0.502  12.370  0.7133 -0.1218 -0.0734
17584TIP3    H274244   4.028   0.384  12.464 -0.8027  0.8334  1.4174
17585TIP3   OH274245   0.598   2.347  12.666  0.9570 -0.0112  0.2126
17585TIP3    H174246   0.664   2.368  12.600 -0.5559  0.3034 -1.2342
17585TIP3    H274247   0.636   2.379  12.748  0.6355  4.4798 -1.2618
17586TIP3   OH274248   3.186   3.474  12.156  0.7991 -0.4074  0.5523
17586TIP3    H174249   3.168   3.501  12.066  1.2115 -2.0263 -0.0379
17586TIP3    H274250   3.133   3.533  12.210  0.3714  0.4324 -0.7556
17587TIP3   OH274251   3.226   0.611   5.671 -0.0530  0.2866 -0.1495
17587TIP3    H174252   3.137   0.574   5.672  0.1165 -0.1105  0.1419
17587TIP3    H274253   3.221   0.686   5.729  0.1003 -0.4284  0.8007
17588TIP3   OH274254   2.684   0.364  15.065  0.3423 -0.1927  0.2036
17588TIP3    H174255   2.644   0.331  15.146  0.6609 -1.3055 -0.0809
17588TIP3    H274256   2.760   0.413  15.095 -0.3677  0.6544  0.6625
17589TIP3   OH274257   6.340   0.126  10.965 -0.1571  0.1114  0.4811
17589TIP3    H174258   6.253   0.100  10.934 -0.4701  2.1250 -0.3910
17589TIP3    H274259   6.345   0.220  10.948  2.3225 -0.0351  0.2158
17590TIP3   OH274260   4.648   4.842   1.301 -0.5059 -0.2500  0.3652
17590TIP3    H174261   4.677   4.903   1.369 -1.6501  1.5341 -0.6979
17590TIP3    H274262   4.577   4.793   1.341 -4.7971  4.3969 -1.0163
17591TIP3   OH274263   2.382   4.423   1.324 -0.4335  0.4259  0.1569
17591TIP3    H174264   2.477   4.415   1.326 -0.4811  0.0606  1.7180
17591TIP3    H274265   2.365   4.516   1.335 -0.2946  0.1396  3.3229
17592TIP3   OH274266   0.871   3.127  13.301 -0.4199 -0.2051  0.0638
17592TIP3    H174267   0.960   3.115  13.333 -1.1435 -0.6811  1.9523
17592TIP3    H274268   0.881   3.175  13.219  1.4667  1.1553  1.0567
17593TIP3   OH274269   3.065   3.188  16.712  0.3839  0.3892 -0.3347
17593TIP3    H174270   2.984   3.185  16.761  0.9027 -1.1757  0.4510
17593TIP3    H274271   3.043   3.152  16.626 -0.2742  2.1511 -0.9316
17594TIP3   OH274272   6.054   1.746  14.936  0.0331 -0.5072  0.0762
17594TIP3    H174273   6.030   1.675  14.996  0.0686  0.4037  1.1984
17594TIP3    H274274   5.975   1.763  14.886 -0.0068 -1.2721 -0.1280
17595TIP3   OH274275   2.643   5.128  13.026  1.0637  0.1480  0.2523
17595TIP3    H174276   2.686   5.046  13.001  1.0652 -0.0123  0.7707
17595TIP3    H274277   2.550   5.106  13.026  1.1807 -0.5432  2.7692
17596TIP3   OH274278   5.213   0.123   5.069  0.6327  0.2138 -0.6474
17596TIP3    H174279   5.291   0.078   5.035  0.4541 -1.3980  0.9812
17596TIP3    H274280   5.146   0.108   5.003  1.3169  0.3918 -1.3930
17597TIP3   OH274281   2.755   5.967  15.068 -0.1220 -0.5899 -0.3413
17597TIP3    H174282   2.803   6.041  15.104 -2.8316  1.9324 -1.6518
17597TIP3    H274283   2.731   5.914  15.144  1.0173  0.4076  0.7286
17598TIP3   OH274284   1.594   1.253   4.991  1.0093 -0.3732 -0.0276
17598TIP3    H174285   1.630   1.263   4.902 -1.2885  1.5235 -0.7988
17598TIP3    H274286   1.509   1.211   4.978  1.1210 -1.0582  1.3849
17599TIP3   OH274287   1.696   5.034   3.624 -0.1583 -0.4633  0.5849
17599TIP3    H174288   1.657   5.025   3.710  0.4252  0.1316  0.9198
17599TIP3    H274289   1.623   5.024   3.563 -0.8890  0.9394  1.2089
17600TIP3   OH274290   5.597   5.479  12.447  0.4812 -0.0160  0.2109
17600TIP3    H174291   5.620   5.516  12.362 -0.8458  1.2550  0.3745
17600TIP3    H274292   5.655   5.523  12.510  0.5100  0.0845  0.1149
17601TIP3   OH274293   6.212   4.941  14.087  0.2634 -0.7625 -0.3745
17601TIP3    H174294   6.195   4.895  14.005 -1.5082 -0.5924 -0.1297
17601TIP3    H274295   6.134   4.924  14.140  0.5693  0.6793  0.5611
17602TIP3   OH274296   4.504   0.270  15.423 -0.0091 -0.3967 -0.4838
17602TIP3    H174297   4.473   0.292  15.335  0.5823 -0.5965 -0.7471
17602TIP3    H274298   4.520   0.355  15.465 -1.2615 -0.2878 -0.2152
17603TIP3   OH274299   2.466   0.126   6.314  0.4744  0.2570  0.1716
17603TIP3    H174300   2.398   0.192   6.323 -1.1442 -1.3455  0.1605
17603TIP3    H274301   2.512   0.126   6.398  0.2065  1.1068  0.3169
17604TIP3   OH274302   0.338   0.257   3.469 -0.0357 -0.1983  1.1648
17604TIP3    H174303   0.348   0.301   3.384  0.2677 -0.6176  0.9787
17604TIP3    H274304   0.402   0.186   3.466 -1.2840 -1.3453  1.0126
17605TIP3   OH274305   3.287   4.626   5.744 -0.7952 -0.2164 -0.0353
17605TIP3    H174306   3.370   4.579   5.741 -1.0805 -1.0536  3.5656
17605TIP3    H274307   3.250   4.614   5.656  2.1807 -1.0173 -1.2541
17606TIP3   OH274308   1.192   4.807   4.323 -0.0290 -0.3175 -0.6437
17606TIP3    H174309   1.164   4.852   4.402 -0.4514 -2.8623  0.7000
17606TIP3    H274310   1.116   4.808   4.266 -0.2908 -0.0630 -0.2898
17607TIP3   OH274311   3.930   5.837  13.760  0.0884 -0.1092 -0.0152
17607TIP3    H174312   3.895   5.867  13.844  0.6490  0.4476  0.0242
17607TIP3    H274313   4.019   5.809  13.780  0.0145 -0.5483 -0.3092
17608TIP3   OH274314   5.081   0.323   4.356  0.7208  0.0850  0.1919
17608TIP3    H174315   5.089   0.397   4.416 -0.2498  0.6710 -0.3903
17608TIP3    H274316   5.155   0.332   4.297  1.5359 -0.3492  1.1200
17609TIP3   OH274317   0.448   3.324   3.419 -0.3858 -0.1815  0.7254
17609TIP3    H174318   0.403   3.407   3.436 -2.1556 -0.7710 -0.9723
17609TIP3    H274319   0.427   3.270   3.496 -1.5368 -0.0071  0.5458
17610TIP3   OH274320   6.761   4.040   0.498 -0.2732  0.0480 -0.2013
17610TIP3    H174321   6.765   4.135   0.513  1.6441 -0.2682  1.5516
17610TIP3    H274322   6.839   4.006   0.540 -0.7607 -2.3024 -1.1211
17611TIP3   OH274323   4.302   3.262  14.024  0.9050 -0.5105  0.2781
17611TIP3    H174324   4.338   3.205  14.092  0.1656  1.1788  2.1376
17611TIP3    H274325   4.371   3.327  14.009  0.7795 -0.4579 -0.0610
17612TIP3   OH274326   3.816   3.025   6.560  0.2564  0.1187 -0.6729
17612TIP3    H174327   3.794   3.116   6.542  1.2033  0.5340  0.2522
17612TIP3    H274328   3.755   2.975   6.506 -2.6000  1.2557  1.3715
17613TIP3   OH274329   1.120   5.394  15.283  0.5430  0.0902 -0.0792
17613TIP3    H174330   1.028   5.389  15.309  0.9924 -1.4451  1.2838
17613TIP3    H274331   1.121   5.368  15.191 -0.2872 -0.8199  0.1598
17614TIP3   OH274332   2.718   1.625  11.643  0.0731 -0.6794  0.0335
17614TIP3    H174333   2.799   1.579  11.664  0.1144 -1.3605 -1.5694
17614TIP3    H274334   2.682   1.578  11.568 -1.6421 -0.1749  0.5128
17615TIP3   OH274335   4.789   2.165  11.874  0.6628  0.2239  0.4511
17615TIP3    H174336   4.774   2.113  11.795 -0.2547  0.4391  0.4712
17615TIP3    H274337   4.858   2.227  11.850 -0.2200  0.8672 -0.4614
17616TIP3   OH274338   3.182   5.563   5.840 -0.4306 -0.4855  0.0002
17616TIP3    H174339   3.233   5.505   5.783  1.4943 -1.2723  2.4302
17616TIP3    H274340   3.245   5.626   5.873 -1.8015  0.8048  0.1959
17617TIP3   OH274341   2.281   2.910  13.815  0.6457  0.0710 -0.2660
17617TIP3    H174342   2.207   2.853  13.833  0.6674 -0.0012 -0.4051
17617TIP3    H274343   2.242   2.989  13.777  0.7059 -0.2785 -1.0525
17618TIP3   OH274344   0.695   5.209   3.521 -0.7025  0.4344  0.2240
17618TIP3    H174345   0.748   5.271   3.471 -1.2278  2.6500  2.3301
17618TIP3    H274346   0.654   5.153   3.454  1.7716  0.6836 -1.5866
17619TIP3   OH274347   5.728   6.389   5.236  0.1120  0.3682 -0.6452
17619TIP3    H174348   5.642   6.425   5.217 -0.6757 -0.6894  0.8292
17619TIP3    H274349   5.716   6.295   5.240  1.0302  0.2796  0.8947
17620TIP3   OH274350   0.782   1.794  16.949 -0.3265  0.8007  0.1296
17620TIP3    H174351   0.710   1.843  16.990 -1.1143  0.0679 -0.3807
17620TIP3    H274352   0.785   1.826  16.859 -1.3988 -0.6876 -0.4494
17621TIP3   OH274353   0.644   6.376  10.810 -0.8868 -0.5138 -0.1708
17621TIP3    H174354   0.629   6.343  10.722  0.3957 -0.4853 -0.4087
17621TIP3    H274355   0.655   6.471  10.799 -2.1031 -0.3237  0.1986
17622TIP3   OH274356   6.414   3.117   1.008 -0.1470  0.2950  0.2201
17622TIP3    H174357   6.470   3.095   1.083  1.8249  0.3269 -1.2054
17622TIP3    H274358   6.428   3.211   0.995  0.1365  0.1315 -0.6827
17623TIP3   OH274359   3.433   4.240   6.452 -0.2220 -0.2942 -0.3220
17623TIP3    H174360   3.365   4.193   6.500  0.3795 -0.1675  0.6615
17623TIP3    H274361   3.465   4.176   6.388 -1.5065 -0.2356 -1.0297
17624TIP3   OH274362   0.145   5.412   1.881  0.0633  0.0529 -0.1507
17624TIP3    H174363   0.097   5.364   1.949 -0.3124 -0.7053 -0.9349
17624TIP3    H274364   0.078   5.464   1.837 -0.2612 -1.8950 -2.0053
17625TIP3   OH274365   0.567   6.647  15.507  0.0548 -0.1851  0.2213
17625TIP3    H174366   0.624   6.723  15.520 -0.2070  0.0609 -0.0657
17625TIP3    H274367   0.506   6.651  15.581  1.0966 -1.0797  1.1538
17626TIP3   OH274368   3.339   6.468   3.794 -0.2331 -0.0839  0.1772
17626TIP3    H174369   3.377   6.523   3.862 -1.1762  0.3847  0.3368
17626TIP3    H274370   3.407   6.462   3.727  0.0902  0.8161  0.4144
17627TIP3   OH274371   5.675   2.300   2.748 -0.3444 -0.1764 -0.3143
17627TIP3    H174372   5.591   2.338   2.771 -0.9869 -0.9070 -1.3849
17627TIP3    H274373   5.730   2.375   2.723 -0.6278  0.3128  0.5272
17628TIP3   OH274374   5.386   6.170  10.723 -0.7209 -0.1422 -0.1818
17628TIP3    H174375   5.295   6.193  10.742 -0.8523 -1.6684  1.0664
17628TIP3    H274376   5.384   6.077  10.702  0.3147  0.1891 -1.8909
17629TIP3   OH274377   2.740   6.671   3.735 -0.2179  0.1088 -0.6827
17629TIP3    H174378   2.815   6.613   3.721 -0.4170 -0.4216  0.4366
17629TIP3    H274379   2.677   6.646   3.668  0.7654  0.8414 -1.9017
17630TIP3   OH274380   3.812   2.353   1.653  0.3267 -0.1912 -0.7684
17630TIP3    H174381   3.773   2.316   1.732  1.4791 -1.0500 -0.5912
17630TIP3    H274382   3.855   2.433   1.683 -2.3649  1.4697 -1.1933
17631TIP3   OH274383   4.950   5.760  13.748 -0.2085  0.8009  0.6534
17631TIP3    H174384   4.952   5.667  13.773  2.6499  0.6991  0.1411
17631TIP3    H274385   4.920   5.759  13.657 -1.0207  0.4558  0.9168
17632TIP3   OH274386   5.877   3.922   5.979 -0.2214 -0.2981  0.5180
17632TIP3    H174387   5.878   3.955   6.069  0.4382  2.0625 -0.3418
17632TIP3    H274388   5.969   3.915   5.955 -0.4044 -0.7589 -0.0689
17633TIP3   OH274389   1.153   1.841   2.566  0.3206 -0.8689 -0.3156
17633TIP3    H174390   1.200   1.881   2.639  0.7327 -0.3780 -0.8423
17633TIP3    H274391   1.168   1.747   2.575 -0.3474 -0.8755  0.7242
17634TIP3   OH274392   6.427   0.445  13.200 -0.6405  0.4473 -0.5845
17634TIP3    H174393   6.483   0.452  13.277  0.1084  0.5157 -1.1347
17634TIP3    H274394   6.338   0.438  13.236  0.0211 -3.8821  0.3943
17635TIP3   OH274395   3.110   5.683   0.415 -0.1509  0.3571 -0.0318
17635TIP3    H174396   3.151   5.666   0.330 -0.6865 -0.2379 -0.1774
17635TIP3    H274397   3.023   5.718   0.394  0.4510  2.0624  0.2737
17636TIP3   OH274398   6.299   5.024  12.829 -0.1243  0.5811  0.1278
17636TIP3    H174399   6.226   4.963  12.820  0.8714 -0.8920  1.6599
17636TIP3    H274400   6.312   5.058  12.741 -1.6769 -0.2894 -0.4643
17637TIP3   OH274401   5.918   5.970   2.786  0.0447  0.2986 -0.6189
17637TIP3    H174402   5.943   6.045   2.839 -1.0138  1.0677 -1.1868
17637TIP3    H274403   5.841   6.000   2.736 -0.1525 -1.0244 -1.1382
17638TIP3   OH274404   5.368   4.556  14.557  0.5116 -0.2876  0.0511
17638TIP3    H174405   5.410   4.634  14.593  1.2938 -0.2382 -0.9327
17638TIP3    H274406   5.357   4.576  14.464 -1.6338 -0.3362  0.2689
17639TIP3   OH274407   3.283   3.283  14.044  0.5968  0.5128  0.2725
17639TIP3    H174408   3.274   3.188  14.037  0.7392  0.6125 -1.5180
17639TIP3    H274409   3.194   3.315  14.058  0.7412  0.0164  2.5823
17640TIP3   OH274410   1.645   2.675   3.043  0.0658 -0.4471 -0.0429
17640TIP3    H174411   1.680   2.597   3.087 -1.0251 -0.5915  0.5666
17640TIP3    H274412   1.719   2.707   2.991  0.1102 -2.7343 -1.4657
17641TIP3   OH274413   0.867   4.207  14.732  0.1848 -0.0646  0.2782
17641TIP3    H174414   0.789   4.158  14.708 -0.3346  0.4569  0.8752
17641TIP3    H274415   0.939   4.145  14.720 -0.2034 -0.2272 -1.2887
17642TIP3   OH274416   0.935   2.126  15.036 -0.3739  0.2298  0.1517
17642TIP3    H174417   0.934   2.087  14.949  0.7866  0.2214  0.1295
17642TIP3    H274418   0.957   2.218  15.021  1.1152 -0.0474  0.5125
17643TIP3   OH274419   6.098   0.910   0.003  0.7781 -0.0588 -0.4842
17643TIP3    H174420   6.002   0.909  -0.001  0.7624 -0.4177 -0.0349
17643TIP3    H274421   6.123   0.818   0.006  1.0689  0.0658  0.9990
17644TIP3   OH274422   4.383   5.845   1.964  0.6887 -0.4704  0.5090
17644TIP3    H174423   4.457   5.836   2.024  0.4406 -1.6719  0.6476
17644TIP3    H274424   4.306   5.846   2.021  0.4397 -1.8154  0.2108
17645TIP3   OH274425   6.004   1.449   0.641  0.0380  0.3570 -0.1515
17645TIP3    H174426   6.059   1.464   0.717 -0.5065 -2.9966  0.9729
17645TIP3    H274427   5.915   1.468   0.672 -0.1625 -0.8251  0.0139
17646TIP3   OH274428   5.503   5.275   1.931 -0.2731  0.0964 -0.3994
17646TIP3    H174429   5.452   5.215   1.877 -0.7614 -1.6059  1.8704
17646TIP3    H274430   5.447   5.293   2.007  1.6658 -0.2434  1.1718
17647TIP3   OH274431   4.966   3.803  15.653 -0.1076 -0.3307 -0.2033
17647TIP3    H174432   4.885   3.753  15.655 -1.3914  1.7437  0.3779
17647TIP3    H274433   5.002   3.786  15.565 -2.3771  0.6330 -1.3522
17648TIP3   OH274434   1.683   1.136  16.952  0.0008 -0.3301  0.3947
17648TIP3    H174435   1.668   1.194  16.878 -0.4764  1.5199  1.8911
17648TIP3    H274436   1.688   1.049  16.914  2.3427  0.8407 -2.0996
17649TIP3   OH274437   4.827   0.286   4.275  0.4699 -0.1516  0.1584
17649TIP3    H174438   4.809   0.314   4.186 -0.6840  1.3302  0.8349
17649TIP3    H274439   4.920   0.306   4.289  0.8179 -0.9801 -0.8968
17650TIP3   OH274440   1.536   2.616   5.491 -0.3545 -0.1894  0.0508
17650TIP3    H174441   1.606   2.597   5.554 -0.7481  1.3187  0.9549
17650TIP3    H274442   1.560   2.701   5.454 -0.7239 -0.5476 -1.0200
17651TIP3   OH274443   1.810   3.630   4.937  0.5563  0.6229  0.1302
17651TIP3    H174444   1.736   3.574   4.957  0.6914  1.9248  4.9089
17651TIP3    H274445   1.771   3.713   4.908  0.2629  0.0494 -1.1472
17652TIP3   OH274446   4.630   2.028   5.364 -0.0688  0.4504 -0.3779
17652TIP3    H174447   4.571   2.060   5.296  1.6583  1.4989 -1.4211
17652TIP3    H274448   4.659   1.942   5.331 -0.4118  0.2753 -0.2268
17653TIP3   OH274449   1.853   5.416   3.971  0.3177 -0.3064  0.3355
17653TIP3    H174450   1.910   5.427   3.895 -1.9914  0.6258 -1.3375
17653TIP3    H274451   1.837   5.322   3.976 -0.4367 -0.2727 -1.0811
17654TIP3   OH274452   2.136   4.597   5.454  0.1442 -0.4966  0.5920
17654TIP3    H174453   2.185   4.674   5.481  1.3198 -1.1611  0.3857
17654TIP3    H274454   2.129   4.604   5.359 -1.3404  0.2837  0.7483
17655TIP3   OH274455   6.441   0.228   2.021  0.0664 -0.0550  0.6772
17655TIP3    H174456   6.392   0.175   1.958 -2.1026 -0.5106  2.6515
17655TIP3    H274457   6.507   0.170   2.057 -1.1048 -0.9333  1.4773
17656TIP3   OH274458   5.157   5.651  11.636 -0.2971  0.3549  0.1222
17656TIP3    H174459   5.082   5.624  11.583  0.5893 -0.8945 -0.5342
17656TIP3    H274460   5.232   5.637  11.579  0.4302  1.6899  0.7361
17657TIP3   OH274461   5.006   2.400  12.019  0.4840  0.2954  0.3538
17657TIP3    H174462   5.048   2.418  11.935 -0.7861 -1.0820 -0.5797
17657TIP3    H274463   4.947   2.474  12.032  0.9480  0.6971  0.2269
17658TIP3   OH274464   5.309   3.525  13.594 -0.1682  0.2426 -0.0605
17658TIP3    H174465   5.399   3.528  13.559  0.0698 -1.2259  0.3912
17658TIP3    H274466   5.302   3.604  13.647  0.7864  0.4964 -0.2958
17659TIP3   OH274467   2.217   2.223  15.714 -0.3404  0.4255  0.2681
17659TIP3    H174468   2.241   2.206  15.623 -0.7875 -1.2244  0.4417
17659TIP3    H274469   2.261   2.305  15.735  1.4383 -0.2213 -0.8088
17660TIP3   OH274470   6.731   2.711  13.428  0.1026 -0.3948 -0.5454
17660TIP3    H174471   6.823   2.686  13.420 -0.1625 -1.1869 -1.0873
17660TIP3    H274472   6.683   2.645  13.379 -0.8780 -0.7810  0.8868
17661TIP3   OH274473   6.069   6.510   5.075  0.8056  0.0789 -0.2504
17661TIP3    H174474   5.997   6.566   5.102 -2.5668 -2.8190 -2.7075
17661TIP3    H274475   6.114   6.560   5.006  0.7783  1.6412  0.8447
17662TIP3   OH274476   4.287   4.765   2.501  0.3584 -0.4820  0.3878
17662TIP3    H174477   4.267   4.697   2.566  0.9120 -1.1350 -0.1272
17662TIP3    H274478   4.294   4.718   2.418  2.3319 -0.0250  0.2783
17663TIP3   OH274479   1.211   4.550   2.603  0.2480 -0.0389 -0.7141
17663TIP3    H174480   1.282   4.582   2.548 -0.1593 -1.4226 -2.0932
17663TIP3    H274481   1.202   4.458   2.578 -1.6118 -0.0354 -0.1118
17664TIP3   OH274482   1.254   0.866  15.505 -0.2895 -0.2961  0.2070
17664TIP3    H174483   1.303   0.834  15.581  0.1168  0.6422  0.3450
17664TIP3    H274484   1.283   0.810  15.432  1.2475  0.4705  0.2188
17665TIP3   OH274485   0.012   2.270   1.444 -0.2602  0.2417  0.0427
17665TIP3    H174486  -0.073   2.275   1.399 -0.1726 -1.2093 -0.3300
17665TIP3    H274487  -0.003   2.207   1.515  0.8367 -1.0304 -0.8246
17666TIP3   OH274488   4.063   1.704   0.763 -0.0976 -0.2239 -0.5545
17666TIP3    H174489   4.039   1.626   0.713  0.1343  0.8608 -2.4075
17666TIP3    H274490   4.125   1.751   0.706  0.0050  1.1568  0.6578
17667TIP3   OH274491   1.084   0.678   1.465 -0.0385 -0.3821 -0.1165
17667TIP3    H174492   1.123   0.635   1.541  0.3755 -0.5360 -0.4135
17667TIP3    H274493   1.142   0.655   1.392 -0.2750 -0.0040 -0.4260
17668TIP3   OH274494   2.147   3.908  17.145  0.5501  0.4588 -0.1566
17668TIP3    H174495   2.152   3.849  17.219  1.2052  0.4617 -0.2034
17668TIP3    H274496   2.069   3.961  17.162 -0.3355 -0.7595 -0.3718
17669TIP3   OH274497   0.024   3.933   4.810 -0.6927  0.5937  0.3535
17669TIP3    H174498   0.112   3.928   4.774 -1.7749  1.0210 -2.5396
17669TIP3    H274499   0.024   4.010   4.866  0.1934  1.8882 -1.3862
17670TIP3   OH274500   3.537   2.531   5.377 -0.0365  0.3674 -0.3051
17670TIP3    H174501   3.617   2.574   5.348  0.5482  0.5329  1.4670
17670TIP3    H274502   3.488   2.513   5.297  0.7094  2.3661 -1.2333
17671TIP3   OH274503   6.668   6.717   3.459 -0.2112 -0.1585 -0.1670
17671TIP3    H174504   6.746   6.771   3.472  0.0459 -0.8319  1.0720
17671TIP3    H274505   6.625   6.715   3.544 -0.8395 -0.9562 -0.4962
17672TIP3   OH274506   2.460   0.004   1.282  0.6226  0.4955 -0.0646
17672TIP3    H174507   2.519  -0.034   1.217 -0.3973 -1.2157 -0.0299
17672TIP3    H274508   2.384   0.033   1.231 -0.4702 -1.4572  0.4193
17673TIP3   OH274509   5.436   4.052   5.466  0.4138  0.6596  0.1698
17673TIP3    H174510   5.375   4.119   5.495 -1.5554 -0.7815 -0.5978
17673TIP3    H274511   5.444   3.992   5.541 -1.6410 -0.9152 -0.8390
17674TIP3   OH274512   5.591   4.583   2.830  0.6093 -0.4934  0.2071
17674TIP3    H174513   5.575   4.516   2.897  1.3331 -0.5127  0.3639
17674TIP3    H274514   5.596   4.534   2.748 -0.2605 -0.4709  0.1367
17675TIP3   OH274515   5.192   5.212  13.764  0.4261 -0.6195  0.1378
17675TIP3    H174516   5.263   5.152  13.740  2.0161  0.3823  2.1718
17675TIP3    H274517   5.175   5.194  13.856 -2.1437 -0.9555 -0.3438
17676TIP3   OH274518   1.745   6.329   5.639  0.0515  0.2659  0.0968
17676TIP3    H174519   1.794   6.264   5.590 -0.5302  1.5768 -2.3192
17676TIP3    H274520   1.789   6.335   5.723  1.0826 -2.0452 -0.2559
17677TIP3   OH274521   1.249   3.954  11.034 -0.1152 -0.3467  0.2312
17677TIP3    H174522   1.215   3.886  10.976  1.9172 -0.4047 -0.9490
17677TIP3    H274523   1.202   4.033  11.009  0.2717 -0.5119 -1.0603
17678TIP3   OH274524   2.849   1.611  16.333  0.0913 -0.2211  0.1560
17678TIP3    H174525   2.826   1.563  16.253  1.0631 -1.2881  0.4984
17678TIP3    H274526   2.923   1.562  16.369  0.3456  0.8782  1.1412
17679TIP3   OH274527   3.259   6.129  14.955 -0.0621  0.1916  0.2829
17679TIP3    H174528   3.291   6.100  14.870 -0.5118 -0.6448  0.3988
17679TIP3    H274529   3.263   6.225  14.950 -4.4806  0.4064 -2.4460
17680TIP3   OH274530   6.778   5.384   5.385  0.2758  0.2388 -0.2046
17680TIP3    H174531   6.716   5.450   5.354  0.4607  0.3312 -0.3821
17680TIP3    H274532   6.749   5.363   5.474  1.2602  1.8490  0.5220
17681TIP3   OH274533   6.510   2.664   3.178  0.5769 -0.9319  0.2260
17681TIP3    H174534   6.539   2.712   3.100  1.2610 -1.5624  0.0839
17681TIP3    H274535   6.465   2.729   3.231 -2.4648 -1.0817 -2.0133
17682TIP3   OH274536   4.169   4.429  11.364  0.1527  0.1595 -0.1425
17682TIP3    H174537   4.257   4.392  11.371 -0.3476 -1.0140  0.0957
17682TIP3    H274538   4.118   4.360  11.321 -1.0020  0.2569  1.0603
17683TIP3   OH274539   3.643   2.192  14.293 -0.0455  0.1690 -0.0485
17683TIP3    H174540   3.612   2.277  14.260  0.0442 -0.3808 -1.6035
17683TIP3    H274541   3.563   2.144  14.314 -0.2699 -0.7840 -2.8717
17684TIP3   OH274542   5.315   4.143   1.421 -0.5718  0.0348 -0.4275
17684TIP3    H174543   5.307   4.083   1.495  0.0166 -0.5162 -0.8049
17684TIP3    H274544   5.237   4.198   1.427 -0.4674  0.0752  0.6645
17685TIP3   OH274545   2.745   0.420  15.744  0.2399  0.6161  0.1474
17685TIP3    H174546   2.836   0.395  15.758  1.0887  2.9059 -1.0569
17685TIP3    H274547   2.742   0.514  15.763 -1.4272  0.9811 -1.6947
17686TIP3   OH274548   2.198   0.028   6.560  0.0563  0.3662 -0.2323
17686TIP3    H174549   2.244   0.108   6.587 -1.0228  1.0337 -0.3416
17686TIP3    H274550   2.132   0.015   6.628 -0.6322  0.3120 -0.9080
17687TIP3   OH274551   5.712   4.485  12.216  0.1399  0.3739  0.0784
17687TIP3    H174552   5.632   4.433  12.203  1.2935 -1.2311 -0.7762
17687TIP3    H274553   5.699   4.562  12.160 -0.4466 -0.2984 -0.7265
17688TIP3   OH274554   6.071   0.310   1.772  0.1826  0.2989 -0.3542
17688TIP3    H174555   6.070   0.349   1.859  3.5130  0.2080 -0.2108
17688TIP3    H274556   6.099   0.380   1.714  0.9198 -0.4135 -0.8789
17689TIP3   OH274557   1.069   0.536  10.191  0.2580  0.5909  0.1101
17689TIP3    H174558   1.124   0.594  10.243 -1.0652  1.5038  0.5141
17689TIP3    H274559   0.981   0.548  10.227 -0.1200 -1.2486 -0.1634
17690TIP3   OH274560   6.780   5.765   0.760 -0.0788 -0.7259 -0.4165
17690TIP3    H174561   6.856   5.766   0.701  0.9802 -1.6365  0.9000
17690TIP3    H274562   6.816   5.786   0.846 -1.4677 -0.2927  0.0612
17691TIP3   OH274563   4.791   2.833   0.310 -0.3745  0.6754 -0.5215
17691TIP3    H174564   4.831   2.888   0.377 -1.9327  0.1200  0.8796
17691TIP3    H274565   4.734   2.773   0.358 -0.1146 -0.9520 -2.1767
17692TIP3   OH274566   2.565   4.753  11.271 -0.2576 -0.5417 -0.2067
17692TIP3    H174567   2.479   4.789  11.294  0.8838  2.5919 -0.5445
17692TIP3    H274568   2.627   4.814  11.312  1.8161 -2.8739  0.2053
17693TIP3   OH274569   2.032   3.300  12.340  0.6911 -0.2173  0.8941
17693TIP3    H174570   2.029   3.259  12.426  0.7155  0.5758  1.2790
17693TIP3    H274571   2.035   3.394  12.359  3.9882 -0.1170  0.1221
17694TIP3   OH274572   0.158   0.146  13.131  0.5989 -0.5865 -0.0386
17694TIP3    H174573   0.148   0.176  13.040  1.0712 -0.2720  0.0087
17694TIP3    H274574   0.138   0.224  13.184 -0.1248 -0.8912  0.1414
17695TIP3   OH274575   3.618   6.817  12.203  0.5857 -0.0538  0.5748
17695TIP3    H174576   3.690   6.784  12.257  0.8911  0.9080  0.7806
17695TIP3    H274577   3.594   6.744  12.147  1.8120 -0.3621  0.4244
17696TIP3   OH274578   3.444   1.002  15.605 -0.0199  0.1345 -0.2117
17696TIP3    H174579   3.408   0.983  15.518  0.7472 -1.6522 -0.1680
17696TIP3    H274580   3.384   0.958  15.666  0.0269  0.4887  0.0908
17697TIP3   OH274581   4.157   1.840  15.728  0.3030  0.4857  0.1908
17697TIP3    H174582   4.223   1.867  15.792  2.5121 -1.2046 -1.2662
17697TIP3    H274583   4.180   1.888  15.648 -0.2651 -0.0458 -0.2999
17698TIP3   OH274584   1.054   4.924  11.306  0.3193  0.1006  0.0508
17698TIP3    H174585   1.134   4.877  11.284 -1.1110 -0.7097 -3.7135
17698TIP3    H274586   1.039   4.903  11.398  2.3516 -2.8719 -0.2332
17699TIP3   OH274587   6.730   0.224   4.567 -0.1380 -0.4681 -0.3425
17699TIP3    H174588   6.658   0.228   4.504  0.4966  3.6811 -0.8997
17699TIP3    H274589   6.709   0.292   4.632  1.5915 -1.5140  1.3701
17700TIP3   OH274590   2.973   2.573   0.224 -0.1351 -0.5527  0.8485
17700TIP3    H174591   3.048   2.626   0.198 -1.0588  0.7777  0.8399
17700TIP3    H274592   3.011   2.491   0.255  1.3660  0.3365  1.4253
17701TIP3   OH274593   4.015   1.477   3.141 -0.0527  0.2771  0.1093
17701TIP3    H174594   3.988   1.395   3.182 -0.4013  0.6077  0.5462
17701TIP3    H274595   4.101   1.458   3.103 -0.9691 -0.8312 -1.4542
17702TIP3   OH274596   6.592   1.207   3.672  0.0669 -0.5148  0.2208
17702TIP3    H174597   6.628   1.294   3.655 -0.6092 -0.4324 -0.8276
17702TIP3    H274598   6.498   1.221   3.679  0.0416 -1.0276  0.9672
17703TIP3   OH274599   5.695   0.558   4.308 -0.3887  0.8435  0.3562
17703TIP3    H174600   5.735   0.645   4.300  0.9435  0.2423  0.4459
17703TIP3    H274601   5.641   0.549   4.230 -1.1358  2.0624  0.7169
17704TIP3   OH274602   0.346   1.438  13.868 -0.0582 -0.4548 -0.2308
17704TIP3    H174603   0.362   1.495  13.943  0.9740 -0.5368 -0.3899
17704TIP3    H274604   0.288   1.490  13.811 -0.6811 -0.3154  0.5155
17705TIP3   OH274605   2.121   4.292  17.230 -0.6485 -0.6960 -0.7316
17705TIP3    H174606   2.068   4.358  17.186 -1.7441 -1.1799 -0.1449
17705TIP3    H274607   2.062   4.251  17.293  0.9912  0.2911  1.5185
17706TIP3   OH274608   3.084   2.747  12.032 -0.0716 -0.1782 -0.1603
17706TIP3    H174609   3.074   2.805  11.956  1.3423 -1.2458 -1.1753
17706TIP3    H274610   3.130   2.801  12.097  2.1373 -0.4673 -1.4685
17707TIP3   OH274611   6.169   2.214   0.722  0.2072  0.2887  0.4794
17707TIP3    H174612   6.255   2.203   0.763  1.4029 -0.3793 -2.0891
17707TIP3    H274613   6.175   2.298   0.676 -0.5884  0.3384  0.4701
17708TIP3   OH274614   5.311   6.107  11.606 -0.1864  0.1434 -0.0872
17708TIP3    H174615   5.390   6.161  11.607  0.9498 -1.5137  1.1196
17708TIP3    H274616   5.303   6.075  11.696 -0.7947 -1.8047 -0.8227
17709TIP3   OH274617   0.450   0.125  14.131 -0.7356 -0.5635  0.0083
17709TIP3    H174618   0.436   0.072  14.053 -0.9232  0.0597 -0.3842
17709TIP3    H274619   0.533   0.094  14.166 -1.2182 -1.6517  0.2174
17710TIP3   OH274620   0.210   2.343   5.840 -0.0850 -0.3459 -0.3038
17710TIP3    H174621   0.212   2.424   5.790  0.9642  0.0299  0.3228
17710TIP3    H274622   0.190   2.275   5.776 -0.8708  0.3917 -0.8502
17711TIP3   OH274623   0.049   1.731  16.468  0.0604 -0.2917 -0.4218
17711TIP3    H174624   0.072   1.729  16.375  0.4096  2.3936 -0.4211
17711TIP3    H274625  -0.047   1.728  16.469  0.0066  1.2097 -0.9339
17712TIP3   OH274626   1.864   6.018   0.620 -0.4383  0.2117 -0.3521
17712TIP3    H174627   1.780   5.973   0.622 -0.9418  1.1594 -0.2023
17712TIP3    H274628   1.894   6.017   0.711 -1.0133  1.2326 -0.1461
17713TIP3   OH274629   1.840   3.767   2.319 -0.3123 -0.4075 -0.2717
17713TIP3    H174630   1.784   3.806   2.252 -2.5545 -1.1287  1.1282
17713TIP3    H274631   1.817   3.674   2.320 -3.3059  0.2200  4.1921
17714TIP3   OH274632   1.487   3.404  12.620  0.3788 -0.3380 -0.2133
17714TIP3    H174633   1.449   3.341  12.681  0.9378  0.1126  0.6120
17714TIP3    H274634   1.564   3.358  12.584  0.9553 -0.0341  0.6067
17715TIP3   OH274635   4.016   0.589   5.507  0.4472  0.1870 -0.4831
17715TIP3    H174636   4.000   0.682   5.521  0.8458  0.5634 -2.3582
17715TIP3    H274637   4.090   0.568   5.563 -0.4373  0.6895  0.9013
17716TIP3   OH274638   1.447   4.877   1.615  0.3260  0.3628  0.2790
17716TIP3    H174639   1.474   4.929   1.539 -0.4729 -0.9346 -0.9139
17716TIP3    H274640   1.361   4.844   1.591  1.5096 -2.8731  0.2989
17717TIP3   OH274641   5.858   6.605  13.440 -0.1011 -0.7209  0.1943
17717TIP3    H174642   5.951   6.592  13.420 -0.4883 -3.2165 -0.0680
17717TIP3    H274643   5.837   6.535  13.501 -2.0290 -0.6998 -0.4230
17718TIP3   OH274644   6.487   1.197   4.448  0.1369 -0.5809  0.1124
17718TIP3    H174645   6.443   1.113   4.446 -0.5271 -0.2875  2.0048
17718TIP3    H274646   6.470   1.232   4.535  0.8596  1.2734 -0.4568
17719TIP3   OH274647   5.735   3.379   2.176  0.1014 -0.4990  0.0059
17719TIP3    H174648   5.725   3.284   2.169 -0.1186 -0.6337  1.8483
17719TIP3    H274649   5.826   3.396   2.153 -0.4464 -0.8810 -2.5818
17720TIP3   OH274650   0.629   5.365   4.212 -0.0136 -0.7236 -0.0198
17720TIP3    H174651   0.692   5.378   4.141  0.0294 -0.7500  0.0128
17720TIP3    H274652   0.683   5.363   4.291 -0.3410  2.6419  0.3609
17721TIP3   OH274653   5.718   2.027   4.968  0.2153 -0.2883  0.1262
17721TIP3    H174654   5.753   2.115   4.976  0.0548  0.0210 -2.0460
17721TIP3    H274655   5.789   1.970   4.998 -0.7096  0.6160  4.3581
17722TIP3   OH274656   6.237   5.335   0.060  0.2920  0.0402  0.2024
17722TIP3    H174657   6.260   5.361   0.149 -2.1921  0.0823  0.8634
17722TIP3    H274658   6.244   5.239   0.060  1.7248  0.1314  0.0006
17723TIP3   OH274659   5.651   0.583  16.998  0.0700  0.1882  0.3439
17723TIP3    H174660   5.660   0.624  17.084 -0.8994 -0.0532  0.5682
17723TIP3    H274661   5.559   0.558  16.993  0.1779 -0.0327 -0.6630
17724TIP3   OH274662   0.286   5.231  13.583 -0.2262  0.1221  0.0830
17724TIP3    H174663   0.364   5.264  13.538 -0.3319  1.5170  0.9217
17724TIP3    H274664   0.229   5.307  13.593 -1.6872 -0.8805 -0.4806
17725TIP3   OH274665   4.538   0.501   0.085  0.2330  0.6412  0.1598
17725TIP3    H174666   4.587   0.424   0.114 -1.5094 -1.0438 -1.2380
17725TIP3    H274667   4.591   0.538   0.014  0.7325  0.3547  0.3797
17726TIP3   OH274668   2.787   3.647   4.962  0.0646 -0.0350 -0.1598
17726TIP3    H174669   2.788   3.572   4.902  1.5225 -0.4026  0.3075
17726TIP3    H274670   2.839   3.714   4.917  0.1814  0.0971  0.1697
17727TIP3   OH274671   3.933   4.361   0.573  0.3668  0.5382  0.2090
17727TIP3    H174672   3.906   4.306   0.645  1.4997 -0.2017  0.0726
17727TIP3    H274673   3.896   4.447   0.593  1.3300  0.5324  2.0541
17728TIP3   OH274674   6.547   3.250  14.538 -1.0398 -0.2416  0.0169
17728TIP3    H174675   6.479   3.305  14.498 -0.6735  0.2479  0.0645
17728TIP3    H274676   6.611   3.235  14.469 -0.2718  0.8270  0.4839
17729TIP3   OH274677   4.956   4.973  12.240  0.0908 -0.0322 -0.5795
17729TIP3    H174678   4.991   4.959  12.327 -0.2079 -2.4853 -0.8322
17729TIP3    H274679   4.926   5.064  12.241  1.4713  0.4283  1.3636
17730TIP3   OH274680   4.271   0.304  14.938 -0.6018 -0.1824 -0.1085
17730TIP3    H174681   4.318   0.347  15.009 -1.2535  0.2858  0.0400
17730TIP3    H274682   4.245   0.220  14.974  0.9430 -0.8517 -0.4977
17731TIP3   OH274683   0.058   2.433  13.155  0.1424 -0.2678 -0.4599
17731TIP3    H174684  -0.025   2.448  13.109  0.5395 -1.3362 -1.5564
17731TIP3    H274685   0.109   2.512  13.142 -1.2388  0.9921  1.4377
17732TIP3   OH274686   5.737   1.922  12.641 -0.2146 -0.0947  0.0776
17732TIP3    H174687   5.785   1.997  12.607 -0.0238  0.3055  1.2189
17732TIP3    H274688   5.668   1.959  12.696 -1.3848 -0.6904 -0.9695
17733TIP3   OH274689   2.334   1.899   2.904  0.6732 -0.3729 -0.6593
17733TIP3    H174690   2.371   1.848   2.976  1.3852 -0.9644 -1.4372
17733TIP3    H274691   2.351   1.990   2.928  0.3682 -0.5380  0.2057
17734TIP3   OH274692   6.799   4.012  16.199 -0.6641  0.0023  0.1764
17734TIP3    H174693   6.783   4.005  16.105 -1.3907 -0.3772  0.3267
17734TIP3    H274694   6.858   3.940  16.219  0.9324  1.1516 -0.3045
17735TIP3   OH274695   0.117   1.568   3.437  0.3826  0.0516 -0.0695
17735TIP3    H174696   0.036   1.618   3.438  0.6508  0.4909  0.3153
17735TIP3    H274697   0.157   1.588   3.353  0.5040  0.5184  0.0948
17736TIP3   OH274698   6.497   4.547  16.696  0.3433 -0.2690  0.0029
17736TIP3    H174699   6.569   4.600  16.732 -0.8831  1.0889  0.5224
17736TIP3    H274700   6.487   4.475  16.758  0.4864  0.1964  0.5775
17737TIP3   OH274701   0.153   0.082  16.696 -0.1884 -0.5857  0.3429
17737TIP3    H174702   0.077   0.025  16.710  1.0656 -2.0881  1.1589
17737TIP3    H274703   0.155   0.095  16.601 -1.2011 -0.8985  0.2680
17738TIP3   OH274704   5.122   6.411  12.178 -0.3630  0.0173  0.2981
17738TIP3    H174705   5.101   6.491  12.130  0.2461 -0.1095 -0.1806
17738TIP3    H274706   5.136   6.345  12.111  2.2375  0.2577  0.5423
17739TIP3   OH274707   0.951   4.469   2.428 -0.5767 -0.4286 -0.0460
17739TIP3    H174708   1.002   4.462   2.508 -1.4552  2.1437  0.7952
17739TIP3    H274709   0.863   4.442   2.453 -0.4598 -1.3232 -0.5877
17740TIP3   OH274710   6.301   4.120   1.202  0.3652 -0.7720  0.4117
17740TIP3    H174711   6.355   4.193   1.232 -0.1159 -0.3165  0.1829
17740TIP3    H274712   6.247   4.097   1.278 -1.2891  0.7840 -0.2530
17741TIP3   OH274713   5.913   4.570  10.840  0.3957 -0.0235 -0.5014
17741TIP3    H174714   5.848   4.580  10.771 -0.5758 -1.8138  0.1078
17741TIP3    H274715   5.883   4.625  10.912  1.7540  2.3524 -1.7136
17742TIP3   OH274716   3.957   5.390   3.280  0.1065  0.0560  0.0101
17742TIP3    H174717   4.034   5.422   3.233 -0.2557  1.3612  0.2910
17742TIP3    H274718   3.983   5.304   3.313  0.8050 -0.3169 -1.4598
17743TIP3   OH274719   6.269   5.053  13.176 -0.0470 -0.3789 -0.3336
17743TIP3    H174720   6.229   5.107  13.243  1.2755 -0.3921  0.4975
17743TIP3    H274721   6.303   5.115  13.111 -2.0769 -0.4030 -1.4448
17744TIP3   OH274722   0.681   3.259   2.199 -0.5581  0.0619  0.1554
17744TIP3    H174723   0.682   3.254   2.104 -0.7337  0.4306  0.1342
17744TIP3    H274724   0.620   3.191   2.226 -0.7357  0.1561 -0.0092
17745TIP3   OH274725   6.412   1.789  13.098  0.0896  0.7176 -0.1479
17745TIP3    H174726   6.375   1.724  13.158  1.8485  1.7105  2.0768
17745TIP3    H274727   6.489   1.746  13.061  1.3337  1.5636  1.4312
17746TIP3   OH274728   6.233   3.687   1.575 -0.3238  0.0591 -0.1707
17746TIP3    H174729   6.302   3.716   1.635  0.2027 -1.1629 -0.1750
17746TIP3    H274730   6.229   3.755   1.508  1.0643  0.0028 -0.3185
17747TIP3   OH274731   1.959   1.340   1.835  0.4820 -0.2741  0.3622
17747TIP3    H174732   1.864   1.349   1.837  0.4632  0.3580 -1.8612
17747TIP3    H274733   1.987   1.358   1.925 -1.6134 -2.1369  1.4284
17748TIP3   OH274734   0.153   1.465  15.632 -0.4496 -0.3279  0.0858
17748TIP3    H174735   0.068   1.504  15.613  0.1041 -0.2301 -2.3362
17748TIP3    H274736   0.133   1.378  15.665 -1.5427  0.4348  1.4565
17749TIP3   OH274737   2.014   4.442  12.684  0.3558 -0.3215 -0.0544
17749TIP3    H174738   2.063   4.365  12.711 -0.3683 -0.4890  0.7949
17749TIP3    H274739   2.077   4.513  12.686  0.7449 -0.6757  0.2821
17750TIP3   OH274740   6.035   4.319   0.251 -0.0128  0.1301  0.2783
17750TIP3    H174741   6.019   4.413   0.262 -1.8360 -0.4043  2.5012
17750TIP3    H274742   5.977   4.277   0.314  0.0133 -2.5607 -1.4099
17751TIP3   OH274743   3.185   4.249  15.324  0.4945 -0.3368  0.1059
17751TIP3    H174744   3.271   4.207  15.328 -0.0020 -1.4618 -0.5575
17751TIP3    H274745   3.164   4.268  15.415  0.4108 -2.2726  0.5314
17752TIP3   OH274746   0.415   1.172  13.347  0.0834 -0.6037 -0.7672
17752TIP3    H174747   0.415   1.225  13.267 -1.3292 -0.8515 -0.9409
17752TIP3    H274748   0.330   1.190  13.387  1.5082  0.9638  1.6446
17753TIP3   OH274749   0.884   2.440  13.906 -0.6366 -0.5390  0.2592
17753TIP3    H174750   0.830   2.384  13.962 -0.0921  1.0717  2.4808
17753TIP3    H274751   0.835   2.448  13.825 -1.8075 -2.3555  0.7701
17754TIP3   OH274752   4.414   1.138  11.953 -0.7244 -0.5487  0.0798
17754TIP3    H174753   4.430   1.224  11.991 -1.2029 -0.6950  0.6137
17754TIP3    H274754   4.502   1.102  11.938 -0.5304 -0.8447  1.8626
17755TIP3   OH274755   2.825   6.279   4.542 -0.6852 -0.5772 -0.5910
17755TIP3    H174756   2.772   6.204   4.568  0.8492 -1.8527 -1.0641
17755TIP3    H274757   2.895   6.283   4.608 -1.1892  0.9097 -0.1311
17756TIP3   OH274758   3.584   0.638   5.583 -0.5226  0.1648  0.1942
17756TIP3    H174759   3.648   0.670   5.646  0.6055  0.4938 -1.1106
17756TIP3    H274760   3.580   0.543   5.598 -0.5622  0.2911  1.0146
17757TIP3   OH274761   6.128   0.856  10.959  0.0080 -0.0152 -0.1261
17757TIP3    H174762   6.162   0.769  10.937 -0.5933 -0.5403  0.9155
17757TIP3    H274763   6.084   0.886  10.880 -1.1049 -1.3442 -0.0326
17758TIP3   OH274764   4.508   1.966  16.525 -0.2187  0.3415 -0.0719
17758TIP3    H174765   4.453   1.906  16.475 -0.4505 -1.8804  2.6790
17758TIP3    H274766   4.450   2.003  16.591  0.4009  2.0780 -0.4724
17759TIP3   OH274767   4.723   3.992   4.087  0.0757 -0.3292  0.4144
17759TIP3    H174768   4.812   3.991   4.120  0.9962 -1.0881 -2.0029
17759TIP3    H274769   4.675   4.047   4.149  2.2965  0.3818  1.5448
17760TIP3   OH274770   0.717   6.582   2.487 -0.0412  0.3069  0.0342
17760TIP3    H174771   0.709   6.525   2.563  0.2229  0.5957  0.2795
17760TIP3    H274772   0.734   6.669   2.524  2.5674  0.0297 -0.3879
17761TIP3   OH274773   2.493   5.064  11.639 -0.4473 -0.0126  0.4772
17761TIP3    H174774   2.409   5.059  11.684 -0.7489 -1.4456 -0.2114
17761TIP3    H274775   2.544   5.127  11.689 -0.5544 -2.0023  3.1907
17762TIP3   OH274776   5.460   3.269   4.101 -0.3035  0.3010 -0.4838
17762TIP3    H174777   5.527   3.324   4.059 -1.4307  2.6359  0.6879
17762TIP3    H274778   5.461   3.297   4.193 -1.5447 -1.0236 -0.0641
17763TIP3   OH274779   1.621   5.109   2.876 -0.7297 -0.6646 -0.3676
17763TIP3    H174780   1.570   5.053   2.935 -1.4720  1.5517  1.1927
17763TIP3    H274781   1.598   5.080   2.788 -2.7898 -1.3615  0.3700
17764TIP3   OH274782   5.902   1.907  13.344 -0.0088 -0.0411  0.5661
17764TIP3    H174783   5.958   1.947  13.278  0.9188 -1.6998  0.3291
17764TIP3    H274784   5.864   1.831  13.301 -1.1830  0.1493  1.2424
17765TIP3   OH274785   3.654   3.565  12.787  0.3711 -0.3861  0.2598
17765TIP3    H174786   3.732   3.539  12.837 -0.9492 -2.5140  1.2997
17765TIP3    H274787   3.689   3.601  12.706  2.4570 -1.1443  0.7845
17766TIP3   OH274788   6.525   4.223  13.814 -0.1235 -0.2618  0.2296
17766TIP3    H174789   6.577   4.240  13.892 -1.9189 -1.2737  1.6972
17766TIP3    H274790   6.462   4.295  13.812 -0.4596 -0.5591  0.0584
17767TIP3   OH274791   0.581   0.077  10.759 -0.5297  1.1942  0.1216
17767TIP3    H174792   0.631  -0.001  10.783  2.2768  2.7175 -0.4917
17767TIP3    H274793   0.554   0.062  10.669  0.8022  1.2788 -0.3077
17768TIP3   OH274794   4.488   6.596  15.876 -0.2868 -0.0589 -0.0525
17768TIP3    H174795   4.547   6.541  15.824  0.5011  0.8725 -0.1685
17768TIP3    H274796   4.528   6.684  15.872 -1.8057  0.6299 -0.3271
17769TIP3   OH274797   1.675   1.557  14.698  0.5713  0.0013  0.4435
17769TIP3    H174798   1.623   1.546  14.618  0.8824  0.4637  0.1750
17769TIP3    H274799   1.763   1.578  14.667  0.6786  0.2528  0.9099
17770TIP3   OH274800   0.088   0.035  11.833 -0.0760 -0.2380  0.0915
17770TIP3    H174801   0.176   0.030  11.795  0.1279  1.1553  0.3486
17770TIP3    H274802   0.039   0.090  11.772 -0.7722 -0.9720 -0.0249
17771TIP3   OH274803   1.566   0.818  13.538  0.5809 -0.8134  0.6688
17771TIP3    H174804   1.572   0.830  13.632  0.5911  0.1311  0.5486
17771TIP3    H274805   1.504   0.885  13.509  0.2924 -1.3423  0.0563
17772TIP3   OH274806   6.757   6.686  11.625 -0.3038 -0.1146  0.0440
17772TIP3    H174807   6.818   6.613  11.618  1.2389  1.2450 -0.8698
17772TIP3    H274808   6.752   6.705  11.719 -1.8463 -2.3069  0.4345
17773TIP3   OH274809   0.003   1.745  14.468 -0.5846  0.8012  0.0032
17773TIP3    H174810   0.019   1.825  14.419  1.0580  0.4150 -0.1232
17773TIP3    H274811   0.002   1.773  14.560  0.4600  0.9165 -0.0093
17774TIP3   OH274812   3.665   1.031  17.090 -0.1772  0.0284  0.0050
17774TIP3    H174813   3.687   1.084  17.167 -2.4049  0.2067  0.5587
17774TIP3    H274814   3.590   1.076  17.051 -1.3990 -2.0841 -0.1425
17775TIP3   OH274815   2.455   6.389   3.552  0.0585 -0.1269  0.3567
17775TIP3    H174816   2.413   6.418   3.633 -2.1863  0.7946 -1.0766
17775TIP3    H274817   2.446   6.293   3.554 -0.7703 -0.0449  0.8012
17776TIP3   OH274818   2.607   6.350  12.325  0.0080 -0.4305  0.5114
17776TIP3    H174819   2.608   6.254  12.325  3.9969 -0.4720  1.8662
17776TIP3    H274820   2.694   6.374  12.292 -0.6805  2.7128  0.9049
17777TIP3   OH274821   4.707   3.385   4.574  0.4440  0.1792  0.3475
17777TIP3    H174822   4.674   3.357   4.659 -2.4234  0.4686 -0.6396
17777TIP3    H274823   4.696   3.308   4.518  2.8411 -0.1918  0.3388
17778TIP3   OH274824   0.625   0.381  14.094  0.3730  0.1361 -0.2265
17778TIP3    H174825   0.558   0.316  14.118 -0.1771  1.2247  1.2442
17778TIP3    H274826   0.674   0.339  14.024 -1.7988 -0.7453 -1.2865
17779TIP3   OH274827   2.230   6.702   5.067 -0.3109 -0.5818  0.0858
17779TIP3    H174828   2.200   6.651   5.142 -0.7927 -0.1532  0.1854
17779TIP3    H274829   2.289   6.644   5.021  0.1370 -0.7887  0.9037
17780TIP3   OH274830   1.879   3.285   3.534 -0.5787  0.5675 -0.2513
17780TIP3    H174831   1.805   3.224   3.541 -0.6635  0.3965 -2.3348
17780TIP3    H274832   1.932   3.268   3.612 -3.2556  1.4072  1.8352
17781TIP3   OH274833   1.167   1.076  16.697  0.1276  0.5492 -0.4549
17781TIP3    H174834   1.168   1.093  16.603 -1.3943  0.9928 -0.4069
17781TIP3    H274835   1.082   1.036  16.713  0.4897  0.2243  0.6984
17782TIP3   OH274836   0.514   2.349   0.598  0.2359 -0.1166 -0.5782
17782TIP3    H174837   0.422   2.326   0.615  0.1580 -0.1191 -1.0122
17782TIP3    H274838   0.517   2.444   0.605  0.8498 -0.2917  2.7281
17783TIP3   OH274839   6.401   2.295  14.459  0.0695  0.4079  0.4661
17783TIP3    H174840   6.450   2.335  14.532 -0.1894  0.0550  0.8367
17783TIP3    H274841   6.407   2.359  14.388  0.1234  0.8589  0.8748
17784TIP3   OH274842   5.785   3.205   5.993  0.5382  0.3098 -0.0542
17784TIP3    H174843   5.802   3.233   6.083 -1.6679 -0.1533  0.5417
17784TIP3    H274844   5.728   3.272   5.957  2.5400  1.2271 -1.6021
17785TIP3   OH274845   2.829   1.211  13.170 -0.3273  0.2531 -0.1221
17785TIP3    H174846   2.850   1.118  13.166  0.5210  0.4791 -1.1291
17785TIP3    H274847   2.825   1.230  13.264  0.7484 -0.5279  0.0977
17786TIP3   OH274848   5.585   6.441   3.783 -0.3177 -0.2723  0.2745
17786TIP3    H174849   5.680   6.448   3.775 -0.4680 -0.3304 -1.7544
17786TIP3    H274850   5.554   6.531   3.773 -0.6416 -0.5967 -2.0519
17787TIP3   OH274851   5.053   4.923   2.559  0.0364 -0.3500 -0.0085
17787TIP3    H174852   5.012   4.843   2.593 -0.0784 -0.3073 -0.0489
17787TIP3    H274853   5.001   4.994   2.595  0.3620 -0.2796  0.3304
17788TIP3   OH274854   1.482   1.267  13.318 -0.2013 -0.5145  0.3729
17788TIP3    H174855   1.475   1.363  13.314  3.5024 -0.2149 -1.9792
17788TIP3    H274856   1.506   1.248  13.409  0.1996  0.9261  0.5823
17789TIP3   OH274857   1.668   6.268  15.733  0.3713 -0.0509 -0.0468
17789TIP3    H174858   1.645   6.195  15.790 -1.5180  1.0401  0.6449
17789TIP3    H274859   1.632   6.244  15.647  1.0169 -0.5677 -0.1754
17790TIP3   OH274860   3.849   0.179   4.236  0.1468 -0.2853  0.1427
17790TIP3    H174861   3.872   0.210   4.323 -0.4156 -0.1193  0.2339
17790TIP3    H274862   3.851   0.083   4.244 -0.6297 -0.2755  0.5392
17791TIP3   OH274863   0.917   5.202   2.991  0.2109 -0.3992 -0.3458
17791TIP3    H174864   0.970   5.237   3.062  0.0176  0.8277 -0.7867
17791TIP3    H274865   0.944   5.111   2.982 -0.2771 -0.7695  1.7754
17792TIP3   OH274866   4.946   4.042   4.247 -0.1496 -0.3367 -0.4508
17792TIP3    H174867   5.011   3.990   4.198  0.9388  0.5834 -0.0071
17792TIP3    H274868   4.948   4.005   4.335 -0.6567 -0.6866 -0.5839
17793TIP3   OH274869   3.911   6.716  13.414 -0.4693  0.1327  0.2787
17793TIP3    H174870   3.962   6.733  13.493  0.6118  0.4164 -0.4644
17793TIP3    H274871   3.973   6.729  13.342 -0.9220 -2.0691 -0.5331
17794TIP3   OH274872   1.078   2.496   2.314  0.3474 -0.3157  0.4860
17794TIP3    H174873   1.166   2.484   2.280  0.9349 -0.2875  1.9567
17794TIP3    H274874   1.090   2.548   2.394 -1.0902  0.4814  0.2045
17795TIP3   OH274875   1.869   0.184  12.649  1.1602 -0.3587  0.3764
17795TIP3    H174876   1.813   0.239  12.594 -0.7280 -2.7881 -0.2207
17795TIP3    H274877   1.910   0.122  12.588  0.3687 -1.9843  1.4425
17796TIP3   OH274878   4.547   1.133  12.515 -0.7021 -0.7576  0.2027
17796TIP3    H174879   4.640   1.131  12.493 -0.4863  0.5824  0.9618
17796TIP3    H274880   4.540   1.078  12.593 -0.7866 -1.9984 -0.6566
17797TIP3   OH274881   2.108   6.367   4.690 -0.6444 -0.2498  0.3841
17797TIP3    H174882   2.152   6.313   4.756 -0.5019  0.6633  1.0479
17797TIP3    H274883   2.015   6.364   4.714 -0.5957  0.0627  0.6129
17798TIP3   OH274884   0.076   4.741  15.982  0.0561 -0.7668  0.6935
17798TIP3    H174885   0.020   4.677  16.025 -0.0660 -1.0687  0.0883
17798TIP3    H274886   0.164   4.702  15.986  0.3761  0.0885  2.3965
17799TIP3   OH274887   1.807   6.047   5.441  0.2019  0.5370 -0.2400
17799TIP3    H174888   1.874   6.093   5.491  0.6707  1.1560 -1.4046
17799TIP3    H274889   1.843   6.042   5.352 -1.9783  2.3438 -1.2913
17800TIP3   OH274890   4.751   1.296  11.313  0.3889 -0.0154  0.0861
17800TIP3    H174891   4.741   1.204  11.290 -0.4361 -0.4310  2.0201
17800TIP3    H274892   4.729   1.343  11.233 -1.1831 -1.4457 -0.3488
17801TIP3   OH274893   4.100   1.788   4.125 -0.7027 -0.0100  0.4284
17801TIP3    H174894   4.140   1.856   4.071 -0.2765 -0.5585  0.0564
17801TIP3    H274895   4.138   1.801   4.212 -0.8650  0.4307  0.4352
17802TIP3   OH274896   0.577   1.475  14.366 -0.0311 -0.3834 -0.5060
17802TIP3    H174897   0.569   1.390  14.412 -3.1387 -0.1855 -0.5359
17802TIP3    H274898   0.666   1.505  14.386  0.2944 -2.5174  1.5340
17803TIP3   OH274899   6.695   1.511  14.451 -0.2259 -0.0075  0.1464
17803TIP3    H174900   6.603   1.529  14.472 -0.0949  1.0708 -0.2052
17803TIP3    H274901   6.732   1.596  14.430  0.9127 -0.4252  0.4654
17804TIP3   OH274902   3.105   4.952   0.242  0.2763 -0.0837  0.4065
17804TIP3    H174903   3.155   4.894   0.186  0.1038  1.8474 -1.8167
17804TIP3    H274904   3.161   4.967   0.318  1.8464 -0.2588 -0.7001
17805TIP3   OH274905   1.376   5.965   4.100  0.5077  0.5250  0.0362
17805TIP3    H174906   1.361   6.048   4.145 -1.2929  1.5182 -2.3011
17805TIP3    H274907   1.311   5.964   4.030  1.1429 -2.4391 -0.5514
17806TIP3   OH274908   6.400   5.429  16.344 -0.2165 -0.3514  0.1052
17806TIP3    H174909   6.487   5.401  16.372  0.8992  2.6439 -0.1786
17806TIP3    H274910   6.354   5.348  16.323  2.8865 -1.9308 -0.8832
17807TIP3   OH274911   0.872   2.274   3.858 -0.3561 -0.3367  0.2532
17807TIP3    H174912   0.932   2.278   3.933  1.1356  1.7462 -1.0213
17807TIP3    H274913   0.867   2.364   3.826 -1.3935 -1.1138 -1.8569
17808TIP3   OH274914   2.619   2.882   5.047  0.2024  0.2306  0.3941
17808TIP3    H174915   2.686   2.852   5.109  2.7355 -0.5047 -2.5972
17808TIP3    H274916   2.638   2.974   5.034  0.2678  0.1565 -0.0340
17809TIP3   OH274917   3.842   4.438   1.563 -0.2792  0.1470  0.0625
17809TIP3    H174918   3.791   4.363   1.533 -1.8641 -0.2500  3.4689
17809TIP3    H274919   3.778   4.505   1.584  0.8720  1.1238  0.5648
17810TIP3   OH274920   2.615   6.135  16.424 -0.2294  0.3892  0.5938
17810TIP3    H174921   2.643   6.085  16.347 -1.9180 -1.4266  1.1053
17810TIP3    H274922   2.693   6.182  16.452  0.6914  0.2206 -1.5878
17811TIP3   OH274923   4.460   2.933   1.442 -0.2955  0.1186 -0.3022
17811TIP3    H174924   4.405   2.902   1.370 -0.7659 -0.2265  0.2050
17811TIP3    H274925   4.418   3.014   1.471 -0.0528  0.3072 -0.4737
17812TIP3   OH274926   4.392   1.427  12.044  0.4298 -0.2725  0.3340
17812TIP3    H174927   4.318   1.484  12.022 -0.2364 -1.2943 -0.1289
17812TIP3    H274928   4.396   1.428  12.140  0.0245  0.0398  0.3468
17813TIP3   OH274929   5.819   2.755   3.654  0.6454 -0.2250  0.0636
17813TIP3    H174930   5.793   2.706   3.576  0.9146 -2.3549  1.2913
17813TIP3    H274931   5.914   2.747   3.656  0.6798  0.2567  0.3328
17814TIP3   OH274932   0.415   1.963   2.464  0.1046  0.2170  0.6405
17814TIP3    H174933   0.508   1.979   2.480 -0.1210  1.0761  1.1337
17814TIP3    H274934   0.376   2.051   2.460 -0.8756 -0.1617  1.6484
17815TIP3   OH274935   2.275   0.564   0.609  1.2794  0.6175 -0.3221
17815TIP3    H174936   2.181   0.572   0.594  0.8564 -1.6913  0.8930
17815TIP3    H274937   2.291   0.618   0.687  0.6618 -0.2649  0.4312
17816TIP3   OH274938   2.582   5.354  13.538 -0.0329 -0.0954  0.4158
17816TIP3    H174939   2.640   5.430  13.534 -1.0082  0.6455  0.1775
17816TIP3    H274940   2.621   5.291  13.477  0.0066  0.7575 -0.4563
17817TIP3   OH274941   1.216   0.561   5.664  0.0323 -0.5070 -0.1208
17817TIP3    H174942   1.159   0.587   5.736 -0.7503 -2.5399  0.0338
17817TIP3    H274943   1.186   0.474   5.640  0.3915  0.0395 -2.7897
17818TIP3   OH274944   3.619   6.417  11.537  0.3207 -0.0723 -0.5645
17818TIP3    H174945   3.657   6.340  11.495  0.7438  0.1488 -0.5890
17818TIP3    H274946   3.690   6.482  11.538 -0.6673  1.0842 -2.4978
17819TIP3   OH274947   5.317   5.116   3.255  0.2537  0.1401 -0.2292
17819TIP3    H174948   5.369   5.195   3.273 -0.7830  0.4890  1.2715
17819TIP3    H274949   5.325   5.105   3.160  0.4507  2.0248 -0.4699
17820TIP3   OH274950   0.537   3.552  17.068 -0.2935 -0.4861 -1.1279
17820TIP3    H174951   0.537   3.583  16.978  1.1853 -0.4071 -1.1078
17820TIP3    H274952   0.607   3.487  17.072  0.3451  0.2451  0.2001
17821TIP3   OH274953   2.605   3.478  13.507 -0.0576  0.0578  0.0309
17821TIP3    H174954   2.578   3.503  13.596 -0.8452  0.8697 -0.4323
17821TIP3    H274955   2.523   3.466  13.460  0.3662 -0.2507 -0.6306
17822TIP3   OH274956   6.518   2.644   5.926 -0.1761  0.0093 -0.0183
17822TIP3    H174957   6.510   2.574   5.992  1.6156  0.3083  0.5409
17822TIP3    H274958   6.591   2.697   5.957 -1.0893  1.7428 -0.8239
17823TIP3   OH274959   6.818   0.852   3.726  0.3680  0.3298 -0.5517
17823TIP3    H174960   6.861   0.806   3.654  1.5804  1.5588 -0.6328
17823TIP3    H274961   6.815   0.787   3.797  0.5522 -0.4054 -1.2054
17824TIP3   OH274962   4.693   5.934   1.535  0.0025  0.4559  0.1096
17824TIP3    H174963   4.713   5.988   1.612 -0.1628 -1.1899  1.3360
17824TIP3    H274964   4.771   5.879   1.525  0.8610  2.0120 -2.1275
17825TIP3   OH274965   1.488   6.513   1.884  0.2520 -0.2635 -0.3477
17825TIP3    H174966   1.567   6.488   1.836 -0.1489 -0.7649 -0.7534
17825TIP3    H274967   1.484   6.452   1.957  0.8035  0.4329  0.2695
17826TIP3   OH274968   0.574   4.994  12.517  0.3420  0.7497  0.4322
17826TIP3    H174969   0.635   4.922  12.533  0.8536  1.3374  1.1844
17826TIP3    H274970   0.489   4.960  12.546  0.7484  0.7764  1.6878
17827TIP3   OH274971   2.222   0.708  16.364 -0.2612 -0.3577 -0.4243
17827TIP3    H174972   2.204   0.670  16.278 -1.3417 -1.6136  0.3434
17827TIP3    H274973   2.216   0.802  16.350  0.5031 -0.5177 -1.9284
17828TIP3   OH274974   5.817   5.474  11.382 -0.3189  0.0437  0.3063
17828TIP3    H174975   5.785   5.559  11.351 -1.1760 -0.4713 -0.2816
17828TIP3    H274976   5.796   5.473  11.475  1.1904  1.1291  0.6722
17829TIP3   OH274977   6.335   3.110   2.401 -0.2878  0.0160  0.3145
17829TIP3    H174978   6.335   3.175   2.471  1.8621  2.3635 -1.7661
17829TIP3    H274979   6.423   3.115   2.363 -0.6982 -2.7486 -1.1898
17830TIP3   OH274980   2.211   4.172   5.507  0.0356 -0.9988 -0.2154
17830TIP3    H174981   2.209   4.212   5.419 -0.6003 -0.5729 -0.0094
17830TIP3    H274982   2.304   4.171   5.530 -0.0603  2.5567  0.7474
17831TIP3   OH274983   2.495   2.818   3.601  0.0891 -0.1717  0.1586
17831TIP3    H174984   2.447   2.846   3.523 -0.2123  1.0822  0.7899
17831TIP3    H274985   2.516   2.899   3.647  0.5351 -0.8855  1.2285
17832TIP3   OH274986   0.657   3.766   0.771 -0.7651 -0.1161  0.5518
17832TIP3    H174987   0.581   3.775   0.714  1.4401  0.7464 -2.3462
17832TIP3    H274988   0.668   3.671   0.783  0.1132 -0.4305 -2.4221
17833TIP3   OH274989   0.833   5.849   5.227  0.1183  0.2452  0.0679
17833TIP3    H174990   0.819   5.844   5.132 -1.7611  0.9048  0.2811
17833TIP3    H274991   0.910   5.905   5.238  0.1625  0.4104 -1.0723
17834TIP3   OH274992   5.990   6.227   2.833 -0.3610 -0.6083  0.2560
17834TIP3    H174993   5.926   6.294   2.857 -1.6171 -2.1103  1.1811
17834TIP3    H274994   6.037   6.265   2.759 -0.1441  1.8366  1.6104
17835TIP3   OH274995   2.790   3.814  11.732 -0.2693 -0.3227  0.1087
17835TIP3    H174996   2.826   3.836  11.646  0.2299 -0.6566  0.2261
17835TIP3    H274997   2.704   3.855  11.733  0.1762  0.6321 -0.1095
17836TIP3   OH274998   1.814   0.735  14.414 -0.2748 -0.1796  0.2302
17836TIP3    H174999   1.809   0.658  14.471  0.0308 -0.0896  0.3831
17836TIP3    H275000   1.763   0.712  14.337 -1.1965 -0.0812  0.7960
17837TIP3   OH275001   2.117   2.361   2.052 -0.3390 -0.6302  0.1285
17837TIP3    H175002   2.051   2.348   2.121  0.8010 -0.6752  1.2341
17837TIP3    H275003   2.098   2.292   1.988 -2.3744  0.3609 -0.3933
17838TIP3   OH275004   5.898   5.964   4.844  0.2932 -0.3404  0.5994
17838TIP3    H175005   5.874   5.889   4.789 -1.4345  1.6120 -1.3907
17838TIP3    H275006   5.974   6.003   4.801 -1.2768  1.3998 -0.6623
17839TIP3   OH275007   5.055   5.533   4.798 -0.2399 -0.9514 -0.1493
17839TIP3    H175008   5.089   5.619   4.773  0.7960 -1.5178 -0.6958
17839TIP3    H275009   5.092   5.472   4.735 -1.0274 -1.8074  0.1841
17840TIP3   OH275010   6.125   2.335  15.883 -0.4403  0.3409  0.2950
17840TIP3    H175011   6.148   2.401  15.947  0.7780 -0.6590  0.9213
17840TIP3    H275012   6.080   2.267  15.933 -1.4650  0.5711 -0.2984
17841TIP3   OH275013   2.514   3.261  13.728  0.2773  0.5577 -0.5905
17841TIP3    H175014   2.532   3.353  13.744 -2.1459  0.6643  1.9326
17841TIP3    H275015   2.464   3.232  13.804 -0.8959 -2.2788 -2.3147
17842TIP3   OH275016   2.968   4.166   1.336 -0.7034  0.0643  0.0127
17842TIP3    H175017   2.976   4.121   1.420  0.7011  0.8313  0.3161
17842TIP3    H275018   2.934   4.253   1.359 -0.0265  0.3813 -0.1604
17843TIP3   OH275019   1.723   1.185  12.226  0.2138  0.4234 -0.1372
17843TIP3    H175020   1.628   1.191  12.233  0.2317  0.5134  0.0360
17843TIP3    H275021   1.738   1.121  12.157  0.0235 -0.6425  0.7905
17844TIP3   OH275022   6.429   0.721  13.365  0.2984 -0.4179  0.0070
17844TIP3    H175023   6.452   0.632  13.390 -0.2506  0.2164  2.9981
17844TIP3    H275024   6.354   0.711  13.306 -0.0060 -1.9134  0.6204
17845TIP3   OH275025   4.714   0.378  16.110 -0.3333 -0.0390 -0.4151
17845TIP3    H175026   4.706   0.343  16.199  0.0810 -2.6772 -1.3591
17845TIP3    H275027   4.806   0.404  16.104  0.0521 -1.3723 -0.5690
17846TIP3   OH275028   6.801   1.357   5.123 -0.1763  0.1361 -0.4527
17846TIP3    H175029   6.817   1.427   5.060  0.6523 -1.5071 -2.1172
17846TIP3    H275030   6.880   1.303   5.120 -0.7446 -0.8078  0.8913
17847TIP3   OH275031   1.935   0.446  14.943  0.0266  0.4393 -0.0793
17847TIP3    H175032   1.884   0.373  14.909 -0.0572  0.9528 -1.0802
17847TIP3    H275033   1.982   0.480  14.866  1.2081  0.5018  0.6564
17848TIP3   OH275034   5.599   4.759   3.994  0.0125  0.2361  0.2432
17848TIP3    H175035   5.614   4.665   3.986 -0.0132  0.3018 -0.6457
17848TIP3    H275036   5.528   4.777   3.932 -0.6498  0.6808  1.1132
17849TIP3   OH275037   3.608   2.874   4.984  0.0493 -0.6746  0.8194
17849TIP3    H175038   3.580   2.842   4.899  0.3584 -0.2833  0.5736
17849TIP3    H275039   3.700   2.847   4.991  0.6265  1.0586  0.1756
17850TIP3   OH275040   3.814   0.035   0.350 -0.0966  0.0745  0.1012
17850TIP3    H175041   3.818   0.103   0.417 -0.3720  2.8022 -2.5074
17850TIP3    H275042   3.902   0.034   0.312 -0.9279  1.2090 -1.9350
17851TIP3   OH275043   0.047   1.005   6.359  0.1365 -0.3866 -0.0565
17851TIP3    H175044   0.066   1.097   6.340 -2.0768  0.3774  1.2274
17851TIP3    H275045  -0.049   0.999   6.354  0.1888 -2.4085  0.8186
17852TIP3   OH275046   3.539   0.506  15.216 -0.6573  0.6988 -0.1958
17852TIP3    H175047   3.518   0.445  15.144  1.5351 -1.6601  1.0551
17852TIP3    H275048   3.631   0.527  15.202 -0.4757  0.9773  1.3818
17853TIP3   OH275049   2.734   6.360  14.347 -0.7163  0.0263  0.3078
17853TIP3    H175050   2.703   6.404  14.268 -0.6116 -0.2553  0.1097
17853TIP3    H275051   2.695   6.273  14.343 -1.1374  0.1858  0.8350
17854TIP3   OH275052   4.450   5.080   2.528  0.4011 -0.2968  0.2265
17854TIP3    H175053   4.517   5.059   2.462  0.2867  1.2203 -0.4004
17854TIP3    H275054   4.487   5.154   2.577 -0.4328 -0.0255  0.4536
17855TIP3   OH275055   6.049   1.289   1.566  0.1288 -0.0027 -0.0845
17855TIP3    H175056   6.053   1.342   1.487 -1.4695 -0.9073 -0.7974
17855TIP3    H275057   5.961   1.304   1.601  0.0087 -1.3836  0.2447
17856TIP3   OH275058   4.075   1.159   0.086  0.3901  0.2326 -0.6173
17856TIP3    H175059   4.037   1.222   0.146 -1.1053  1.0983 -2.4074
17856TIP3    H275060   4.169   1.166   0.100  0.2117  2.4240 -0.3501
17857TIP3   OH275061   2.434   2.224  15.111  0.1692  0.8829  0.9514
17857TIP3    H175062   2.403   2.155  15.169 -0.3980 -0.6338 -1.0736
17857TIP3    H275063   2.495   2.275  15.164  3.5814 -3.4175  1.4345
17858TIP3   OH275064   2.595   1.701  13.400 -0.1925 -0.4303  0.9807
17858TIP3    H175065   2.575   1.665  13.313  0.6260  0.3587  0.4632
17858TIP3    H275066   2.559   1.636  13.461 -2.1515 -0.2331  0.0676
17859TIP3   OH275067   6.481   0.821  15.422  0.4800  0.1986 -0.4964
17859TIP3    H175068   6.398   0.868  15.416  0.3871 -0.2247 -3.0560
17859TIP3    H275069   6.547   0.890  15.414  0.3896  0.4251  0.6059
17860TIP3   OH275070   6.429   1.109   2.411 -0.0242 -0.4844 -0.1328
17860TIP3    H175071   6.392   1.024   2.436  0.1591 -0.3028  0.7532
17860TIP3    H275072   6.490   1.131   2.482  0.5077  0.0262 -0.7388
17861TIP3   OH275073   5.429   4.779   3.728 -0.0230 -0.1350  0.1146
17861TIP3    H175074   5.508   4.823   3.696  0.0755  0.4097  1.0917
17861TIP3    H275075   5.357   4.831   3.691  0.0777 -0.2156 -0.1988
17862TIP3   OH275076   1.223   2.178   3.877  0.9041 -0.3416  0.0062
17862TIP3    H175077   1.305   2.145   3.842  0.0033 -1.0674 -1.4619
17862TIP3    H275078   1.155   2.129   3.831 -0.3921  1.0362  0.3866
17863TIP3   OH275079   1.788   2.194   0.924 -0.2107 -0.1033 -0.6157
17863TIP3    H175080   1.828   2.238   0.999  0.1251 -2.9041  0.8954
17863TIP3    H275081   1.862   2.168   0.870 -0.0252 -3.1941  1.0118
17864TIP3   OH275082   2.895   5.454  14.439 -0.1713  0.1064 -0.0729
17864TIP3    H175083   2.822   5.516  14.442  0.4997  1.1545 -3.5174
17864TIP3    H275084   2.869   5.389  14.374  2.3968  1.1198 -2.1962
17865TIP3   OH275085   4.505   2.082   4.009 -0.2509  0.0043 -0.1296
17865TIP3    H175086   4.491   1.994   4.044 -0.9553  0.4196  0.6435
17865TIP3    H275087   4.600   2.091   4.004 -0.1381 -0.2067  1.3150
17866TIP3   OH275088   2.270   0.062   5.542 -0.0789  0.1699 -0.2039
17866TIP3    H175089   2.230   0.031   5.461 -0.7442 -1.2903  0.6615
17866TIP3    H275090   2.197   0.075   5.602  0.3372  1.9588 -0.0347
17867TIP3   OH275091   0.962   2.834  16.698 -0.1602  0.0082  0.2876
17867TIP3    H175092   0.943   2.881  16.617 -0.8875 -0.2776  0.2866
17867TIP3    H275093   0.967   2.902  16.765 -0.3366  0.1749  0.1347
17868TIP3   OH275094   5.321   1.001   1.078  0.4263  0.2005  0.0752
17868TIP3    H175095   5.237   0.988   1.122  0.6243  0.4926  0.5426
17868TIP3    H275096   5.324   1.094   1.058  0.4955  0.1325 -0.2403
17869TIP3   OH275097   3.924   1.748  11.997  0.5046  0.1602 -0.5051
17869TIP3    H175098   3.957   1.669  12.038 -0.0059  0.3038  0.1843
17869TIP3    H275099   3.941   1.736  11.904 -0.3729 -1.1380 -0.5009
17870TIP3   OH275100   5.561   1.308   1.123  0.2292 -0.6327  0.3618
17870TIP3    H175101   5.600   1.222   1.102 -0.2811 -1.0507  1.1236
17870TIP3    H275102   5.473   1.304   1.086 -0.6187 -1.3082  2.3815
17871TIP3   OH275103   4.035   1.742   2.442  0.4574 -0.5686  0.1431
17871TIP3    H175104   3.954   1.789   2.423 -0.2873 -2.3688 -1.2623
17871TIP3    H275105   4.104   1.796   2.404 -0.0418  1.0468  1.4804
17872TIP3   OH275106   2.136   0.601   1.205 -0.1663 -0.3136  0.6777
17872TIP3    H175107   2.144   0.573   1.296 -0.9139  0.9630  1.1447
17872TIP3    H275108   2.042   0.606   1.190 -0.0405 -0.2720 -0.1001
17873TIP3   OH275109   0.815   2.227   2.684  0.4320 -0.0306 -0.0874
17873TIP3    H175110   0.768   2.296   2.732 -0.9990  0.0310 -1.5408
17873TIP3    H275111   0.861   2.273   2.614  1.8639 -0.2186  0.7130
17874TIP3   OH275112   0.194   6.035   5.305  0.2511  0.1967  0.0843
17874TIP3    H175113   0.203   5.986   5.387  0.2670  0.3176  0.1543
17874TIP3    H275114   0.190   6.126   5.331  0.9603  0.2852 -0.0939
17875TIP3   OH275115   1.949   2.873  13.771 -0.0552  0.3520 -0.0989
17875TIP3    H175116   1.940   2.848  13.863  1.3638 -2.7434 -0.7371
17875TIP3    H275117   1.863   2.854  13.733  0.9275 -3.7234 -0.5271
17876TIP3   OH275118   4.248   5.955  12.313 -0.1500 -1.1210 -0.3670
17876TIP3    H175119   4.337   5.959  12.277  0.1283  0.6772  0.4191
17876TIP3    H275120   4.261   5.933  12.406 -0.5256 -1.0031 -0.2863
17877TIP3   OH275121   2.129   3.578   2.076  0.0663 -0.3558  0.0929
17877TIP3    H175122   2.080   3.658   2.094  2.2893  1.0307  0.2064
17877TIP3    H275123   2.212   3.609   2.038  1.6144 -2.5256  1.6041
17878TIP3   OH275124   2.320   2.006  13.999  0.2369 -0.1681  0.0715
17878TIP3    H175125   2.233   1.976  14.024  0.7175 -0.5302  1.3151
17878TIP3    H275126   2.349   2.060  14.071  1.4544 -0.8669  0.1241
17879TIP3   OH275127   5.675   6.609   4.991 -1.3571  0.2566 -1.0387
17879TIP3    H175128   5.724   6.622   4.909 -2.9261  2.0631 -1.7459
17879TIP3    H275129   5.734   6.639   5.059  0.2357 -1.9105 -1.4227
17880TIP3   OH275130   3.044   5.647   4.846 -0.1509  0.1315  0.0602
17880TIP3    H175131   3.128   5.601   4.849 -0.2695 -0.0859  0.0213
17880TIP3    H275132   3.065   5.733   4.807 -0.2070 -0.5164 -1.4567
17881TIP3   OH275133   5.313   5.081   1.901 -0.4893 -0.6429 -0.1277
17881TIP3    H175134   5.223   5.056   1.883 -0.0637 -0.6813 -2.2842
17881TIP3    H275135   5.351   5.005   1.945 -1.0835 -1.2216 -0.6072
17882TIP3   OH275136   4.215   3.910  12.442 -0.1767 -0.3694 -0.6702
17882TIP3    H175137   4.271   3.945  12.512 -0.1606 -0.3509 -0.6923
17882TIP3    H275138   4.267   3.842  12.401  0.3027  0.4709 -1.4837
17883TIP3   OH275139   6.654   0.837   1.615  0.7907  0.1672 -0.3589
17883TIP3    H175140   6.660   0.772   1.685 -0.9919  0.6802  0.2880
17883TIP3    H275141   6.700   0.914   1.649 -0.3344  0.5204  0.3902
17884TIP3   OH275142   1.574   2.229  14.956  0.4057  0.1798 -0.7666
17884TIP3    H175143   1.610   2.282  15.027  0.0018 -1.9297  1.0704
17884TIP3    H275144   1.627   2.252  14.880  2.3498  0.8353  0.7318
17885TIP3   OH275145   1.193   2.848  13.941 -0.0170 -0.1933  0.5651
17885TIP3    H175146   1.270   2.800  13.911  0.9726  1.5345  0.2255
17885TIP3    H275147   1.123   2.783  13.945  0.9912 -1.3954 -0.9549
17886TIP3   OH275148   0.643   3.401  13.266 -0.1167 -0.4829  0.4126
17886TIP3    H175149   0.555   3.412  13.302  0.0751  1.3210  0.4159
17886TIP3    H275150   0.695   3.369  13.339 -0.4043  0.1254  0.8907
17887TIP3   OH275151   4.797   2.107   4.060 -0.3922  0.1358  0.0912
17887TIP3    H175152   4.868   2.049   4.088  1.5110  2.1029 -0.5476
17887TIP3    H275153   4.768   2.149   4.141  1.1837  1.5003 -0.0262
17888TIP3   OH275154   6.503   4.024  11.515  0.6154 -0.1672 -0.5728
17888TIP3    H175155   6.470   3.935  11.507  0.0178 -0.3325  3.0089
17888TIP3    H275156   6.425   4.077  11.530  1.1218  0.7710 -1.2169
17889TIP3   OH275157   4.419   1.964   1.158 -0.3234  0.1496  0.2496
17889TIP3    H175158   4.436   1.920   1.241 -0.8724 -1.1368 -0.3127
17889TIP3    H275159   4.329   1.942   1.136  0.6942 -1.9781 -2.1358
17890TIP3   OH275160   2.975   2.255  14.979  0.1066 -0.2881  0.2480
17890TIP3    H175161   2.946   2.256  15.071 -0.4365 -3.1628  0.1693
17890TIP3    H275162   2.898   2.226  14.930  0.5053  0.8879 -1.1051
17891TIP3   OH275163   4.818   6.318  17.001  0.3814 -0.5368  0.4228
17891TIP3    H175164   4.898   6.288  17.044 -0.1192 -0.7992  1.1975
17891TIP3    H275165   4.837   6.408  16.974  1.1723 -0.8351 -0.0137
17892TIP3   OH275166   3.989   3.879  16.056 -0.3733  0.6410 -0.0890
17892TIP3    H175167   4.061   3.818  16.037 -1.5144 -0.8455  0.2775
17892TIP3    H275168   3.949   3.844  16.136 -1.0122  1.9109  0.1601
17893TIP3   OH275169   3.756   6.438  16.308 -0.2619 -0.3331 -0.6360
17893TIP3    H175170   3.700   6.462  16.382 -0.7238 -0.6078 -0.8956
17893TIP3    H275171   3.703   6.456  16.231 -0.0613 -0.7645 -0.8758
17894TIP3   OH275172   0.970   0.839  15.570 -0.1854  0.3602 -0.6585
17894TIP3    H175173   0.951   0.807  15.659  0.4049 -1.1142 -1.0382
17894TIP3    H275174   1.066   0.846  15.568 -0.2494  1.1219 -0.9349
17895TIP3   OH275175   0.167   2.016   3.342 -0.2972  0.1381  0.4647
17895TIP3    H175176   0.134   1.980   3.425 -0.2798 -0.4226  0.2310
17895TIP3    H275177   0.238   1.957   3.317 -1.1309 -0.4108 -0.5893
17896TIP3   OH275178   4.012   5.715   4.819 -0.5563  0.1424  0.1150
17896TIP3    H175179   4.056   5.789   4.777 -0.3116 -0.0490  0.0304
17896TIP3    H275180   3.990   5.656   4.747  1.7946 -1.2035  0.4495
17897TIP3   OH275181   6.499   1.794   0.093  0.0205 -0.1255  0.8602
17897TIP3    H175182   6.504   1.880   0.050  2.0584 -0.9925 -0.7108
17897TIP3    H275183   6.477   1.733   0.023  1.5218 -1.3072  1.3919
17898TIP3   OH275184   4.871   1.731  15.394  0.1233 -0.2742 -0.6794
17898TIP3    H175185   4.817   1.766  15.465  0.8840 -2.3569  1.0100
17898TIP3    H275186   4.957   1.770  15.408 -0.1997  0.7738 -1.6014
17899TIP3   OH275187   4.212   2.769   1.476 -0.1389 -0.1705 -0.2182
17899TIP3    H175188   4.176   2.856   1.490  0.9972  0.2977 -0.1676
17899TIP3    H275189   4.244   2.741   1.562  0.3738 -0.2245 -0.4192
17900TIP3   OH275190   0.707   1.137  11.834 -0.1625  0.4694 -0.3407
17900TIP3    H175191   0.759   1.087  11.897 -1.2876  0.2125  0.3788
17900TIP3    H275192   0.769   1.155  11.763  0.7887 -0.2583  0.2794
17901TIP3   OH275193   1.150   5.927  13.634  0.5414 -0.1476  0.0248
17901TIP3    H175194   1.216   5.986  13.671  1.1815  0.2771 -1.7291
17901TIP3    H275195   1.144   5.953  13.541 -0.8854 -1.2829 -0.2155
17902TIP3   OH275196   2.268   1.374  16.416  0.1726  0.1391  0.4737
17902TIP3    H175197   2.294   1.289  16.452  3.7490  1.6447  1.5853
17902TIP3    H275198   2.281   1.436  16.488 -1.7285  1.7785 -0.5382
17903TIP3   OH275199   1.564   3.678   0.773  0.3061  0.1739  0.0738
17903TIP3    H175200   1.504   3.734   0.725 -0.8957 -2.5504 -1.7094
17903TIP3    H275201   1.644   3.679   0.721  0.2315  0.1029 -0.0428
17904TIP3   OH275202   4.789   0.345  16.636  0.2427  0.6007 -0.3199
17904TIP3    H175203   4.787   0.402  16.713 -0.7048  0.9675 -0.6092
17904TIP3    H275204   4.710   0.290  16.645  1.2540 -0.8140  0.0782
17905TIP3   OH275205   6.064   6.034   1.026  0.5514 -0.1322 -0.4641
17905TIP3    H175206   6.023   5.968   0.971  0.7470 -0.6128 -0.0454
17905TIP3    H275207   6.100   6.099   0.965 -3.5655  2.0090 -0.7993
17906TIP3   OH275208   4.188   1.391   4.656  0.2004 -0.1047 -0.3335
17906TIP3    H175209   4.107   1.376   4.704 -0.4713  0.2229 -1.3350
17906TIP3    H275210   4.187   1.484   4.634  1.2870  0.0861  0.4241
17907TIP3   OH275211   2.807   4.575  11.271 -0.2782 -0.5260  0.2691
17907TIP3    H175212   2.711   4.575  11.267 -0.4147 -1.0266  2.5183
17907TIP3    H275213   2.829   4.654  11.319  0.4317 -0.4800 -0.1264
17908TIP3   OH275214   2.516   1.456  11.149 -0.6924 -0.5250 -0.2309
17908TIP3    H175215   2.492   1.363  11.142 -1.3589 -0.3953  0.2582
17908TIP3    H275216   2.458   1.500  11.087 -1.3283 -0.2832  0.5176
17909TIP3   OH275217   4.660   5.238   5.950 -0.2422 -0.6744  0.0137
17909TIP3    H175218   4.586   5.272   6.000 -0.0368  2.2585 -1.5969
17909TIP3    H275219   4.736   5.254   6.006 -0.5389 -1.5959  0.6922
17910TIP3   OH275220   4.074   3.768   5.926  0.0309 -0.3081  0.1818
17910TIP3    H175221   4.127   3.843   5.899  1.0505 -1.2880 -0.5866
17910TIP3    H275222   4.044   3.791   6.014  1.3881  0.4622  0.4695
17911TIP3   OH275223   3.506   3.163   5.010 -0.2492 -0.0967  0.7102
17911TIP3    H175224   3.419   3.136   5.040 -0.5717 -0.4783 -0.5401
17911TIP3    H275225   3.555   3.081   5.001 -0.2213 -0.0122  0.0266
17912TIP3   OH275226   6.409   2.566   3.461  0.1945 -0.5387  0.6032
17912TIP3    H175227   6.427   2.532   3.373 -2.0116 -1.6697  0.5434
17912TIP3    H275228   6.383   2.657   3.448 -2.6768 -1.4338 -0.2395
17913TIP3   OH275229   1.707   0.682   5.775  0.2627 -0.8012  0.4348
17913TIP3    H175230   1.642   0.742   5.739 -1.8724 -2.0459  2.0453
17913TIP3    H275231   1.766   0.737   5.825 -1.4133  0.0293  1.5419
17914TIP3   OH275232   3.379   4.841   0.252 -0.0628 -0.7765  0.3930
17914TIP3    H175233   3.306   4.827   0.191 -0.5680 -0.0382  0.8243
17914TIP3    H275234   3.361   4.782   0.325 -1.0012  0.4284  1.1637
17915TIP3   OH275235   6.614   0.048  17.059 -0.9666 -0.2080  0.1746
17915TIP3    H175236   6.673   0.107  17.106  0.5995 -1.4811 -0.1547
17915TIP3    H275237   6.646   0.050  16.968 -0.9068 -1.5308  0.1578
17916TIP3   OH275238   1.023   4.767   2.374 -0.4006 -0.3739 -0.0005
17916TIP3    H175239   1.087   4.743   2.307  0.9896  0.2198  1.0671
17916TIP3    H275240   0.980   4.685   2.397  1.0416 -1.0655  0.3081
17917TIP3   OH275241   1.829   4.177   3.090  0.3168  0.6717 -0.1627
17917TIP3    H175242   1.895   4.239   3.061  1.5768 -1.4181 -1.9449
17917TIP3    H275243   1.844   4.168   3.185  0.8101  2.2046 -0.0816
17918TIP3   OH275244   0.963   5.188   0.475  0.3139  0.1233 -0.4295
17918TIP3    H175245   0.927   5.102   0.494  1.3243 -0.7231 -2.2073
17918TIP3    H275246   1.001   5.180   0.388  1.0951  2.1565 -0.3196
17919TIP3   OH275247   6.654   5.410   4.890 -0.2284  0.1446 -0.6014
17919TIP3    H175248   6.640   5.493   4.844  0.2064 -0.4681 -1.8577
17919TIP3    H275249   6.648   5.433   4.983 -0.4378  1.5234 -0.9441
17920TIP3   OH275250   2.846   2.611  13.644  0.4872 -0.2540  0.1633
17920TIP3    H175251   2.756   2.603  13.676  0.6360  0.2033  0.7021
17920TIP3    H275252   2.837   2.656  13.560  0.2613  0.3201  0.4934
17921TIP3   OH275253   5.198   4.901   3.111 -0.2911  0.1356  0.1142
17921TIP3    H175254   5.174   4.844   3.038 -0.7911 -0.4726  0.7426
17921TIP3    H275255   5.263   4.851   3.160  0.2877  0.6790 -0.1043
17922TIP3   OH275256   3.070   1.328  16.407  0.4716  0.0661 -0.7247
17922TIP3    H175257   3.162   1.327  16.433 -0.0036  2.9979  1.3705
17922TIP3    H275258   3.068   1.384  16.329  0.3875  0.3682 -0.5056
17923TIP3   OH275259   3.294   4.253   5.131  0.3717  0.0009 -0.5953
17923TIP3    H175260   3.243   4.301   5.196  1.3998  1.6068 -0.9594
17923TIP3    H275261   3.231   4.233   5.061 -0.0868  0.7025 -0.3839
17924TIP3   OH275262   4.745   3.322  14.657  0.2654  0.1814 -0.2169
17924TIP3    H175263   4.793   3.249  14.697  0.1991  1.4845  2.3727
17924TIP3    H275264   4.812   3.376  14.617  0.7442  0.6710  1.2016
17925TIP3   OH275265   6.572   4.375  11.460  0.2513  0.2283 -0.0650
17925TIP3    H175266   6.638   4.374  11.391 -1.1933  1.5360 -1.5239
17925TIP3    H275267   6.519   4.453  11.442 -0.5394  0.2607  2.1770
17926TIP3   OH275268   0.939   1.499  12.449 -0.2800  0.3195  0.5713
17926TIP3    H175269   0.974   1.452  12.374 -1.5487  1.0146 -0.4631
17926TIP3    H275270   0.978   1.455  12.525 -0.0809 -1.2716 -0.4398
17927TIP3   OH275271   1.693   2.969  12.453 -0.9498 -0.0858  0.3115
17927TIP3    H175272   1.684   2.875  12.435 -3.3909  0.2478 -0.4928
17927TIP3    H275273   1.672   2.977  12.547 -0.3392 -0.3890  0.4763
17928TIP3   OH275274   6.223   4.753  13.312 -0.1407 -0.2950 -0.1103
17928TIP3    H175275   6.268   4.722  13.234  1.6874 -0.3374  0.9340
17928TIP3    H275276   6.233   4.848  13.310  1.0265 -0.3906  0.7217
17929TIP3   OH275277   1.373   4.755   3.911  0.8553  0.5069  0.1835
17929TIP3    H175278   1.358   4.734   3.819 -1.6149  1.9404  0.1971
17929TIP3    H275279   1.285   4.767   3.947  1.6824 -1.6517  3.1485
17930TIP3   OH275280   3.643   6.287   1.291  0.6987  0.1392 -0.6169
17930TIP3    H175281   3.690   6.224   1.346  0.5367 -1.2262 -2.0022
17930TIP3    H275282   3.642   6.368   1.342  1.4209 -0.8206  0.9508
17931TIP3   OH275283   4.244   3.027  11.165  0.4625 -0.8479  0.0279
17931TIP3    H175284   4.176   3.085  11.200  0.8464 -0.4639  0.1416
17931TIP3    H275285   4.219   3.011  11.074  0.3074 -0.5797  0.0258
17932TIP3   OH275286   4.880   5.328   1.990 -0.0595  0.6821 -0.0365
17932TIP3    H175287   4.797   5.316   1.943  0.3531  1.2169 -0.9258
17932TIP3    H275288   4.906   5.240   2.015  0.0773  0.2905 -1.4727
17933TIP3   OH275289   2.746   0.148  13.014  0.6125 -0.7603  0.2477
17933TIP3    H175290   2.700   0.137  13.097 -1.6680 -0.1775 -0.8965
17933TIP3    H275291   2.711   0.079  12.958  1.8135 -0.8728 -0.3783
17934TIP3   OH275292   1.208   0.606   4.179 -0.4793  0.4586  0.1601
17934TIP3    H175293   1.132   0.587   4.124 -0.7212 -0.4419  0.7836
17934TIP3    H275294   1.171   0.648   4.257 -0.1611  1.5449 -0.2782
17935TIP3   OH275295   0.540   3.347  16.323 -0.0939 -0.6472 -0.2980
17935TIP3    H175296   0.612   3.398  16.360 -0.2697  0.1480 -1.0514
17935TIP3    H275297   0.572   3.317  16.238  0.0295 -1.8462  0.1574
17936TIP3   OH275298   1.353   5.997   5.262 -0.2654 -0.3440  0.3943
17936TIP3    H175299   1.405   5.918   5.272 -0.3474 -0.5215 -0.5701
17936TIP3    H275300   1.350   6.035   5.350 -1.6182 -2.2702  1.1989
17937TIP3   OH275301   0.603   0.488   6.066  0.9064  0.3190 -0.5300
17937TIP3    H175302   0.558   0.484   5.981 -1.9365  1.4699  0.8930
17937TIP3    H275303   0.581   0.404   6.108 -0.9331  1.3551  0.6358
17938TIP3   OH275304   2.043   5.143   4.256 -0.2197  0.1873  0.0919
17938TIP3    H175305   2.006   5.078   4.315 -0.7023  0.7657  0.4254
17938TIP3    H275306   1.968   5.185   4.216  0.0887  0.7171  0.0671
17939TIP3   OH275307   1.508   3.820   3.772 -0.0583  0.3540 -0.1012
17939TIP3    H175308   1.594   3.811   3.730 -0.3427 -0.8760 -0.4456
17939TIP3    H275309   1.464   3.888   3.721  0.7699  1.0990  0.1764
17940TIP3   OH275310   0.277   3.494  14.787 -0.8383  0.3493  0.5115
17940TIP3    H175311   0.279   3.499  14.692 -0.2398 -0.8231  0.4582
17940TIP3    H275312   0.196   3.447  14.807  0.5121 -2.0597  0.4491
17941TIP3   OH275313   4.320   1.471   0.350 -0.6819  0.6874 -0.0701
17941TIP3    H175314   4.298   1.532   0.420  0.5009  0.4808  0.4826
17941TIP3    H275315   4.241   1.468   0.295 -1.7841  0.4941  1.4899
17942TIP3   OH275316   4.762   4.350  14.949 -0.4302  0.1682  0.8062
17942TIP3    H175317   4.698   4.302  15.003 -1.7730  0.7184 -0.2860
17942TIP3    H275318   4.709   4.393  14.882  1.0291  1.2232  0.3300
17943TIP3   OH275319   0.378   0.625   3.006  0.4240 -0.2629  0.2874
17943TIP3    H175320   0.462   0.668   3.022 -0.1416  0.5097  1.2733
17943TIP3    H275321   0.315   0.697   3.001 -0.2091 -0.8471 -0.2322
17944TIP3   OH275322   5.496   2.140  16.172 -0.2329  0.7438 -0.1682
17944TIP3    H175323   5.453   2.054  16.165 -0.2058  0.6141  1.1945
17944TIP3    H275324   5.498   2.158  16.266 -0.7300  2.5031 -0.4867
17945TIP3   OH275325   6.384   6.654   2.119  0.1923  0.0569 -0.0542
17945TIP3    H175326   6.323   6.587   2.089  1.4824 -1.2343  0.1538
17945TIP3    H275327   6.463   6.640   2.067  0.7077  1.0079  0.4453
17946TIP3   OH275328   0.130   0.521  12.508 -0.0033  0.1721 -0.2974
17946TIP3    H175329   0.202   0.488  12.453 -0.3061 -0.5382 -0.2694
17946TIP3    H275330   0.051   0.489  12.464 -0.2302 -0.8937  0.8774
17947TIP3   OH275331   1.272   6.699  15.947 -0.1400  0.4797 -0.4592
17947TIP3    H175332   1.179   6.675  15.949 -0.2812  0.8937  3.6106
17947TIP3    H275333   1.318   6.619  15.923 -1.3756 -0.6295  0.7921
17948TIP3   OH275334   1.429   3.879  13.997  0.1216  0.0502 -0.3684
17948TIP3    H175335   1.397   3.807  13.943 -1.7991  0.2040  0.5052
17948TIP3    H275336   1.524   3.868  14.000 -0.0317 -1.6053 -1.4035
17949TIP3   OH275337   0.857   6.594  14.371  0.1019  0.0213  0.1388
17949TIP3    H175338   0.880   6.505  14.346 -0.4983  0.2346 -1.1934
17949TIP3    H275339   0.767   6.605  14.341  0.9278  1.8390 -1.7788
17950TIP3   OH275340   0.012   2.847   2.979 -0.0103 -0.4774 -0.6605
17950TIP3    H175341   0.022   2.754   3.004  0.4029 -0.5431 -1.0668
17950TIP3    H275342  -0.078   2.868   3.003 -0.6253 -1.4453 -2.0892
17951TIP3   OH275343   3.972   6.483   2.351 -0.1898 -0.5003 -0.5326
17951TIP3    H175344   3.883   6.473   2.319 -1.4640  0.4332  2.4983
17951TIP3    H275345   3.986   6.578   2.356 -0.7056 -0.5263  3.1203
17952TIP3   OH275346   4.862   3.394  15.680 -0.1546 -0.1638  0.7204
17952TIP3    H175347   4.862   3.298  15.680 -0.3166 -0.1688 -0.2574
17952TIP3    H275348   4.779   3.418  15.722 -0.1458 -0.4565  0.9027
17953TIP3   OH275349   3.548   0.163  11.594  0.3674 -0.5296  0.1961
17953TIP3    H175350   3.472   0.218  11.575  0.9239  0.5035  0.9113
17953TIP3    H275351   3.604   0.218  11.649  2.0436 -0.9684 -1.0380
17954TIP3   OH275352   3.707   3.025  12.994 -0.3568 -0.6480 -0.0546
17954TIP3    H175353   3.638   3.008  13.057 -0.5178 -2.6593 -0.7494
17954TIP3    H275354   3.662   3.036  12.910  0.1295 -1.4871 -0.4294
17955TIP3   OH275355   2.929   3.404   5.378  0.1829  0.0412  0.0487
17955TIP3    H175356   2.945   3.351   5.456 -0.6610 -0.1456  0.0989
17955TIP3    H275357   2.917   3.493   5.412 -0.4229 -0.0813  0.1527
17956TIP3   OH275358   6.420   1.536   6.018 -0.6579  0.0655 -0.9760
17956TIP3    H175359   6.512   1.557   6.007 -1.5681  3.4625 -2.6113
17956TIP3    H275360   6.405   1.541   6.112  0.8279 -0.6735 -0.6803
17957TIP3   OH275361   0.167   5.721  14.060  0.5470  0.2495 -0.1592
17957TIP3    H175362   0.225   5.703  13.986 -0.2278 -0.4264 -0.6125
17957TIP3    H275363   0.087   5.757  14.020 -0.6738 -1.9926  0.1417
17958TIP3   OH275364   0.054   3.034  16.380  0.5294 -0.1776  0.0383
17958TIP3    H175365   0.100   3.088  16.444 -0.3039  1.3491 -0.6192
17958TIP3    H275366   0.102   3.047  16.298 -0.6045  0.8552 -0.4866
17959TIP3   OH275367   5.931   4.919  15.061  0.1248  0.5779 -0.2280
17959TIP3    H175368   5.852   4.974  15.062  0.5800  1.2463 -0.8878
17959TIP3    H275369   6.000   4.976  15.029  0.6186 -0.3740 -0.8824
17960TIP3   OH275370   1.914   5.894  14.932 -0.2613  0.0364 -0.4835
17960TIP3    H175371   1.987   5.852  14.887 -1.2108 -0.4098 -1.6460
17960TIP3    H275372   1.922   5.987  14.910 -0.6277 -0.1584 -1.4609
17961TIP3   OH275373   6.749   5.232   4.502  0.0413 -0.1261  0.1717
17961TIP3    H175374   6.678   5.230   4.566 -0.6348  0.6272 -0.5462
17961TIP3    H275375   6.805   5.304   4.530 -1.3000  1.5054 -1.1451
17962TIP3   OH275376   1.171   6.704  11.510  0.3657 -0.0721 -0.1488
17962TIP3    H175377   1.178   6.737  11.420  0.4262  0.9793  0.2398
17962TIP3    H275378   1.123   6.772  11.557 -0.7778 -1.1782  0.3357
17963TIP3   OH275379   4.809   1.831  15.651  0.0936 -0.3224 -0.0626
17963TIP3    H175380   4.862   1.900  15.612  0.7978 -0.5633  0.4546
17963TIP3    H275381   4.777   1.868  15.732 -0.6878 -0.1124 -0.4658
17964TIP3   OH275382   6.107   4.973   3.380 -0.2866  0.7008  0.5712
17964TIP3    H175383   6.060   5.056   3.378  0.8184  1.3432  0.6023
17964TIP3    H275384   6.188   4.992   3.427 -0.4294 -0.6190  1.3942
17965TIP3   OH275385   4.144   2.398  13.566  0.0752  0.2510  0.1305
17965TIP3    H175386   4.061   2.406  13.518 -0.8792 -1.9708  1.3716
17965TIP3    H275387   4.120   2.409  13.658  1.2611  0.1603  0.4636
17966TIP3   OH275388   0.147   1.739  15.040 -0.1607  0.5027 -0.4716
17966TIP3    H175389   0.181   1.824  15.067  1.2754 -0.4593  0.8445
17966TIP3    H275390   0.096   1.708  15.115 -0.8531  0.3049 -1.0228
17967TIP3   OH275391   2.908   0.769   2.911  0.0607 -0.8867  0.6404
17967TIP3    H175392   2.874   0.854   2.937  0.4729 -0.1047 -1.2799
17967TIP3    H275393   3.003   0.777   2.921  0.0436 -1.4082  1.2580
17968TIP3   OH275394   2.252   1.594  16.574 -0.0679 -0.2785 -0.5730
17968TIP3    H175395   2.252   1.626  16.665 -0.7336 -0.8246 -0.3754
17968TIP3    H275396   2.205   1.662  16.525 -0.4566 -0.3885 -0.3571
17969TIP3   OH275397   2.181   5.786  14.811  0.3185 -0.3271 -0.2755
17969TIP3    H175398   2.258   5.821  14.766 -1.2607  2.7945 -0.6892
17969TIP3    H275399   2.187   5.821  14.900 -0.0771 -0.9239 -0.0090
17970TIP3   OH275400   4.140   4.476  15.481 -0.4785  0.1129  0.1593
17970TIP3    H175401   4.124   4.403  15.422 -3.1884 -0.0432  1.0276
17970TIP3    H275402   4.060   4.529  15.477 -0.0069  1.0696  2.3028
17971TIP3   OH275403   6.683   5.786  12.866  0.1386  0.0522 -0.1477
17971TIP3    H175404   6.726   5.837  12.934  2.5214 -0.1047 -1.4408
17971TIP3    H275405   6.697   5.836  12.786 -0.6010 -0.8799 -0.8785
17972TIP3   OH275406   3.208   3.173   6.195 -0.1070 -0.0198 -0.0976
17972TIP3    H175407   3.188   3.217   6.278  0.0187 -0.5257  0.2064
17972TIP3    H275408   3.213   3.080   6.219 -1.1850 -0.2877 -0.8753
17973TIP3   OH275409   6.586   5.607   4.498  0.2919  0.5756 -0.5403
17973TIP3    H175410   6.556   5.532   4.447  2.3905  1.4481 -3.1402
17973TIP3    H275411   6.514   5.625   4.559 -1.5034 -1.6265 -1.9471
17974TIP3   OH275412   6.249   5.769  10.909  0.1082  0.2751  0.0084
17974TIP3    H175413   6.232   5.853  10.953 -1.7151 -0.9353  1.6879
17974TIP3    H275414   6.344   5.762  10.907  0.2541  1.4572  1.6898
17975TIP3   OH275415   2.362   3.440  12.489  0.6192 -0.0314  0.0130
17975TIP3    H175416   2.438   3.422  12.434  0.5709 -0.1965 -0.0003
17975TIP3    H275417   2.399   3.451  12.577  0.4945 -1.7641  0.3020
17976TIP3   OH275418   1.143   6.564   2.203 -0.5661 -0.9832 -0.6200
17976TIP3    H175419   1.181   6.522   2.126 -2.7514 -0.0654 -2.2686
17976TIP3    H275420   1.124   6.492   2.263  0.9323 -1.7402 -1.0365
17977TIP3   OH275421   3.047   4.993   4.995 -0.1845  0.3055 -0.3516
17977TIP3    H175422   3.128   5.019   4.951  0.8349  0.6109  1.6343
17977TIP3    H275423   3.032   4.903   4.966  0.3750  0.5440 -1.4225
17978TIP3   OH275424   1.902   5.631   0.390  0.3916 -0.4631 -0.4864
17978TIP3    H175425   1.863   5.716   0.411  1.5965  0.4255 -1.7992
17978TIP3    H275426   1.993   5.650   0.368  0.4211 -1.9456 -1.7748
17979TIP3   OH275427   4.507   1.835  15.206  0.4736 -0.7216  0.6569
17979TIP3    H175428   4.412   1.835  15.198  0.5603  1.4749 -0.8203
17979TIP3    H275429   4.532   1.742  15.204 -1.7985 -1.4760  3.7169
17980TIP3   OH275430   1.459   1.363   3.538  0.2661 -0.1941 -0.1225
17980TIP3    H175431   1.488   1.373   3.448  1.3979  0.4380  0.2999
17980TIP3    H275432   1.492   1.278   3.565 -1.6891 -1.2259 -0.8836
17981TIP3   OH275433   2.854   2.579  13.092  0.1887 -0.6168  0.1979
17981TIP3    H175434   2.906   2.656  13.071  1.3469 -1.2332  0.7066
17981TIP3    H275435   2.912   2.505  13.073 -0.9221 -1.3591 -0.3365
17982TIP3   OH275436   4.461   4.142   0.631  0.3243 -0.3756 -0.1847
17982TIP3    H175437   4.470   4.049   0.649  0.5832 -0.5990 -1.4306
17982TIP3    H275438   4.535   4.163   0.574  0.0918  0.5169 -0.1648
17983TIP3   OH275439   6.291   6.532   1.377  0.5315 -0.1121 -0.2781
17983TIP3    H175440   6.247   6.455   1.341  0.1740  0.9808 -2.2991
17983TIP3    H275441   6.379   6.529   1.338  0.9071 -0.1363  0.5686
17984TIP3   OH275442   0.063   0.171   5.256 -0.1948  0.4003  0.2325
17984TIP3    H175443  -0.017   0.221   5.271  0.3001  0.8764  1.3639
17984TIP3    H275444   0.122   0.232   5.211 -0.8127 -0.2619 -1.4933
17985TIP3   OH275445   4.008   5.616  14.285  0.1564 -0.1778 -0.3259
17985TIP3    H175446   3.987   5.675  14.212  0.6457 -1.1838 -1.3002
17985TIP3    H275447   3.924   5.580  14.312 -0.0174  0.1404 -0.4425
17986TIP3   OH275448   0.248   5.820   3.216  0.1240  0.1538  0.7678
17986TIP3    H175449   0.203   5.748   3.261 -0.6795  1.1159  1.5048
17986TIP3    H275450   0.328   5.833   3.268  1.1837 -1.4076 -0.4163
17987TIP3   OH275451   0.276   3.550   0.870  0.1239  0.2974  0.1012
17987TIP3    H175452   0.325   3.498   0.935  0.3001  0.3132 -0.0181
17987TIP3    H275453   0.207   3.592   0.921 -0.3281 -0.4560  0.1113
17988TIP3   OH275454   1.176   1.850  15.353  0.2286  0.5069 -0.0982
17988TIP3    H175455   1.145   1.905  15.425  1.0013  2.0439 -0.9164
17988TIP3    H275456   1.146   1.762  15.376  0.4306  0.9734  2.0811
17989TIP3   OH275457   3.180   1.910  12.917 -0.0792  0.2521  0.0653
17989TIP3    H175458   3.103   1.883  12.867 -0.1854  0.4242  0.1336
17989TIP3    H275459   3.245   1.842  12.901  0.6927  1.4492 -2.1793
17990TIP3   OH275460   4.671   1.189  16.496  0.0042 -0.1531  0.1644
17990TIP3    H175461   4.717   1.272  16.480 -1.9321  0.6275 -1.6608
17990TIP3    H275462   4.695   1.133  16.422 -0.6542 -0.3087  0.0619
17991TIP3   OH275463   3.826   1.677   5.604  0.2361 -0.6845  0.8311
17991TIP3    H175464   3.897   1.726   5.645  0.8192 -1.3767  0.6744
17991TIP3    H275465   3.851   1.672   5.512 -0.6131  0.0862  0.5598
17992TIP3   OH275466   1.548   6.123   0.145 -0.3477 -0.9697 -0.2141
17992TIP3    H175467   1.513   6.080   0.223 -0.9248 -0.8244 -0.3935
17992TIP3    H275468   1.475   6.125   0.084 -0.6098  1.1227  0.1331
17993TIP3   OH275469   5.179   5.562  17.028 -0.4706 -0.0445  0.2654
17993TIP3    H175470   5.208   5.546  17.117 -0.5356 -2.1119 -0.0630
17993TIP3    H275471   5.216   5.647  17.006  0.6149 -0.0894  1.8187
17994TIP3   OH275472   4.701   5.226   6.295  0.0560  0.4037 -0.1159
17994TIP3    H175473   4.692   5.195   6.385  0.0742 -0.6867 -0.4737
17994TIP3    H275474   4.757   5.303   6.301 -0.4507  0.6949  0.8730
17995TIP3   OH275475   0.788   0.625  15.084  0.2001  0.4085 -0.1018
17995TIP3    H175476   0.825   0.640  15.171 -0.1277  0.5454  0.0169
17995TIP3    H275477   0.802   0.707  15.038  0.2533  0.3820 -0.1319
17996TIP3   OH275478   1.287   6.362  10.362  0.0893 -0.0541 -0.4596
17996TIP3    H175479   1.314   6.270  10.357 -0.8612 -0.7627  4.6558
17996TIP3    H275480   1.192   6.359  10.354  0.0622  0.5290 -0.3568
17997TIP3   OH275481   6.185   2.624  15.140  0.8377 -0.4312 -0.5200
17997TIP3    H175482   6.222   2.712  15.138 -0.5385  0.1214 -2.1629
17997TIP3    H275483   6.237   2.578  15.206  1.1280  1.7959  0.8429
17998TIP3   OH275484   2.266   0.527  13.592  0.1305  0.1037  0.4357
17998TIP3    H175485   2.261   0.579  13.512  5.0182  0.7527  0.3723
17998TIP3    H275486   2.269   0.436  13.561  2.2975  0.3627 -0.1765
17999TIP3   OH275487   0.136   5.108  17.285 -0.0633 -0.0439  0.0999
17999TIP3    H175488   0.185   5.054  17.347 -1.5073 -1.1126  0.3229
17999TIP3    H275489   0.133   5.194  17.327  0.8549 -0.1988  0.4931
18000TIP3   OH275490   2.078   4.529  11.252 -0.0767 -0.1789  0.0694
18000TIP3    H175491   2.165   4.562  11.230 -0.2901  1.1215  1.0774
18000TIP3    H275492   2.021   4.606  11.246 -0.7075 -0.4804  1.7470
18001TIP3   OH275493   5.204   6.211  11.998 -0.5038  0.1361 -0.0023
18001TIP3    H175494   5.239   6.263  11.926 -1.6241  1.2184  0.2139
18001TIP3    H275495   5.228   6.121  11.977  1.1244  0.6947 -0.5696
18002TIP3   OH275496   5.304   4.242   5.640  0.0394  0.8129 -0.3803
18002TIP3    H175497   5.225   4.294   5.658  0.0216 -0.3961  3.3459
18002TIP3    H275498   5.376   4.303   5.656 -0.0689  0.8093  0.1401
18003TIP3   OH275499   3.382   2.376  15.646  0.3794 -0.0054 -0.3541
18003TIP3    H175500   3.326   2.437  15.598  0.6483  0.5684  0.0539
18003TIP3    H275501   3.444   2.432  15.693  0.1943 -0.5624  0.5658
18004TIP3   OH275502   4.385   2.577   5.953  0.1395  0.2579  0.1720
18004TIP3    H175503   4.445   2.505   5.932 -0.7936 -1.4191  3.0438
18004TIP3    H275504   4.314   2.569   5.890  0.5296 -0.7278 -0.1429
18005TIP3   OH275505   4.811   5.166  11.049  0.4295  0.4737 -0.4088
18005TIP3    H175506   4.722   5.194  11.071  1.3547  1.4527  2.2889
18005TIP3    H275507   4.799   5.086  10.998 -1.9599 -0.7055  1.8795
18006TIP3   OH275508   0.102   2.999  15.613  0.4272 -0.2722 -0.0737
18006TIP3    H175509   0.194   3.021  15.632 -0.2240  1.1251  1.5513
18006TIP3    H275510   0.091   2.911  15.650  0.5924  0.3631  1.5638
18007TIP3   OH275511   0.780   5.034  11.391 -0.0019 -0.2674  0.3568
18007TIP3    H175512   0.856   5.009  11.339  0.1154 -0.2134  0.5032
18007TIP3    H275513   0.815   5.090  11.460 -0.1698 -0.2653  0.4414
18008TIP3   OH275514   4.745   2.319   6.287 -0.3630  0.2799 -0.3012
18008TIP3    H175515   4.690   2.318   6.365  0.2266 -1.2860  0.0928
18008TIP3    H275516   4.807   2.390   6.303  0.5475 -0.8480  1.2023
18009TIP3   OH275517   3.875   6.753  16.559  0.0926 -0.3441  0.0388
18009TIP3    H175518   3.914   6.840  16.560 -0.2576 -0.1801 -0.2484
18009TIP3    H275519   3.797   6.761  16.615 -0.6102 -0.1467 -0.9506
18010TIP3   OH275520   1.126   5.716   4.142  0.0989  0.2824  0.4461
18010TIP3    H175521   1.216   5.686   4.154 -0.1249 -0.1548  1.0456
18010TIP3    H275522   1.131   5.778   4.070  0.8434  0.0706  0.3109
18011TIP3   OH275523   5.246   4.864   5.157  0.4210 -0.5003  0.8126
18011TIP3    H175524   5.176   4.813   5.198  0.6117 -1.8501 -0.4826
18011TIP3    H275525   5.273   4.811   5.081 -0.0173  1.9717 -1.1297
18012TIP3   OH275526   1.325   5.529   2.570  1.1515 -0.4143  0.5895
18012TIP3    H175527   1.378   5.483   2.504  1.8224  1.2269 -0.0561
18012TIP3    H275528   1.372   5.612   2.584 -1.0723  0.9404  0.2433
18013TIP3   OH275529   4.017   0.083  16.970 -0.1224 -0.2731 -0.2007
18013TIP3    H175530   4.074   0.037  17.031 -1.9397 -2.0499  0.2480
18013TIP3    H275531   4.046   0.173  16.972  1.8929 -0.9236  0.8928
18014TIP3   OH275532   4.915   0.907  16.910 -0.2767 -0.1826 -0.4772
18014TIP3    H175533   5.001   0.947  16.899 -0.4280 -0.4065 -2.8365
18014TIP3    H275534   4.857   0.958  16.853 -1.0410 -1.9889 -1.3614
18015TIP3   OH275535   5.863   4.990   0.619 -0.4073 -0.0681  0.9111
18015TIP3    H175536   5.808   5.069   0.626 -1.5698 -0.8782  1.0264
18015TIP3    H275537   5.942   5.020   0.575 -1.0673  1.0611  0.4700
18016TIP3   OH275538   5.447   2.097   5.548 -0.3381 -0.2987 -0.1722
18016TIP3    H175539   5.452   2.177   5.600  1.0189 -0.1432 -0.5125
18016TIP3    H275540   5.362   2.059   5.569 -0.5057  0.6397  0.8703
18017TIP3   OH275541   1.381   5.847  13.036  0.0945 -0.3271  0.0725
18017TIP3    H175542   1.386   5.781  12.966  1.4175 -0.4297  0.2417
18017TIP3    H275543   1.433   5.920  13.003 -2.2095  1.0838 -0.5489
18018TIP3   OH275544   6.173   3.856  13.170 -0.0995  0.0847 -0.0514
18018TIP3    H175545   6.130   3.798  13.232 -1.7975  1.4392  0.0714
18018TIP3    H275546   6.260   3.872  13.208  0.4130 -2.3756 -0.1251
18019TIP3   OH275547   6.096   0.517  15.820  0.4480  0.0328  0.0738
18019TIP3    H175548   6.063   0.434  15.855  1.0960 -0.8300 -1.3301
18019TIP3    H275549   6.017   0.568  15.801  0.0591 -0.0848  1.2960
18020TIP3   OH275550   4.259   6.449   4.627 -0.1450  0.1130  0.2734
18020TIP3    H175551   4.317   6.373   4.629  0.3394  0.3498 -2.9703
18020TIP3    H275552   4.284   6.500   4.704  0.6829 -2.1539  1.5412
18021TIP3   OH275553   5.995   2.482  14.711  0.1607 -0.2992  0.6662
18021TIP3    H175554   6.051   2.558  14.726  1.8087 -1.4369  0.3419
18021TIP3    H275555   6.005   2.429  14.790 -1.5229  0.1282  1.1895
18022TIP3   OH275556   3.962   0.741   2.736 -0.4147  0.0297 -0.5187
18022TIP3    H175557   4.006   0.703   2.660 -0.9245 -1.5048 -0.0747
18022TIP3    H275558   4.034   0.767   2.794  0.0288  2.8154 -2.2345
18023TIP3   OH275559   4.815   5.523  10.331  0.9516 -0.2175 -0.1134
18023TIP3    H175560   4.749   5.592  10.331  1.6367  0.4483 -0.5972
18023TIP3    H275561   4.869   5.541  10.408  0.5053 -0.8240  0.3418
18024TIP3   OH275562   5.024   2.679  14.045  0.0108  0.2450 -0.3599
18024TIP3    H175563   5.119   2.682  14.034  0.1116  0.3251  0.5414
18024TIP3    H275564   4.990   2.737  13.976  0.6680  1.1031  0.0377
18025TIP3   OH275565   0.795   2.591   2.282  0.2277 -0.1116 -0.0191
18025TIP3    H175566   0.782   2.496   2.275  1.1639 -0.3172  1.0303
18025TIP3    H275567   0.880   2.606   2.240 -0.1154  0.3203 -0.5615
18026TIP3   OH275568   0.462   6.200   1.188 -0.1671 -0.2474 -0.2228
18026TIP3    H175569   0.489   6.254   1.263  0.0505 -0.0286 -0.4622
18026TIP3    H275570   0.521   6.126   1.190 -0.1591 -0.2404 -0.1832
18027TIP3   OH275571   4.622   3.974   3.366 -0.1197 -0.6739  0.1583
18027TIP3    H175572   4.571   4.032   3.423  0.1326  1.1796 -1.4568
18027TIP3    H275573   4.713   3.988   3.394 -0.1239 -0.8053  0.2352
18028TIP3   OH275574   6.704   5.145  14.225  0.3302 -0.1604 -0.5051
18028TIP3    H175575   6.785   5.132  14.177  1.7091 -1.0378  1.9481
18028TIP3    H275576   6.672   5.230  14.196  0.2233 -1.3807 -4.1368
18029TIP3   OH275577   5.532   5.737   4.522 -0.2468 -0.1249  0.1884
18029TIP3    H175578   5.595   5.807   4.505  1.1481 -1.5121 -0.4303
18029TIP3    H275579   5.501   5.711   4.435  2.4039 -3.1312  0.0730
18030TIP3   OH275580   6.083   1.444   6.884 -0.5506  0.8069 -0.0359
18030TIP3    H175581   6.140   1.382   6.930 -0.4970  0.6032 -0.3761
18030TIP3    H275582   5.995   1.419   6.910 -0.5681  0.1378 -0.7250
18031TIP3   OH275583   6.034   5.177   1.037 -0.0278 -1.2224 -0.2014
18031TIP3    H175584   6.103   5.127   1.080 -0.4941 -1.3429  0.4221
18031TIP3    H275585   5.993   5.226   1.108 -1.2492 -1.9439 -0.4046
18032TIP3   OH275586   1.401   6.587  11.615  0.2629 -0.1994  0.1382
18032TIP3    H175587   1.401   6.512  11.555 -0.2055  0.1909 -0.3601
18032TIP3    H275588   1.310   6.617  11.615  0.4553  0.3787  0.3247
18033TIP3   OH275589   2.179   2.328  14.058  0.2754  1.0181  0.1862
18033TIP3    H175590   2.241   2.261  14.089  0.0420  0.9122  0.4296
18033TIP3    H275591   2.093   2.288  14.070  0.1450  1.2785  0.1231
18034TIP3   OH275592   6.447   1.557  14.326  0.2010  0.3298 -0.1011
18034TIP3    H175593   6.511   1.524  14.263 -1.5618  1.4265 -2.5545
18034TIP3    H275594   6.386   1.484  14.339  0.4819  0.1523  0.2137
18035TIP3   OH275595   2.060   6.686  16.493  0.5526 -0.2894  0.0029
18035TIP3    H175596   1.974   6.647  16.511  0.3099  0.5485  0.7008
18035TIP3    H275597   2.048   6.734  16.412  0.5694 -0.7956 -0.3027
18036TIP3   OH275598   5.609   0.717  11.344 -0.0172 -0.5988  0.1776
18036TIP3    H175599   5.635   0.685  11.258 -1.0646 -1.0267  0.0036
18036TIP3    H275600   5.625   0.811  11.342  0.2156 -0.6511 -0.3859
18037TIP3   OH275601   0.622   6.591   0.180  0.3025  0.5840  0.3974
18037TIP3    H175602   0.667   6.510   0.202  0.7806  0.6106 -0.4190
18037TIP3    H275603   0.687   6.660   0.198  0.4859  0.6482 -0.4830
18038TIP3   OH275604   6.191   3.595  12.374  0.4873 -0.5061 -0.5325
18038TIP3    H175605   6.168   3.508  12.408 -0.7457  0.2498  0.6336
18038TIP3    H275606   6.237   3.638  12.447 -1.5016  0.8583 -0.0343
18039TIP3   OH275607   5.928   2.982  10.570  0.2851 -0.3347 -0.0185
18039TIP3    H175608   5.835   2.981  10.592  0.0927  0.0275 -0.8171
18039TIP3    H275609   5.972   3.001  10.653 -0.3332 -0.8065  0.4197
18040TIP3   OH275610   6.626   5.609  16.518 -0.3454  0.0323 -0.9247
18040TIP3    H175611   6.638   5.514  16.509 -1.9123 -0.3136  0.4467
18040TIP3    H275612   6.620   5.640  16.428  0.4753 -1.1354 -1.4046
18041TIP3   OH275613   2.092   6.087  12.560 -0.2716  0.3783 -0.5309
18041TIP3    H175614   2.081   6.030  12.637 -0.6831  0.0072 -0.8611
18041TIP3    H275615   2.162   6.046  12.510 -1.3696 -0.5235 -1.3739
18042TIP3   OH275616   0.949   2.604  11.235 -0.1978 -0.2333  0.0534
18042TIP3    H175617   0.916   2.671  11.175  0.7091  0.9859  0.8925
18042TIP3    H275618   0.881   2.536  11.234 -1.8375  1.3461  0.2825
18043TIP3   OH275619   3.985   4.808   0.859 -0.8063 -0.2991  0.1200
18043TIP3    H175620   4.075   4.841   0.857 -0.9055  0.1892  2.1876
18043TIP3    H275621   3.934   4.872   0.809 -0.3267  0.5056  0.6566
18044TIP3   OH275622   4.647   1.562   3.578  0.1540  0.3010  0.5365
18044TIP3    H175623   4.602   1.617   3.641 -1.4223 -1.1344  0.6765
18044TIP3    H275624   4.680   1.624   3.512  1.8160  1.8076  2.6999
18045TIP3   OH275625   6.376   3.198   0.523 -0.2056  0.4780  0.0681
18045TIP3    H175626   6.341   3.264   0.583  1.2210  0.9864  0.3701
18045TIP3    H275627   6.469   3.222   0.513  0.1079 -0.9498 -0.5360
18046TIP3   OH275628   1.638   0.816   1.501 -0.3588  0.1504 -0.3018
18046TIP3    H175629   1.716   0.845   1.548  1.6689 -0.2032 -3.3415
18046TIP3    H275630   1.584   0.895   1.494  1.2807  1.2193 -1.1258
18047TIP3   OH275631   5.720   5.485   1.990 -0.1844 -0.3243 -0.4624
18047TIP3    H175632   5.664   5.425   1.940 -0.5769 -0.7788  0.5256
18047TIP3    H275633   5.807   5.475   1.950  0.1706 -2.9193  0.8659
18048TIP3   OH275634   5.316   5.213   0.154 -0.3621  0.1606  0.2161
18048TIP3    H175635   5.282   5.303   0.154  0.0979  0.3533 -1.1675
18048TIP3    H275636   5.411   5.223   0.150 -0.3380 -0.3691 -0.9641
18049TIP3   OH275637   5.637   5.829   5.759 -0.1162  0.3175  0.0380
18049TIP3    H175638   5.697   5.897   5.790 -0.5811  0.8083 -0.1362
18049TIP3    H275639   5.693   5.765   5.717  0.3632  0.4138  0.5214
18050TIP3   OH275640   4.687   3.311  10.773 -0.2819  0.3840  0.0170
18050TIP3    H175641   4.735   3.271  10.700 -0.2755 -0.7892  0.6542
18050TIP3    H275642   4.755   3.333  10.837 -0.3576  0.8171 -0.0503
18051TIP3   OH275643   4.943   6.236   2.997 -0.0368  0.5192  0.3847
18051TIP3    H175644   5.026   6.195   3.020 -0.9764 -0.3351  2.4014
18051TIP3    H275645   4.883   6.210   3.067 -1.6869  2.1396 -0.3758
18052TIP3   OH275646   6.109   2.886   2.981  0.6256 -0.9017 -0.0519
18052TIP3    H175647   6.050   2.829   2.932  1.0440 -2.2364  0.9357
18052TIP3    H275648   6.089   2.974   2.951 -1.3125 -1.4021 -0.2995
18053TIP3   OH275649   1.023   0.352   4.382  0.2461 -0.5129  0.4214
18053TIP3    H175650   1.117   0.367   4.374  0.4337  0.2357  3.5904
18053TIP3    H275651   0.987   0.436   4.413 -1.6224 -0.4925 -1.6660
18054TIP3   OH275652   0.526   6.472  13.627  0.2293 -0.3607  0.1599
18054TIP3    H175653   0.549   6.565  13.638 -1.3912 -0.0362  0.9556
18054TIP3    H275654   0.540   6.434  13.714 -0.4157 -0.5793  0.1627
18055TIP3   OH275655   0.058   3.881   1.809  0.2122  0.4599 -0.0243
18055TIP3    H175656   0.059   3.932   1.728 -1.5917  0.0568 -0.3254
18055TIP3    H275657   0.087   3.794   1.784 -1.6746 -0.0481 -0.5405
18056TIP3   OH275658   1.716   2.295   0.383  0.3438 -0.4844  0.1432
18056TIP3    H175659   1.797   2.263   0.423  1.2057  1.1627 -0.2257
18056TIP3    H275660   1.743   2.373   0.335 -1.8386  1.4337  1.8939
18057TIP3   OH275661   0.253   1.846  12.707  0.2132  0.8912 -0.2671
18057TIP3    H175662   0.161   1.870  12.715 -0.0858 -0.0118 -0.8695
18057TIP3    H275663   0.301   1.926  12.726 -0.7541  2.0348 -2.4770
18058TIP3   OH275664   6.650   3.414  15.105  0.1143 -0.0857  0.2771
18058TIP3    H175665   6.565   3.450  15.080 -0.1551  1.4157  3.0881
18058TIP3    H275666   6.713   3.469  15.060 -0.3858 -0.3285 -0.7304
18059TIP3   OH275667   6.071   6.697  13.227  0.0062 -0.0742 -0.5738
18059TIP3    H175668   6.056   6.652  13.144 -0.4442 -2.5737  0.8151
18059TIP3    H275669   6.011   6.772  13.224 -1.2937 -1.1270 -1.7447
18060TIP3   OH275670   2.739   4.836   2.958 -0.6928 -0.1730  0.3601
18060TIP3    H175671   2.711   4.746   2.979 -1.9784 -0.4038 -2.2398
18060TIP3    H275672   2.724   4.845   2.864  3.4413  1.3547 -0.2632
18061TIP3   OH275673   2.651   6.228  13.650  0.2331  0.3634 -0.2566
18061TIP3    H175674   2.689   6.151  13.693 -1.1746 -0.6104 -0.7069
18061TIP3    H275675   2.622   6.196  13.564 -1.4039  1.0955 -0.0128
18062TIP3   OH275676   4.802   3.597  12.197  0.3118  0.3233  0.0756
18062TIP3    H175677   4.726   3.654  12.191  0.1245 -0.1935 -3.5520
18062TIP3    H275678   4.775   3.526  12.255 -1.9810  0.2000 -1.0791
18063TIP3   OH275679   2.602   5.783   0.566  0.3353 -0.0343  0.0273
18063TIP3    H175680   2.560   5.700   0.542 -0.3319 -0.1052  1.3872
18063TIP3    H275681   2.531   5.837   0.599  0.6565  1.3588 -1.5208
18064TIP3   OH275682   3.230   1.877  16.299  0.5906  0.0549 -0.9357
18064TIP3    H175683   3.143   1.916  16.310  0.0704 -1.6070  1.0661
18064TIP3    H275684   3.266   1.873  16.387  2.3545 -0.0743 -1.6440
18065TIP3   OH275685   3.240   3.302  15.638  0.7158 -0.3346  0.8049
18065TIP3    H175686   3.166   3.363  15.629  1.8806  1.0507  0.4281
18065TIP3    H275687   3.256   3.271  15.548  1.6799  0.6777  0.6248
18066TIP3   OH275688   2.497   3.727  14.708 -0.3284 -0.0429 -0.1882
18066TIP3    H175689   2.587   3.718  14.678  1.0881 -1.8929  4.2096
18066TIP3    H275690   2.454   3.646  14.679 -0.2078  0.1960 -1.0477
18067TIP3   OH275691   2.847   2.432   0.771 -0.3924 -0.2178  0.2973
18067TIP3    H175692   2.773   2.461   0.824 -0.3617  1.7591 -0.6960
18067TIP3    H275693   2.899   2.511   0.757  0.7583 -1.1580 -0.8261
18068TIP3   OH275694   5.450   2.944  12.406  0.4211  0.3998  0.3286
18068TIP3    H175695   5.379   2.887  12.378  0.8624  0.8480 -1.8517
18068TIP3    H275696   5.516   2.885  12.443  0.0674 -0.3051 -0.1587
18069TIP3   OH275697   0.699   2.905   0.875  0.1486  0.4324  0.4241
18069TIP3    H175698   0.773   2.849   0.854  0.2113  0.6509  0.0504
18069TIP3    H275699   0.647   2.855   0.938  0.8714  0.4776  1.0686
18070TIP3   OH275700   2.484   4.365   3.485 -0.0721  0.1695 -0.4003
18070TIP3    H175701   2.573   4.401   3.482  0.8397 -2.0828 -1.2229
18070TIP3    H275702   2.435   4.427   3.539  1.9482  1.5418 -0.0951
18071TIP3   OH275703   5.182   3.126  16.747  0.0815 -0.3529  0.1474
18071TIP3    H175704   5.087   3.119  16.758  0.1011 -0.4573  0.2509
18071TIP3    H275705   5.195   3.124  16.652 -0.0662  0.2413  0.1118
18072TIP3   OH275706   5.985   4.018  16.283  0.3644  0.0911 -0.1478
18072TIP3    H175707   6.070   3.991  16.319 -0.4928 -0.4933  1.5411
18072TIP3    H275708   5.986   4.113  16.287  0.0694  0.0325  2.0878
18073TIP3   OH275709   4.117   3.408   5.081  0.4676  0.1404  0.2049
18073TIP3    H175710   4.092   3.383   5.170 -0.4500  1.3085  0.2973
18073TIP3    H275711   4.191   3.467   5.092  1.3342 -0.9276  0.1045
18074TIP3   OH275712   1.691   0.394   4.216  0.1874 -0.5227  0.1962
18074TIP3    H175713   1.661   0.336   4.146  0.4207 -0.1818 -0.1880
18074TIP3    H275714   1.622   0.461   4.223  1.6143  1.2488 -1.8520
18075TIP3   OH275715   0.385   5.364  10.501 -0.3524 -0.6130  0.8389
18075TIP3    H175716   0.397   5.278  10.540  0.7836 -0.5699  0.6255
18075TIP3    H275717   0.429   5.424  10.562 -1.1281 -0.1847  0.9824
18076TIP3   OH275718   0.668   4.482  11.070 -0.6824  0.3131  0.5105
18076TIP3    H175719   0.710   4.433  11.141 -1.5125 -0.0127  0.7773
18076TIP3    H275720   0.718   4.459  10.992 -1.2533 -1.1991  0.5738
18077TIP3   OH275721   4.852   0.096  16.201  0.2203  0.0365  0.0342
18077TIP3    H175722   4.862   0.171  16.260  1.0656 -0.0539  0.0175
18077TIP3    H275723   4.824   0.025  16.258  2.4770 -0.4338  0.6105
18078TIP3   OH275724   6.753   4.264   0.980 -0.0998  0.2767  0.0128
18078TIP3    H175725   6.697   4.186   0.986  1.8628 -1.1419  0.5086
18078TIP3    H275726   6.709   4.329   1.034 -1.6011 -0.5939 -0.1166
18079TIP3   OH275727   3.601   3.770  11.423 -0.1664 -0.2870  0.4523
18079TIP3    H175728   3.579   3.831  11.352  1.6739 -0.1036  0.0070
18079TIP3    H275729   3.521   3.762  11.474 -1.5536 -0.5524 -1.7529
18080TIP3   OH275730   3.194   3.473  11.147 -0.1161  0.2700  0.6795
18080TIP3    H175731   3.156   3.509  11.067 -0.6392  0.1874  0.8892
18080TIP3    H275732   3.228   3.388  11.120  0.0579  0.4083  0.4565
18081TIP3   OH275733   6.118   6.322  14.240  0.4563 -0.7229 -0.6160
18081TIP3    H175734   6.155   6.305  14.153  0.4983 -0.5227 -0.6355
18081TIP3    H275735   6.128   6.239  14.286  1.5394 -0.4735 -0.3986
18082TIP3   OH275736   5.010   4.539   0.700 -0.0496  0.1569 -0.8845
18082TIP3    H175737   4.947   4.570   0.634 -0.0724 -0.7983 -1.3154
18082TIP3    H275738   4.955   4.518   0.776 -0.3918 -1.6506 -1.6046
18083TIP3   OH275739   4.940   2.544  11.091 -0.1094  0.6087 -0.5018
18083TIP3    H175740   4.934   2.639  11.105  1.9633  0.6132  0.5721
18083TIP3    H275741   5.031   2.523  11.111 -0.8536 -1.8125  0.4907
18084TIP3   OH275742   3.406   4.613   4.061  0.1577  0.0722  0.0239
18084TIP3    H175743   3.368   4.628   4.148 -0.0175 -0.6801  0.0839
18084TIP3    H275744   3.337   4.639   4.000 -0.3303 -0.9497  0.1293
18085TIP3   OH275745   4.753   5.914  15.800 -0.2257 -0.0514 -0.2066
18085TIP3    H175746   4.848   5.919  15.793 -0.2763  0.0713 -0.7526
18085TIP3    H275747   4.735   5.936  15.892  0.5010 -3.1265  0.7343
18086TIP3   OH275748   3.295   0.794   5.419  0.1415 -0.2728  0.4318
18086TIP3    H175749   3.219   0.848   5.441  0.6206  0.0807  1.2100
18086TIP3    H275750   3.289   0.719   5.478  1.0511  0.3405  1.3012
18087TIP3   OH275751   0.384   1.188  16.950  0.9097 -0.4621 -0.5543
18087TIP3    H175752   0.337   1.269  16.968 -1.0845 -1.9979  1.4513
18087TIP3    H275753   0.464   1.194  17.001  0.2245 -0.2333  0.5030
18088TIP3   OH275754   1.144   0.039  14.830 -0.2808 -0.1163  0.2009
18088TIP3    H175755   1.151  -0.044  14.877 -0.7963 -0.4627 -0.3399
18088TIP3    H275756   1.204   0.098  14.877  0.5617 -0.9683  0.1972
18089TIP3   OH275757   0.383   3.720   4.593  0.2971  0.6619  0.6268
18089TIP3    H175758   0.380   3.754   4.682 -0.0836  0.7238  0.5924
18089TIP3    H275759   0.475   3.722   4.569  0.3608  0.9720  0.8960
18090TIP3   OH275760   3.612   6.209  13.909 -0.0193 -0.1380 -0.1217
18090TIP3    H175761   3.590   6.165  13.827 -0.0203  0.5780 -0.5071
18090TIP3    H275762   3.557   6.287  13.910 -0.0243 -0.1502  0.5660
18091TIP3   OH275763   3.775   3.105   3.097 -0.0190  0.1090 -0.2982
18091TIP3    H175764   3.782   3.162   3.174 -1.2214  1.1597 -0.9436
18091TIP3    H275765   3.826   3.028   3.120 -2.2794 -0.6342  2.5198
18092TIP3   OH275766   2.727   6.222  11.059  0.6839  0.2284 -0.1830
18092TIP3    H175767   2.770   6.136  11.057 -0.5838 -0.4416  0.7823
18092TIP3    H275768   2.800   6.285  11.063  1.5968 -0.8752  1.0312
18093TIP3   OH275769   1.719   5.405  13.400 -0.1586  0.6480  0.5734
18093TIP3    H175770   1.782   5.392  13.329  0.0053 -0.2654  0.8834
18093TIP3    H275771   1.762   5.368  13.477 -1.4861 -0.8566  0.6002
18094TIP3   OH275772   1.824   1.165   2.874  0.0154 -0.1278 -0.2652
18094TIP3    H175773   1.733   1.149   2.899 -0.5411  1.8929 -0.9398
18094TIP3    H275774   1.869   1.180   2.957  0.0573 -2.5640  0.1918
18095TIP3   OH275775   5.352   3.486  14.848  0.0654  0.6613  0.0204
18095TIP3    H175776   5.429   3.537  14.873  0.1372  0.6528 -0.1820
18095TIP3    H275777   5.381   3.395  14.850 -0.1846  0.5953  0.8201
18096TIP3   OH275778   2.443   0.208   2.785 -0.0739 -0.7242 -0.5740
18096TIP3    H175779   2.399   0.241   2.864  0.6100 -0.1446 -0.4216
18096TIP3    H275780   2.438   0.113   2.792  0.1248 -0.6769  0.2576
18097TIP3   OH275781   3.183   3.348   5.629 -0.5612 -0.3352 -0.2367
18097TIP3    H175782   3.096   3.386   5.645 -0.9121 -0.8241 -0.9496
18097TIP3    H275783   3.215   3.394   5.552 -0.5378 -0.7274 -0.4643
18098TIP3   OH275784   4.631   4.531  17.040 -0.7030  0.7045  0.2817
18098TIP3    H175785   4.722   4.532  17.011 -1.5445  0.1592 -2.5634
18098TIP3    H275786   4.590   4.603  16.991 -1.3674  2.3902  3.1866
18099TIP3   OH275787   2.698   0.366   2.125 -0.5400 -0.4267 -0.2419
18099TIP3    H175788   2.732   0.368   2.035  0.0846 -1.9576 -0.0598
18099TIP3    H275789   2.622   0.424   2.124  0.8270  1.3853 -1.1906
18100TIP3   OH275790   4.593   6.096   5.338 -0.4735 -0.0912 -0.1109
18100TIP3    H175791   4.569   6.110   5.429 -0.8745 -0.7164 -0.1178
18100TIP3    H275792   4.630   6.179   5.310 -0.6419  0.2022  0.5315
18101TIP3   OH275793   2.578   4.157  13.008 -0.2893  0.2685 -0.1770
18101TIP3    H175794   2.650   4.099  13.033 -1.2331 -0.0827  1.8212
18101TIP3    H275795   2.501   4.100  13.005 -0.4341  0.5241 -2.8563
18102TIP3   OH275796   4.776   2.365   4.679  0.0931  1.1962 -0.6117
18102TIP3    H175797   4.860   2.322   4.665  0.0737  1.0505 -0.2757
18102TIP3    H275798   4.762   2.416   4.599  1.3299  2.6252  0.0639
18103TIP3   OH275799   5.563   4.208  16.108  0.1656 -0.0451  0.1613
18103TIP3    H175800   5.581   4.114  16.116 -0.5552 -0.3337 -1.4214
18103TIP3    H275801   5.471   4.217  16.132 -0.4375 -0.1084 -2.0291
18104TIP3   OH275802   2.509   2.769  11.827 -0.3268  0.5514  0.1636
18104TIP3    H175803   2.580   2.783  11.891  0.3439  0.5884 -0.5775
18104TIP3    H275804   2.505   2.674  11.816  0.7710  0.6337 -1.0706
18105TIP3   OH275805   2.267   6.132   6.553  0.3763 -0.6698  0.0066
18105TIP3    H175806   2.226   6.167   6.474  0.4601 -0.4433  0.0626
18105TIP3    H275807   2.194   6.095   6.603  0.0923  0.5851  0.5517
18106TIP3   OH275808   6.035   1.334  13.513  0.3642 -0.5837 -0.3139
18106TIP3    H175809   6.001   1.325  13.602  1.4784  0.1177  0.1900
18106TIP3    H275810   6.008   1.253  13.469  0.9592 -1.5579  1.0520
18107TIP3   OH275811   2.764   3.978  16.936  0.0473  0.0569 -0.0741
18107TIP3    H175812   2.771   3.923  16.858 -0.2937 -0.6560  0.3946
18107TIP3    H275813   2.712   4.053  16.908  0.2569 -0.0052 -0.6328
18108TIP3   OH275814   1.223   0.801   1.148  0.2434  0.7719  0.2405
18108TIP3    H175815   1.203   0.711   1.124  0.1181  0.6920  0.6441
18108TIP3    H275816   1.260   0.795   1.236  0.8087  1.0537  0.0300
18109TIP3   OH275817   3.111   1.416   4.507 -1.1339  0.5903 -0.3611
18109TIP3    H175818   3.204   1.441   4.511 -0.3638 -2.1361 -0.5696
18109TIP3    H275819   3.088   1.395   4.598 -1.2363  0.1291 -0.4961
18110TIP3   OH275820   1.588   1.036   4.249 -0.0642 -0.4644 -0.0008
18110TIP3    H175821   1.640   1.028   4.169 -1.9878 -0.3759 -1.2754
18110TIP3    H275822   1.520   0.970   4.241 -2.2444  1.6949  0.0206
18111TIP3   OH275823   1.930   5.804  15.453  0.2495  0.1322 -0.1549
18111TIP3    H175824   1.911   5.710  15.447 -0.9961  0.2289  1.7772
18111TIP3    H275825   1.883   5.843  15.379 -0.1715 -0.6369 -0.2979
18112TIP3   OH275826   5.908   5.356   1.234  0.1951  0.4625 -0.5690
18112TIP3    H175827   5.878   5.420   1.169  2.2382  0.7819 -1.2586
18112TIP3    H275828   5.983   5.398   1.276 -0.0979 -0.4153  0.8637
18113TIP3   OH275829   1.455   3.513  14.626 -0.0813  0.3475  0.7720
18113TIP3    H175830   1.456   3.608  14.631  1.4523  0.3070  1.7494
18113TIP3    H275831   1.380   3.487  14.680 -1.0321  1.0219 -0.2141
18114TIP3   OH275832   1.948   4.776  14.346 -0.4672 -0.9155 -0.0467
18114TIP3    H175833   1.928   4.789  14.439 -0.6212  0.9136 -0.3061
18114TIP3    H275834   1.864   4.751  14.308 -0.0254 -3.4710  0.5897
18115TIP3   OH275835   6.305   0.654  12.512 -0.4080  0.3371  0.3932
18115TIP3    H175836   6.223   0.701  12.523 -1.1042 -0.2021 -2.0250
18115TIP3    H275837   6.288   0.593  12.439  1.4694 -1.2948  1.2528
18116TIP3   OH275838   3.372   4.480  12.486  0.2325  0.4230  0.2609
18116TIP3    H175839   3.324   4.467  12.403  0.1930  1.0704  0.1849
18116TIP3    H275840   3.452   4.429  12.475 -0.2426 -0.3401  0.2285
18117TIP3   OH275841   0.002   3.218  15.783  0.0268  0.1088  0.4443
18117TIP3    H175842  -0.089   3.189  15.789  0.1525 -0.3888 -0.0452
18117TIP3    H275843   0.040   3.165  15.713  1.0630 -0.6031  1.5347
18118TIP3   OH275844   2.082   6.401  16.385  0.3587  0.2390 -0.0518
18118TIP3    H175845   2.013   6.463  16.406  0.9923  0.5537  1.1860
18118TIP3    H275846   2.163   6.450  16.396  0.8031 -0.2514 -1.0399
18119TIP3   OH275847   2.934   3.393   4.306 -0.5870  0.2193  0.3907
18119TIP3    H175848   2.859   3.341   4.336 -0.2256  0.2011  1.2447
18119TIP3    H275849   2.894   3.470   4.265 -1.0924 -0.1953  0.0871
18120TIP3   OH275850   0.435   0.618   2.608 -0.1008  0.6667  0.4317
18120TIP3    H175851   0.514   0.609   2.555 -0.2178 -1.6329  0.5994
18120TIP3    H275852   0.395   0.700   2.578  0.2659 -0.1443 -2.4308
18121TIP3   OH275853   2.480   4.703  16.828 -0.1699 -0.3664  0.1433
18121TIP3    H175854   2.449   4.620  16.790 -0.2280 -0.3124  0.0727
18121TIP3    H275855   2.420   4.720  16.900 -0.7326  0.1025 -0.4284
18122TIP3   OH275856   5.105   1.399   5.974 -0.2448  0.4189 -0.3509
18122TIP3    H175857   5.024   1.449   5.972  0.9840  2.4454 -0.3947
18122TIP3    H275858   5.097   1.343   6.051 -0.8800  1.9806  0.7387
18123TIP3   OH275859   1.075   6.792   4.448  0.8411 -0.1812 -0.4697
18123TIP3    H175860   1.153   6.845   4.463  1.1537  0.0524 -2.6916
18123TIP3    H275861   1.046   6.817   4.360 -0.8010 -1.4357 -0.3072
18124TIP3   OH275862   6.759   5.379  17.186 -0.2825 -0.1187 -0.4322
18124TIP3    H175863   6.747   5.284  17.183 -0.3911 -0.1137 -0.2331
18124TIP3    H275864   6.693   5.409  17.249  0.5928 -0.0491  0.4698
18125TIP3   OH275865   0.253   4.306   3.936 -0.7015  0.3294 -0.1204
18125TIP3    H175866   0.206   4.374   3.984  0.0096  0.1888  0.7908
18125TIP3    H275867   0.230   4.321   3.844 -2.7394  0.0810  0.3401
18126TIP3   OH275868   2.206   6.518  13.104  0.1263  0.5099 -0.2701
18126TIP3    H175869   2.206   6.590  13.042 -0.7848 -0.0410 -0.9116
18126TIP3    H275870   2.146   6.545  13.173  1.9897  1.6147  0.9741
18127TIP3   OH275871   6.036   6.721   3.420 -0.1243 -0.3081 -0.2538
18127TIP3    H175872   5.965   6.659   3.438  1.6093 -2.7288 -1.3187
18127TIP3    H275873   6.067   6.748   3.507 -0.9295 -0.9459  0.2425
18128TIP3   OH275874   3.475   2.694  15.954  0.5460  0.1438  0.2067
18128TIP3    H175875   3.543   2.740  16.002  0.3242 -0.2935  0.9502
18128TIP3    H275876   3.497   2.707  15.862  1.2591  0.5564  0.4351
18129TIP3   OH275877   6.108   0.126  12.708  0.1047 -0.5309 -0.4057
18129TIP3    H175878   6.194   0.167  12.716 -0.4743  0.5331  0.5192
18129TIP3    H275879   6.119   0.039  12.746  0.4882  0.0438  0.8502
18130TIP3   OH275880   0.712   2.420  12.913  0.2155 -0.7634  0.4334
18130TIP3    H175881   0.685   2.465  12.994  0.2769 -2.2095  1.2747
18130TIP3    H275882   0.723   2.328  12.939  0.5390 -1.1904 -1.1559
18131TIP3   OH275883   2.821   1.969   1.753  0.4631  0.4738 -0.4559
18131TIP3    H175884   2.900   1.991   1.803  0.1834 -0.3799  0.3691
18131TIP3    H275885   2.841   1.997   1.663  1.4466  0.8759 -0.1156
18132TIP3   OH275886   2.921   0.457   6.021  0.6843 -0.3578 -0.2734
18132TIP3    H175887   2.924   0.415   6.107  0.0358 -1.4955 -0.7958
18132TIP3    H275888   2.972   0.537   6.031 -1.0309  0.5187  1.7157
18133TIP3   OH275889   4.733   3.668  15.560 -0.1575 -0.4694 -0.0242
18133TIP3    H175890   4.739   3.589  15.506 -0.7737 -0.0422 -0.7366
18133TIP3    H275891   4.649   3.660  15.605 -0.1986 -0.2528 -0.0599
18134TIP3   OH275892   5.715   6.225  15.143 -0.1997  0.0746 -0.3619
18134TIP3    H175893   5.768   6.145  15.145  2.5034  1.8264  0.0861
18134TIP3    H275894   5.650   6.209  15.074  0.6129 -2.2758 -0.6352
18135TIP3   OH275895   5.009   2.414   5.870  0.2029 -0.3997 -0.9378
18135TIP3    H175896   4.945   2.484   5.881  0.9220  0.0909  0.1468
18135TIP3    H275897   4.957   2.338   5.842 -0.7754  0.1391 -0.5892
18136TIP3   OH275898   4.586   3.391  15.781 -0.1830 -0.2259 -0.3369
18136TIP3    H175899   4.501   3.369  15.743 -1.5311  0.2565  2.2406
18136TIP3    H275900   4.565   3.445  15.857  2.5334  1.3341 -0.6167
18137TIP3   OH275901   5.123   1.951   2.996 -0.5994  0.0414 -0.5324
18137TIP3    H175902   5.072   2.031   2.985  0.1687  0.4721 -1.0021
18137TIP3    H275903   5.145   1.948   3.089  0.1164  0.8332 -0.6746
18138TIP3   OH275904   6.365   6.149   2.710  0.2945  0.3021 -0.0550
18138TIP3    H175905   6.323   6.094   2.644 -1.0957 -1.4827  2.2476
18138TIP3    H275906   6.446   6.180   2.667 -0.2661 -1.2719 -2.3538
18139TIP3   OH275907   2.205   2.391   3.711  0.3231  0.0483 -0.0022
18139TIP3    H175908   2.211   2.479   3.673  1.0766  0.7376  1.6817
18139TIP3    H275909   2.156   2.403   3.792 -0.0630 -1.1883 -0.0481
18140TIP3   OH275910   2.093   3.141  14.005 -0.0953 -0.0065  0.6438
18140TIP3    H175911   2.015   3.098  13.971 -0.9508  0.8713  1.4387
18140TIP3    H275912   2.113   3.209  13.942  0.2519 -0.4739  0.2481
18141TIP3   OH275913   3.736   6.583  13.610 -0.2262  0.6321  0.6397
18141TIP3    H175914   3.770   6.644  13.545 -0.4051 -0.3731 -0.4118
18141TIP3    H275915   3.656   6.625  13.642 -0.2378  1.0541  0.0755
18142TIP3   OH275916   4.146   4.768  15.027 -0.0617  0.0325  0.2929
18142TIP3    H175917   4.108   4.763  15.114  0.2605  0.4782  0.4637
18142TIP3    H275918   4.108   4.846  14.988  1.2004  0.8977  0.7354
18143TIP3   OH275919   6.565   0.607   0.890  0.7135 -0.5562 -0.3086
18143TIP3    H175920   6.550   0.514   0.873  1.0682 -1.0739  2.1041
18143TIP3    H275921   6.649   0.626   0.847  1.2752 -1.6708  0.2743
18144TIP3   OH275922   5.703   5.908   0.654 -0.2501 -0.2403 -0.0537
18144TIP3    H175923   5.665   5.995   0.654  1.3193  0.4803 -0.9918
18144TIP3    H275924   5.716   5.887   0.746 -0.2554  0.6993  0.1639
18145TIP3   OH275925   5.422   5.737  13.982 -0.4983  0.6722 -0.1857
18145TIP3    H175926   5.369   5.816  13.973 -1.5334 -0.0199 -0.1575
18145TIP3    H275927   5.500   5.755  13.929 -0.5952  1.8205  0.0484
18146TIP3   OH275928   1.834   1.043   3.404  0.2329 -0.7040 -0.0085
18146TIP3    H175929   1.773   1.092   3.349 -0.5369 -4.0556 -2.3091
18146TIP3    H275930   1.920   1.079   3.381 -0.4268  0.6224 -0.4545
18147TIP3   OH275931   3.568   6.327  17.108 -0.0819 -0.0193 -0.0346
18147TIP3    H175932   3.571   6.418  17.139 -0.1584 -0.2443  0.6415
18147TIP3    H275933   3.570   6.275  17.188 -2.8474 -0.5665 -0.2909
18148TIP3   OH275934   1.116   0.018   1.097  0.1990  0.2745  0.1910
18148TIP3    H175935   1.103  -0.056   1.038  0.6755 -1.0264  1.6616
18148TIP3    H275936   1.211   0.026   1.105  0.1456  0.8854  0.2231
18149TIP3   OH275937   6.789   5.991   4.282  0.3600 -0.4596  0.1177
18149TIP3    H175938   6.701   5.955   4.278  0.3158 -0.2531 -0.8061
18149TIP3    H275939   6.786   6.052   4.356 -0.2422 -0.5349  0.1603
18150TIP3   OH275940   4.728   4.048  13.036 -0.8862 -0.4761 -0.1678
18150TIP3    H175941   4.693   4.136  13.043  0.7292  0.3498 -2.0552
18150TIP3    H275942   4.796   4.043  13.104 -0.6686 -0.1067 -0.3594
18151TIP3   OH275943   2.062   2.977   3.533 -0.5460  0.7773  0.1946
18151TIP3    H175944   2.053   3.001   3.441  3.7084 -0.1246 -0.5713
18151TIP3    H275945   2.053   3.060   3.580 -0.8466  1.5506 -1.1831
18152TIP3   OH275946   6.296   2.687  15.866 -0.1644  0.2711  0.0756
18152TIP3    H175947   6.299   2.775  15.902  0.5456  1.0716 -1.9114
18152TIP3    H275948   6.225   2.689  15.802 -0.0694 -0.5881 -0.0669
18153TIP3   OH275949   3.232   0.908   4.262 -0.3841 -0.9582 -0.0880
18153TIP3    H175950   3.232   0.812   4.269 -1.6785 -0.9068  0.8401
18153TIP3    H275951   3.236   0.939   4.352  2.8567 -0.0816 -0.4667
18154TIP3   OH275952   6.570   2.210   5.762  0.3277  0.0664  1.0640
18154TIP3    H175953   6.611   2.176   5.682 -1.4882 -1.5371  0.7704
18154TIP3    H275954   6.485   2.244   5.732 -0.4225 -0.6803  2.3375
18155TIP3   OH275955   2.997   5.286  16.826  0.2206  0.1715  0.1034
18155TIP3    H175956   3.088   5.301  16.854 -0.1299 -2.8990  3.2236
18155TIP3    H275957   3.005   5.237  16.744  1.3770  0.9159 -0.2377
18156TIP3   OH275958   0.390   4.171   1.196 -0.1072  0.5994 -0.1173
18156TIP3    H175959   0.394   4.267   1.196 -0.7967  0.6273 -0.0971
18156TIP3    H275960   0.352   4.148   1.112  1.2970  0.2812 -0.6835
18157TIP3   OH275961   3.521   6.685  16.904 -0.3093  0.1906 -0.2133
18157TIP3    H175962   3.616   6.680  16.893 -0.2348  0.7367  0.1758
18157TIP3    H275963   3.487   6.697  16.815  0.0507  0.9482 -0.2491
18158TIP3   OH275964   1.454   5.247   0.669  1.3413  0.1181  0.6006
18158TIP3    H175965   1.474   5.159   0.640  0.6409 -0.2379  1.1785
18158TIP3    H275966   1.431   5.294   0.589 -1.0652 -0.9905  0.5986
18159TIP3   OH275967   1.205   4.360  14.694 -0.1370  0.6808 -0.0091
18159TIP3    H175968   1.297   4.373  14.671  0.0086  1.5794  1.0489
18159TIP3    H275969   1.205   4.330  14.784 -0.8317 -0.5539 -0.4022
18160TIP3   OH275970   1.473   2.971   1.176 -0.2322  0.4450  0.4242
18160TIP3    H175971   1.390   3.018   1.175 -1.1714 -1.1169  1.4538
18160TIP3    H275972   1.512   2.993   1.261  0.5963  1.4559 -0.2024
18161TIP3   OH275973   4.360   0.410  15.938 -0.4890 -0.0501  0.2071
18161TIP3    H175974   4.364   0.460  15.856 -0.1943 -1.5618 -0.7126
18161TIP3    H275975   4.442   0.361  15.940 -0.7120 -0.3913  1.1804
18162TIP3   OH275976   1.883   6.037  12.928 -0.0934 -0.0921 -0.2910
18162TIP3    H175977   1.815   5.974  12.952 -1.0575  1.6100  1.5550
18162TIP3    H275978   1.836   6.120  12.916  1.6783  1.2325  1.5271
18163TIP3   OH275979   6.059   5.091   2.471 -0.4621 -0.5881  0.1385
18163TIP3    H175980   5.976   5.137   2.488 -0.0205 -0.0805  0.9446
18163TIP3    H275981   6.103   5.090   2.556 -0.0934 -1.7705 -0.0644
18164TIP3   OH275982   6.225   1.718   4.435  0.5068  0.4905  0.1784
18164TIP3    H175983   6.147   1.676   4.470  1.4971 -0.0442  1.8330
18164TIP3    H275984   6.272   1.750   4.512  1.6421  1.2995 -0.8191
18165TIP3   OH275985   1.757   0.712   5.009 -0.2077  0.3127  0.3184
18165TIP3    H175986   1.812   0.649   4.963  0.5045  0.8078  0.4733
18165TIP3    H275987   1.783   0.797   4.972 -0.8522  0.5485  0.4128
18166TIP3   OH275988   6.243   5.636  14.513  0.2369 -0.3875  0.0055
18166TIP3    H175989   6.276   5.546  14.514  1.8024  0.1546  0.2251
18166TIP3    H275990   6.264   5.669  14.601 -2.6185 -0.5785  0.7992
18167TIP3   OH275991   5.324   4.394   1.213 -0.1226 -0.4466  0.0402
18167TIP3    H175992   5.306   4.470   1.268  0.2063 -0.1461 -0.2571
18167TIP3    H275993   5.323   4.319   1.272  2.9282  0.1754  0.9236
18168TIP3   OH275994   5.053   2.460   4.562 -0.3918  0.2146 -0.0796
18168TIP3    H175995   5.139   2.455   4.521 -1.1240  0.2076 -1.6171
18168TIP3    H275996   5.022   2.370   4.565 -1.5248  0.5235 -2.0619
18169TIP3   OH275997   0.893   0.242  16.981 -0.1384  0.2863  0.4301
18169TIP3    H175998   0.823   0.267  16.921 -1.3795  0.5799  1.9807
18169TIP3    H275999   0.882   0.300  17.056  1.1345 -0.3694  1.1317
18170TIP3   OH276000   3.010   0.965  13.291  0.1302  0.0620 -0.3562
18170TIP3    H176001   3.047   0.964  13.202  3.3377 -3.5451  0.8870
18170TIP3    H276002   3.050   1.041  13.332  0.1452  0.6358 -1.4032
18171TIP3   OH276003   6.790   3.389   1.249  0.1604  0.6376 -0.3881
18171TIP3    H176004   6.803   3.484   1.254 -0.7173  0.7280  0.1533
18171TIP3    H276005   6.847   3.354   1.318  0.9086  0.7230 -0.9521
18172TIP3   OH276006   1.250   4.881  12.489 -0.1050 -0.0251  0.1998
18172TIP3    H176007   1.193   4.840  12.424  0.2059  0.0468 -0.1192
18172TIP3    H276008   1.269   4.811  12.552  2.1019 -0.9697 -1.4443
18173TIP3   OH276009   2.936   3.674   0.866 -0.4254 -0.4702  0.3773
18173TIP3    H176010   2.988   3.679   0.786 -0.0900  1.0762  0.6774
18173TIP3    H276011   3.001   3.669   0.936 -0.7236 -2.5275  0.5192
18174TIP3   OH276012   4.168   4.733  14.751 -0.1072  0.1648  0.2093
18174TIP3    H176013   4.264   4.733  14.750 -0.1166  0.0172 -0.4179
18174TIP3    H276014   4.144   4.643  14.733 -0.3440 -0.3704  2.9054
18175TIP3   OH276015   1.618   1.475  12.204  0.0578 -0.0185 -0.1393
18175TIP3    H176016   1.685   1.535  12.170  2.6740 -2.4477  0.5855
18175TIP3    H276017   1.642   1.461  12.295 -1.8336 -0.4433  0.3179
18176TIP3   OH276018   3.380   4.272   1.073  0.1684  0.3028  0.3287
18176TIP3    H176019   3.326   4.228   1.007 -1.1434  0.2465  1.4295
18176TIP3    H276020   3.348   4.238   1.156  0.9154  1.3936  1.0653
18177TIP3   OH276021   2.432   1.898  16.297 -0.2307  0.1191 -0.1353
18177TIP3    H176022   2.492   1.826  16.317 -0.7147 -0.0822  0.6140
18177TIP3    H276023   2.401   1.880  16.209  0.5695  0.0550 -0.4119
18178TIP3   OH276024   1.051   2.280   3.172  0.2951 -0.0798 -0.0362
18178TIP3    H176025   1.096   2.286   3.257 -0.2510  0.5396  0.2141
18178TIP3    H276026   1.114   2.235   3.115  1.0157  0.2811  0.4605
18179TIP3   OH276027   6.263   5.006   6.615  0.4584  0.8050 -0.0406
18179TIP3    H176028   6.323   4.960   6.557 -0.1267  0.3463 -0.2836
18179TIP3    H276029   6.183   5.015   6.564 -1.3901 -2.9597  1.9841
18180TIP3   OH276030   1.571   4.982   6.090  0.1536  0.7050  0.2554
18180TIP3    H176031   1.656   4.994   6.132 -0.0696 -0.9932  1.2812
18180TIP3    H276032   1.517   4.939   6.158 -1.6384  2.1082 -0.2301
18181TIP3   OH276033   2.374   1.078  14.408  0.7404  0.0647  0.2198
18181TIP3    H176034   2.351   1.160  14.365  1.7245 -0.2505 -0.9361
18181TIP3    H276035   2.406   1.022  14.337 -0.3430 -1.4818  0.9274
18182TIP3   OH276036   3.808   4.326  11.473 -0.1202  0.2735 -0.4431
18182TIP3    H176037   3.850   4.281  11.400 -0.4961 -1.0511  0.1266
18182TIP3    H276038   3.881   4.362  11.524  0.2053  0.0828 -0.7676
18183TIP3   OH276039   1.561   2.346   1.507 -0.1974 -0.3556  0.3283
18183TIP3    H176040   1.564   2.280   1.577  0.9749 -1.4426 -0.7072
18183TIP3    H276041   1.482   2.325   1.458 -0.3704 -0.3601  0.6076
18184TIP3   OH276042   3.507   1.491  13.723  0.0958  0.2538 -0.5268
18184TIP3    H176043   3.499   1.453  13.635 -1.2274  0.5253 -0.5320
18184TIP3    H276044   3.495   1.585  13.710  1.7422  0.5200 -0.2896
18185TIP3   OH276045   6.496   5.620   5.659  0.2974 -0.6104 -0.1546
18185TIP3    H176046   6.552   5.697   5.653  0.4285 -0.6834  0.1007
18185TIP3    H276047   6.502   5.578   5.574  0.0761 -0.2341 -0.3585
18186TIP3   OH276048   0.671   5.254  14.202 -0.0695 -0.1434  0.1976
18186TIP3    H176049   0.682   5.206  14.119  0.1662  0.7313 -0.2810
18186TIP3    H276050   0.591   5.218  14.239 -1.2083  0.7735 -1.3130
18187TIP3   OH276051   3.995   1.511  12.284 -0.2212  0.5929  0.2124
18187TIP3    H176052   3.922   1.567  12.311 -2.4006 -1.0928 -2.0148
18187TIP3    H276053   3.983   1.430  12.334  1.1360  0.8958  1.0799
18188TIP3   OH276054   2.409   2.814   2.168 -0.3438  0.3677 -0.1831
18188TIP3    H176055   2.415   2.901   2.208  0.6980 -0.4393  1.4783
18188TIP3    H276056   2.493   2.802   2.123 -0.6314  0.3627 -0.7243
18189TIP3   OH276057   1.786   6.592   5.422 -0.0904  0.7843 -0.2348
18189TIP3    H176058   1.699   6.631   5.428 -0.6310 -0.2367 -1.3517
18189TIP3    H276059   1.781   6.532   5.348  1.4092  0.3066  0.0277
18190TIP3   OH276060   5.371   4.725   0.750  0.7449 -0.4559 -0.6278
18190TIP3    H176061   5.454   4.761   0.780  0.7429  0.4966 -1.7553
18190TIP3    H276062   5.395   4.645   0.703  0.8464 -1.2640  0.7426
18191TIP3   OH276063   0.247   1.753   5.347  0.3354  0.4551  0.2553
18191TIP3    H176064   0.341   1.752   5.327  0.0988  1.0998 -0.9533
18191TIP3    H276065   0.238   1.694   5.422  1.3138 -1.7467 -1.3127
18192TIP3   OH276066   5.091   2.502   3.682  0.3605  0.3798 -0.1076
18192TIP3    H176067   5.109   2.410   3.667 -1.7376 -0.3436  1.4859
18192TIP3    H276068   5.092   2.542   3.595  0.9187 -1.2156 -0.8432
18193TIP3   OH276069   1.474   6.696  14.799  0.3336 -0.0570 -0.5185
18193TIP3    H176070   1.423   6.775  14.782  0.2168 -0.0874 -0.3119
18193TIP3    H276071   1.563   6.718  14.771  0.3267  0.1865 -0.3452
18194TIP3   OH276072   0.760   3.443  15.446  0.3659  0.2241  0.0861
18194TIP3    H176073   0.744   3.507  15.376 -0.8370 -0.4539 -0.2652
18194TIP3    H276074   0.691   3.459  15.510 -0.1017 -0.8906 -0.1314
18195TIP3   OH276075   3.200   0.468  14.371  0.2314  0.0682 -0.0187
18195TIP3    H176076   3.192   0.407  14.444 -0.3142  0.2440  0.0672
18195TIP3    H276077   3.142   0.541  14.394 -0.6358 -0.2861 -1.0444
18196TIP3   OH276078   3.966   5.705  17.126 -0.0691  0.1802  0.4514
18196TIP3    H176079   3.945   5.790  17.164  1.0983  0.2151  1.0380
18196TIP3    H276080   3.943   5.714  17.033  0.2520  1.2095  0.4685
18197TIP3   OH276081   3.058   1.238  14.017 -0.0139 -0.2585 -0.3421
18197TIP3    H176082   3.006   1.296  13.962 -1.1360  1.4424  2.3582
18197TIP3    H276083   3.143   1.283  14.026  0.4121 -0.8828 -1.2592
18198TIP3   OH276084   4.601   4.488  15.895 -0.2332 -0.4092  1.0632
18198TIP3    H176085   4.543   4.430  15.846 -0.1197 -0.6772  1.2457
18198TIP3    H276086   4.542   4.548  15.941 -0.3093  0.6687 -0.4113
18199TIP3   OH276087   6.332   2.825   2.790 -0.1833 -0.3128 -0.1507
18199TIP3    H176088   6.292   2.742   2.813  1.3598 -0.5363  1.8769
18199TIP3    H276089   6.275   2.891   2.831 -0.3427 -0.4617 -0.1316
18200TIP3   OH276090   2.132   4.880  13.759  0.2064  0.2288 -0.2662
18200TIP3    H176091   2.181   4.828  13.695  0.3485 -0.5435  0.4564
18200TIP3    H276092   2.196   4.941  13.794  0.8884 -1.3541  1.2988
18201TIP3   OH276093   0.405   4.907   4.060 -0.3254 -0.7422  0.4470
18201TIP3    H176094   0.476   4.843   4.067  0.0941 -0.3335 -0.0192
18201TIP3    H276095   0.448   4.991   4.076 -0.8333 -0.5577  0.8452
18202TIP3   OH276096   2.587   2.863   3.229  0.2760 -0.2773  0.0163
18202TIP3    H176097   2.504   2.887   3.272  0.3708 -0.2305  0.1732
18202TIP3    H276098   2.565   2.786   3.177  0.6236 -1.5714  1.7362
18203TIP3   OH276099   6.360   1.682   3.669 -0.4296  0.1844  0.0050
18203TIP3    H176100   6.420   1.751   3.695 -0.4786  0.6445 -1.1009
18203TIP3    H276101   6.380   1.665   3.577 -2.1975  0.5759 -0.4751
18204TIP3   OH276102   1.105   6.657   2.532  0.1630  0.1555 -0.0669
18204TIP3    H176103   1.136   6.727   2.475 -0.1523  0.2590 -0.1095
18204TIP3    H276104   1.178   6.641   2.592 -0.7960  2.4839  1.8085
18205TIP3   OH276105   1.761   6.039  11.368  0.1752 -0.0655  0.9674
18205TIP3    H176106   1.797   6.120  11.333 -1.4722  0.6629  0.9262
18205TIP3    H276107   1.813   5.970  11.326 -0.9446  0.8234 -2.0056
18206TIP3   OH276108   1.154   3.762   3.713  0.0640  0.1854  0.5565
18206TIP3    H176109   1.216   3.834   3.724  0.2962  0.1863 -0.6693
18206TIP3    H276110   1.169   3.730   3.624  0.1165 -1.5258  1.1548
18207TIP3   OH276111   3.606   0.291   4.128 -0.5777 -0.2903  0.1319
18207TIP3    H176112   3.627   0.353   4.058 -0.2067 -1.8163 -1.1589
18207TIP3    H276113   3.690   0.268   4.166 -0.7899  0.6297  1.1902
18208TIP3   OH276114   5.728   0.839   1.451  0.3165 -0.3893 -0.4114
18208TIP3    H176115   5.798   0.893   1.487 -0.2697  0.1627 -0.0811
18208TIP3    H276116   5.773   0.763   1.413  0.9473 -1.0064  1.5070
18209TIP3   OH276117   2.717   3.986  14.875  0.5520 -0.3381  0.1734
18209TIP3    H176118   2.756   3.994  14.788  0.2423 -1.7775 -0.1084
18209TIP3    H276119   2.742   3.898  14.905 -0.5368 -0.4034  0.9440
18210TIP3   OH276120   6.590   6.798   2.568  0.4847 -0.3468  0.2026
18210TIP3    H176121   6.562   6.757   2.486  0.6461 -0.9070  0.4244
18210TIP3    H276122   6.543   6.881   2.571 -0.3355 -0.8048  0.0565
18211TIP3   OH276123   6.504   4.161  14.516  0.1829 -0.4783 -1.1960
18211TIP3    H176124   6.506   4.236  14.456 -0.4356 -0.9399 -1.8049
18211TIP3    H276125   6.520   4.085  14.460 -1.6058 -1.0281 -0.9886
18212TIP3   OH276126   3.662   4.322  14.242  0.1970  0.5711  0.0433
18212TIP3    H176127   3.741   4.269  14.255  0.6816  1.1794 -0.3738
18212TIP3    H276128   3.694   4.403  14.203 -0.6639  0.7313 -0.3454
18213TIP3   OH276129   5.326   4.046   2.053 -0.7819 -0.3220 -0.5001
18213TIP3    H176130   5.298   4.048   1.961 -0.6174  0.1709 -0.5434
18213TIP3    H276131   5.405   3.992   2.053 -0.3447  0.3077 -0.7759
18214TIP3   OH276132   0.662   2.943  16.955 -0.1684  0.0831  0.0126
18214TIP3    H176133   0.620   3.009  16.900  0.8519 -0.6986 -1.7033
18214TIP3    H276134   0.608   2.941  17.034 -2.0707  0.6744 -1.2448
18215TIP3   OH276135   5.304   1.055  11.309 -0.3187  0.7911 -0.1037
18215TIP3    H176136   5.368   0.996  11.349 -1.1361 -0.5130 -0.6951
18215TIP3    H276137   5.220   1.027  11.345 -0.5112  3.0456  1.3418
18216TIP3   OH276138   0.740   4.518   5.973  0.1324  0.3859  0.4713
18216TIP3    H176139   0.818   4.469   5.999  0.9937  0.8865 -1.1443
18216TIP3    H276140   0.766   4.610   5.978 -0.7529  0.6089  1.1628
18217TIP3   OH276141   6.237   4.389  11.769 -0.2240  0.2103 -0.5232
18217TIP3    H176142   6.215   4.455  11.835  0.8548 -0.0450  0.1010
18217TIP3    H276143   6.193   4.420  11.690 -0.0044  1.5120 -0.1627
18218TIP3   OH276144   3.947   2.822   0.474 -0.4711 -0.0970  0.6229
18218TIP3    H176145   4.037   2.791   0.465 -0.4104  0.0922  0.5780
18218TIP3    H276146   3.893   2.749   0.444 -0.3381 -0.2811  0.8310
18219TIP3   OH276147   5.755   6.487   3.113 -0.1846  0.1095 -0.0262
18219TIP3    H176148   5.771   6.455   3.025 -0.7789 -1.0122  0.2554
18219TIP3    H276149   5.760   6.582   3.106 -1.6745  0.1030 -1.5735
18220TIP3   OH276150   0.899   2.949   1.822 -0.1100 -0.2766 -0.2051
18220TIP3    H176151   0.847   3.025   1.794  1.7201  1.3432  0.7081
18220TIP3    H276152   0.858   2.921   1.904 -1.4191 -0.9331 -1.0704
18221TIP3   OH276153   0.538   4.117   3.569  0.4025  0.5434 -0.6857
18221TIP3    H176154   0.595   4.040   3.570  0.3629  0.4439 -3.5225
18221TIP3    H276155   0.456   4.087   3.607  0.2167 -0.9646 -2.2348
18222TIP3   OH276156   3.671   5.182  15.006 -0.5622 -0.3328 -0.2224
18222TIP3    H176157   3.660   5.175  15.101  1.5897 -0.3094  0.0395
18222TIP3    H276158   3.606   5.247  14.980 -0.4781  0.4135  1.3740
18223TIP3   OH276159   1.138   6.604   4.804 -0.2610 -0.4481  0.5738
18223TIP3    H176160   1.098   6.664   4.741 -0.1568 -1.4140 -0.4289
18223TIP3    H276161   1.212   6.653   4.839  0.4581 -0.3609 -1.0164
18224TIP3   OH276162   2.504   2.964   5.367 -0.0822  0.1077 -0.1485
18224TIP3    H176163   2.433   2.901   5.372 -0.2874  0.4855  1.8027
18224TIP3    H276164   2.488   3.012   5.286  0.4451 -2.7421 -2.0255
18225TIP3   OH276165   6.554   0.623   5.374 -0.0333  0.1783  0.6444
18225TIP3    H176166   6.503   0.702   5.391 -0.9952 -0.5869  1.4011
18225TIP3    H276167   6.562   0.581   5.459  2.1477  0.4318  0.5892
18226TIP3   OH276168   5.827   4.382  12.817 -0.1352  0.3990  0.4720
18226TIP3    H176169   5.815   4.461  12.764  1.5902  1.7647  2.0169
18226TIP3    H276170   5.751   4.381  12.876 -0.3913  0.6631  0.1496
18227TIP3   OH276171   1.542   4.921  16.250  0.2951 -0.2310  0.0718
18227TIP3    H176172   1.499   4.999  16.215  1.7069  0.2293 -0.6401
18227TIP3    H276173   1.490   4.899  16.328  0.1921  1.7238  0.5830
18228TIP3   OH276174   0.887   4.577   2.993  0.6200 -0.0119  0.2662
18228TIP3    H176175   0.848   4.550   2.910  1.1273 -1.0742  0.3707
18228TIP3    H276176   0.864   4.508   3.055 -0.4262  1.1585  1.2115
18229TIP3   OH276177   4.621   6.715  12.827  0.0075  0.3938  0.1470
18229TIP3    H176178   4.716   6.721  12.832  0.0459 -0.7539  0.9495
18229TIP3    H276179   4.591   6.806  12.823  1.2415  0.7109 -2.7584
18230TIP3   OH276180   0.165   0.188   2.568  0.4932 -0.1504  0.6624
18230TIP3    H176181   0.075   0.219   2.560  0.8190  0.4242 -0.8496
18230TIP3    H276182   0.219   0.266   2.555  1.2201 -0.5980  0.9812
18231TIP3   OH276183   2.805   6.725   6.122  0.3668  0.3267  0.6356
18231TIP3    H176184   2.824   6.769   6.204 -0.2234 -0.2371  1.0830
18231TIP3    H276185   2.831   6.634   6.137  0.1433  0.1948  0.2461
18232TIP3   OH276186   3.146   1.355   5.570 -0.3120  0.2703  0.2671
18232TIP3    H176187   3.188   1.372   5.486  0.1451 -2.2118 -0.0516
18232TIP3    H276188   3.158   1.436   5.620  0.8701  1.1834 -1.4633
18233TIP3   OH276189   4.560   6.388   3.297  0.4235 -0.0974 -0.4966
18233TIP3    H176190   4.649   6.357   3.280  0.5304 -0.3133  0.4655
18233TIP3    H276191   4.529   6.419   3.212  0.8929 -1.3789 -1.1438
18234TIP3   OH276192   5.458   2.479  16.778 -0.2852  0.0095  0.4878
18234TIP3    H176193   5.416   2.558  16.813 -1.2387 -0.5685  0.6424
18234TIP3    H276194   5.393   2.440  16.720  0.0676 -0.8249  0.6373
18235TIP3   OH276195   0.723   3.782  12.825  0.7743  0.0887 -0.1639
18235TIP3    H176196   0.758   3.860  12.783 -1.4040  0.4826 -1.3239
18235TIP3    H276197   0.708   3.720  12.753  0.3130 -0.5347  0.4507
18236TIP3   OH276198   3.392   3.867   4.331  0.0770  0.0687 -0.6363
18236TIP3    H176199   3.411   3.893   4.421 -1.3647 -1.4425  0.1359
18236TIP3    H276200   3.400   3.948   4.281 -0.6975  1.2788  1.1124
18237TIP3   OH276201   2.607   0.801  12.669  0.0530  0.3805  0.3179
18237TIP3    H176202   2.645   0.854  12.599  1.3661  0.5555  1.1491
18237TIP3    H276203   2.632   0.845  12.750 -1.9056  0.4869  0.9105
18238TIP3   OH276204   2.292   4.919   0.214 -0.6529  0.9461 -0.3982
18238TIP3    H176205   2.234   4.948   0.144 -0.6166  0.2787 -0.7061
18238TIP3    H276206   2.379   4.949   0.187 -0.6390  0.6914 -0.6446
18239TIP3   OH276207   1.779   2.733   1.984  0.0388 -0.1084  0.1638
18239TIP3    H176208   1.691   2.719   2.019 -0.4979  0.3018 -0.9978
18239TIP3    H276209   1.833   2.746   2.061 -0.7023 -1.5394  0.9557
18240TIP3   OH276210   4.789   5.269  13.699  0.6241 -0.2662  0.1777
18240TIP3    H176211   4.709   5.233  13.662  1.4683 -2.1484  0.1620
18240TIP3    H276212   4.760   5.345  13.749 -0.8872  0.5250 -1.8310
18241TIP3   OH276213   0.308   2.102  14.321  0.1533  0.1268  0.4982
18241TIP3    H176214   0.352   2.033  14.369 -0.5219 -0.4160  0.3462
18241TIP3    H276215   0.332   2.088  14.230 -0.4281 -0.2406  0.4015
18242TIP3   OH276216   1.945   0.028   6.707 -0.0142  0.1430 -0.0801
18242TIP3    H176217   1.909   0.116   6.718  0.1547  0.2044 -0.0037
18242TIP3    H276218   1.948  -0.008   6.796  1.5424  0.7143  0.1212
18243TIP3   OH276219   3.662   1.528  12.231 -0.3179 -0.5227 -0.2654
18243TIP3    H176220   3.584   1.560  12.276 -0.3489  1.7189 -1.8278
18243TIP3    H276221   3.631   1.457  12.175 -1.1392 -0.0584 -0.4035
18244TIP3   OH276222   0.201   2.498   4.414  0.3760 -0.3150  0.0143
18244TIP3    H176223   0.212   2.421   4.470 -1.2692 -0.5277  0.0895
18244TIP3    H276224   0.180   2.462   4.327 -1.3872  0.0185  0.2728
18245TIP3   OH276225   1.475   5.097   5.822  0.6436 -0.0322  0.5616
18245TIP3    H176226   1.453   5.010   5.790  3.1175 -0.2972 -0.5231
18245TIP3    H276227   1.510   5.083   5.910  2.1772 -0.2925 -0.0751
18246TIP3   OH276228   5.893   2.896   2.757 -0.0366 -0.3685 -0.1219
18246TIP3    H176229   5.882   2.991   2.762  1.0959 -0.2414 -0.1158
18246TIP3    H276230   5.811   2.861   2.792 -0.0334  0.5998  0.8754
18247TIP3   OH276231   1.481   6.290  14.183 -0.5038  0.4779 -0.9461
18247TIP3    H176232   1.528   6.361  14.139  2.2234  0.8221  2.3012
18247TIP3    H276233   1.411   6.334  14.231 -0.2110  0.7193 -0.7387
18248TIP3   OH276234   1.548   1.118   3.625 -0.4970 -0.3663  0.8806
18248TIP3    H176235   1.572   1.049   3.564 -2.6068 -0.1107 -0.2728
18248TIP3    H276236   1.454   1.107   3.639 -1.2085  3.1946 -0.5572
18249TIP3   OH276237   1.689   5.586  12.295 -0.5275 -0.4570  0.5054
18249TIP3    H176238   1.733   5.592  12.379  0.7288 -0.9698 -0.0996
18249TIP3    H276239   1.755   5.550  12.236 -1.0873  0.8119 -0.9171
18250TIP3   OH276240   0.562   5.494   6.525  0.3777  0.2570  0.3714
18250TIP3    H176241   0.636   5.488   6.464  0.5444  0.9025  0.5097
18250TIP3    H276242   0.550   5.404   6.555 -2.2653 -0.8607 -3.5972
18251TIP3   OH276243   4.770   4.379  11.295  0.0479  0.1267 -0.1709
18251TIP3    H176244   4.705   4.379  11.225  0.5257  2.1221 -0.6341
18251TIP3    H276245   4.834   4.313  11.267 -1.9410 -2.2081  0.5145
18252TIP3   OH276246   4.628   1.903  11.194 -0.0175 -0.3004  0.3782
18252TIP3    H176247   4.571   1.906  11.271 -1.1257 -0.8029 -0.4116
18252TIP3    H276248   4.593   1.969  11.135 -0.0059 -0.8570 -0.2612
18253TIP3   OH276249   5.159   4.311  15.250  0.0513 -0.5302  0.1427
18253TIP3    H176250   5.153   4.244  15.182 -0.6931 -1.3564  0.9996
18253TIP3    H276251   5.068   4.338  15.264  0.3671  0.8521 -0.3656
18254TIP3   OH276252   4.862   1.261  16.235  0.2528 -0.2918 -0.2421
18254TIP3    H176253   4.787   1.235  16.181 -0.4508  0.2152  0.4675
18254TIP3    H276254   4.828   1.332  16.290  1.4623  0.4261 -0.4158
18255TIP3   OH276255   6.560   5.304   6.368  0.1062 -0.0590 -0.3905
18255TIP3    H176256   6.596   5.292   6.280 -1.8601  2.4031 -1.5890
18255TIP3    H276257   6.470   5.272   6.362  0.0456 -0.1642  0.8307
18256TIP3   OH276258   3.112   6.305   2.970 -0.4481  0.0733 -0.1592
18256TIP3    H176259   3.020   6.329   2.984 -0.8768 -1.0845 -0.9417
18256TIP3    H276260   3.122   6.220   3.012 -0.4247 -1.0143 -2.2682
18257TIP3   OH276261   4.009   3.393  11.117 -0.1775 -0.1051 -0.2518
18257TIP3    H176262   4.005   3.302  11.148 -0.1220 -0.5396 -1.4889
18257TIP3    H276263   4.036   3.386  11.025 -0.1222  1.1689 -0.3410
18258TIP3   OH276264   2.858   2.679  11.446 -0.1399 -0.1958 -0.6796
18258TIP3    H176265   2.781   2.700  11.393 -1.0426 -1.5472  0.0761
18258TIP3    H276266   2.823   2.655  11.532  1.2482  1.0536  0.2813
18259TIP3   OH276267   1.471   4.381  14.644 -0.8673  0.2358  0.1266
18259TIP3    H176268   1.494   4.403  14.554 -2.4149  0.9765 -0.1002
18259TIP3    H276269   1.536   4.316  14.670 -0.0463  0.4596 -1.3186
18260TIP3   OH276270   0.251   3.102   6.050  0.1449 -0.0370 -0.1445
18260TIP3    H176271   0.257   3.138   5.961  0.3545 -3.4152 -1.5927
18260TIP3    H276272   0.340   3.110   6.085  0.1263  1.0667 -0.3324
18261TIP3   OH276273   3.477   0.115   0.326  0.0014 -0.7439  0.2649
18261TIP3    H176274   3.512   0.118   0.415  0.5890  0.0800  0.0043
18261TIP3    H276275   3.552   0.133   0.270 -0.8875  1.2924 -0.2927
18262TIP3   OH276276   1.086   2.784   6.056 -0.2596 -0.1625  0.2723
18262TIP3    H176277   1.106   2.747   6.142  0.3191  0.2360  0.3138
18262TIP3    H276278   1.094   2.878   6.068 -1.0515 -0.0545 -0.0014
18263TIP3   OH276279   4.501   5.541  15.571 -0.1172  0.1614 -0.1503
18263TIP3    H176280   4.571   5.566  15.631  1.0291  0.9410 -1.7660
18263TIP3    H276281   4.492   5.615  15.512  0.0690 -1.3177 -2.0831
18264TIP3   OH276282   4.448   4.703  14.994  0.0715 -0.1971 -0.3090
18264TIP3    H176283   4.374   4.760  15.014  0.2623 -0.4260  1.0795
18264TIP3    H276284   4.464   4.716  14.900  0.8208  2.8916  0.1787
18265TIP3   OH276285   6.076   2.189   2.879 -0.0035  0.1583  0.0870
18265TIP3    H176286   6.124   2.272   2.879 -0.7540  0.6429 -2.6656
18265TIP3    H276287   5.992   2.210   2.919 -0.1419  0.7044 -0.4852
18266TIP3   OH276288   2.585   1.821   2.818  0.5257  0.0866  0.2921
18266TIP3    H176289   2.676   1.842   2.840  0.2730  1.0149  0.4807
18266TIP3    H276290   2.536   1.841   2.897  0.1152 -0.1297  0.0914
18267TIP3   OH276291   6.016   2.555   5.936  0.0409 -0.1849  0.0926
18267TIP3    H176292   5.957   2.522   5.868  0.6842 -1.9851  0.3639
18267TIP3    H276293   6.099   2.569   5.891  0.0586  0.0450  0.1974
18268TIP3   OH276294   3.811   5.436   2.023 -0.0157  0.1990 -0.2010
18268TIP3    H176295   3.789   5.404   1.936  2.0326 -0.0281 -0.6720
18268TIP3    H276296   3.865   5.514   2.008  1.7540 -0.7843  0.8011
18269TIP3   OH276297   2.605   2.620  12.965 -0.4806 -0.2993  0.2519
18269TIP3    H176298   2.687   2.582  12.996  0.8016  0.1511 -2.5158
18269TIP3    H276299   2.545   2.545  12.959  0.5282 -1.0661 -0.3058
18270TIP3   OH276300   3.751   6.596  11.233 -0.1161 -0.4003 -0.0955
18270TIP3    H176301   3.771   6.521  11.177  2.0872  1.3883 -1.8230
18270TIP3    H276302   3.818   6.594  11.301 -1.4817 -1.3221  1.2470
18271TIP3   OH276303   2.900   6.342   2.187 -0.0923 -0.3105 -0.3287
18271TIP3    H176304   2.817   6.317   2.229 -0.4432 -0.4866 -1.1091
18271TIP3    H276305   2.877   6.418   2.133  0.6833  0.8521  0.9726
18272TIP3   OH276306   5.184   0.596  12.901 -0.4741 -0.4124  0.1074
18272TIP3    H176307   5.121   0.644  12.955 -0.9342 -0.0134 -0.7909
18272TIP3    H276308   5.178   0.506  12.933 -0.9326 -0.2293  0.5513
18273TIP3   OH276309   2.667   1.143   1.731 -0.2535 -0.1577  0.0838
18273TIP3    H176310   2.721   1.210   1.774 -1.9115  0.9772  0.4282
18273TIP3    H276311   2.585   1.187   1.711 -1.1172 -1.9053 -0.3201
18274TIP3   OH276312   2.754   2.582  11.195  0.0493  0.4694 -0.3801
18274TIP3    H176313   2.677   2.561  11.143 -0.4953  0.7222  0.3197
18274TIP3    H276314   2.798   2.653  11.146 -0.0314  0.1641 -0.8939
18275TIP3   OH276315   1.796   3.432  15.840 -0.0331  0.6488 -0.5960
18275TIP3    H176316   1.745   3.486  15.780 -1.0087  0.1963 -0.1860
18275TIP3    H276317   1.847   3.494  15.892 -0.5551  1.1253 -0.6575
18276TIP3   OH276318   2.568   5.665   3.044  0.3089  0.0490  0.0165
18276TIP3    H176319   2.522   5.744   3.074 -0.9053 -1.0235  1.0603
18276TIP3    H276320   2.644   5.659   3.102  0.8482  0.8825 -0.5886
18277TIP3   OH276321   0.422   2.503   2.155 -0.0146  0.0387 -0.1854
18277TIP3    H176322   0.454   2.479   2.069 -0.5749 -0.0302 -0.3773
18277TIP3    H276323   0.343   2.451   2.168  1.6545 -2.1581  1.6043
18278TIP3   OH276324   5.913   4.910  12.503  0.3421 -0.4065  0.2034
18278TIP3    H176325   5.967   4.980  12.467  1.0244 -0.1751  1.6115
18278TIP3    H276326   5.873   4.868  12.427  0.8022  0.8043 -0.7262
18279TIP3   OH276327   4.724   3.523  16.393 -0.9665  0.2136  0.2441
18279TIP3    H176328   4.759   3.551  16.308  0.9465 -2.1926  0.1830
18279TIP3    H276329   4.641   3.570  16.401 -0.6229  1.3898 -2.4201
18280TIP3   OH276330   5.322   5.765   5.510 -0.0981 -0.0862 -0.2911
18280TIP3    H176331   5.332   5.853   5.475  0.2977  0.0053  0.0520
18280TIP3    H276332   5.235   5.737   5.480 -0.0923  0.2977 -0.6654
18281TIP3   OH276333   4.017   6.594  12.694 -0.2964  0.2921  0.3239
18281TIP3    H176334   4.071   6.637  12.628  0.1601  0.0628  0.5532
18281TIP3    H276335   3.937   6.647  12.696 -0.4514  0.1182 -0.6400
18282TIP3   OH276336   3.296   4.689   0.459  0.5304  0.3764 -0.1496
18282TIP3    H176337   3.331   4.710   0.545  0.7557 -0.2182 -0.0924
18282TIP3    H276338   3.220   4.634   0.476 -1.0100  2.4072 -0.2414
18283TIP3   OH276339   4.528   1.238  16.715  0.8667 -0.3252 -0.2232
18283TIP3    H176340   4.550   1.236  16.622 -0.7631  0.4387 -0.6479
18283TIP3    H276341   4.478   1.158  16.730  0.7739 -0.2450 -0.1037
18284TIP3   OH276342   2.712   5.776  15.262 -0.3984  0.6506 -0.1034
18284TIP3    H176343   2.764   5.701  15.235 -1.3191  0.2928 -0.8736
18284TIP3    H276344   2.644   5.740  15.319 -0.0875  1.0676  0.5543
18285TIP3   OH276345   6.049   0.963  12.850  0.2486  0.4496 -0.0830
18285TIP3    H176346   6.026   0.887  12.904  0.7940  1.0679  1.0444
18285TIP3    H276347   6.102   0.927  12.779  0.2898 -0.2563  0.2982
18286TIP3   OH276348   6.005   6.196   5.528  0.2580  0.4024  0.0139
18286TIP3    H176349   5.987   6.180   5.435 -1.2288  1.2387  0.1379
18286TIP3    H276350   5.921   6.224   5.564  0.7493 -0.2392  1.6892
18287TIP3   OH276351   0.987   3.965   1.637 -0.3009  0.1812  0.0082
18287TIP3    H176352   0.935   4.013   1.572  0.1912  0.4705 -0.1801
18287TIP3    H276353   0.967   4.007   1.720  0.7980  1.3079 -0.2754
18288TIP3   OH276354   4.575   1.427   3.954  0.2026 -0.2051  0.0955
18288TIP3    H176355   4.667   1.432   3.978  0.4698 -0.3094 -0.8748
18288TIP3    H276356   4.539   1.356   4.006  0.7022 -0.2384  0.3895
18289TIP3   OH276357   6.525   4.685  15.016  0.1236  0.1770  0.0046
18289TIP3    H176358   6.480   4.735  15.084  1.3272  0.7189  0.4226
18289TIP3    H276359   6.547   4.749  14.949 -0.3494 -0.2127 -0.5273
18290TIP3   OH276360   3.087   2.395  14.158  0.9034  0.3996  0.1220
18290TIP3    H176361   3.157   2.441  14.203 -0.3009 -0.3756  2.8797
18290TIP3    H276362   3.022   2.377  14.226 -1.1517 -0.4843 -2.0070
18291TIP3   OH276363   1.836   1.844   6.100  0.1174 -0.1961 -0.2314
18291TIP3    H176364   1.805   1.781   6.166  0.2079 -1.5049 -1.4097
18291TIP3    H276365   1.835   1.928   6.146  2.0329 -1.3525  2.0702
18292TIP3   OH276366   4.346   5.402   5.211 -0.1464 -0.3810  0.1726
18292TIP3    H176367   4.431   5.358   5.217  0.0359  0.3133  4.2513
18292TIP3    H276368   4.356   5.467   5.142  2.1313 -1.4032 -0.4711
18293TIP3   OH276369   4.312   4.213   5.386 -0.3945 -0.3243  0.3486
18293TIP3    H176370   4.335   4.154   5.315 -2.3406  0.0695 -0.6463
18293TIP3    H276371   4.217   4.213   5.388 -0.3950  0.9565  1.8793
18294TIP3   OH276372   1.731   1.108  11.131 -0.1318 -0.5430 -0.8385
18294TIP3    H176373   1.722   1.080  11.222 -0.1217  1.5004 -0.1867
18294TIP3    H276374   1.731   1.027  11.081  0.4489 -1.7222  1.0314
18295TIP3   OH276375   0.123   1.885   0.519  0.7964 -0.2439  0.3077
18295TIP3    H176376   0.121   1.924   0.432  2.0663 -1.3750 -0.2503
18295TIP3    H276377   0.094   1.795   0.506  0.1476 -0.1679  1.1919
18296TIP3   OH276378   0.220   6.028  15.472 -0.2227 -0.4751 -0.2808
18296TIP3    H176379   0.137   6.036  15.519  0.0800  2.6430 -0.1931
18296TIP3    H276380   0.195   6.034  15.379 -0.1007  0.4546 -0.2539
18297TIP3   OH276381   6.365   3.542   3.628  0.2153 -0.2110  0.0810
18297TIP3    H176382   6.438   3.593   3.663 -0.4307  1.7091 -1.3024
18297TIP3    H276383   6.407   3.472   3.579  1.1317  0.1922  0.2726
18298TIP3   OH276384   4.781   6.200   3.623 -0.0633  0.1345 -0.7678
18298TIP3    H176385   4.843   6.173   3.555  0.9839  1.2113 -0.2523
18298TIP3    H276386   4.735   6.275   3.585  0.1669  0.4158 -0.4976
18299TIP3   OH276387   6.250   2.638   4.337 -0.0923 -0.5488  0.2735
18299TIP3    H176388   6.239   2.725   4.375 -0.9800 -0.9598  1.0006
18299TIP3    H276389   6.274   2.582   4.412 -0.5575 -1.1224 -0.0011
18300TIP3   OH276390   2.493   3.395  15.271  0.3666 -0.1414 -0.5546
18300TIP3    H176391   2.584   3.367  15.278  0.9109  1.1637 -1.9791
18300TIP3    H276392   2.499   3.491  15.262 -1.0401 -0.2032 -2.3437
18301TIP3   OH276393   5.412   1.515   2.898  0.3187 -0.2210 -0.2325
18301TIP3    H176394   5.337   1.575   2.894 -1.0894 -1.8489  1.3220
18301TIP3    H276395   5.388   1.443   2.839 -0.0813 -1.5385  1.5121
18302TIP3   OH276396   4.135   6.421   0.896 -0.4417 -0.8001 -0.0970
18302TIP3    H176397   4.158   6.366   0.821 -0.8354  0.1336 -0.9227
18302TIP3    H276398   4.063   6.375   0.938  0.2637 -1.6990  0.1385
18303TIP3   OH276399   4.850   5.718   1.623  0.0782 -0.2786  0.2338
18303TIP3    H176400   4.874   5.656   1.691  0.0124  0.2585  0.7517
18303TIP3    H276401   4.775   5.678   1.579  0.2234 -0.7004  0.3660
18304TIP3   OH276402   2.449   3.263  14.945 -0.5938  0.2712 -0.3158
18304TIP3    H176403   2.364   3.276  14.988 -1.4895  0.0400 -1.9879
18304TIP3    H276404   2.492   3.349  14.950 -1.8796  1.0093 -1.4655
18305TIP3   OH276405   1.191   1.377   5.908  0.1909  0.2992  0.8969
18305TIP3    H176406   1.153   1.338   5.987  0.1640 -1.3396  0.1062
18305TIP3    H276407   1.147   1.332   5.836 -0.1879  2.1733 -0.0758
18306TIP3   OH276408   0.135   4.682   0.180  0.4527  0.0371 -0.1083
18306TIP3    H176409   0.223   4.720   0.171  0.9695 -0.7754  1.2721
18306TIP3    H276410   0.078   4.757   0.197  1.1776  0.4062  0.7596
18307TIP3   OH276411   5.705   4.016  12.684  0.1520  0.1636  0.6217
18307TIP3    H176412   5.733   4.045  12.771  0.7367  1.1888  0.0928
18307TIP3    H276413   5.692   3.921  12.694 -1.2702  0.4884  2.2239
18308TIP3   OH276414   4.528   2.027   2.156  0.0849  0.1952  0.6478
18308TIP3    H176415   4.540   1.987   2.070 -2.0515  0.0471  0.4007
18308TIP3    H276416   4.614   2.065   2.177  1.0545 -1.1293 -0.8299
18309TIP3   OH276417   3.858   2.704  13.086 -0.4045  0.2369 -0.4015
18309TIP3    H176418   3.773   2.662  13.089  0.6522 -1.9095  3.1247
18309TIP3    H276419   3.860   2.761  13.163  1.1677  0.5905 -0.6739
18310TIP3   OH276420   3.403   3.649   3.104 -0.2656 -0.0328  0.2696
18310TIP3    H176421   3.486   3.686   3.074 -1.0769  0.9463 -0.7857
18310TIP3    H276422   3.409   3.654   3.200  0.2445  1.4976  0.1730
18311TIP3   OH276423   6.424   2.135   2.155  0.2696 -0.4333 -0.4046
18311TIP3    H176424   6.449   2.221   2.124  2.8542 -0.2626  1.9986
18311TIP3    H276425   6.363   2.102   2.088 -1.0919  3.3626 -1.1469
18312TIP3   OH276426   4.457   5.967  10.996  0.8786 -0.3362 -0.2871
18312TIP3    H176427   4.395   5.988  11.066 -1.2151  0.1869 -2.2520
18312TIP3    H276428   4.453   6.043  10.937  1.8907 -1.2024 -1.4866
18313TIP3   OH276429   1.347   3.929  15.278  0.1291 -0.3735  0.0474
18313TIP3    H176430   1.431   3.912  15.236 -1.0007 -0.9602 -2.0257
18313TIP3    H276431   1.287   3.949  15.206 -1.2639  1.1121  1.5812
18314TIP3   OH276432   2.918   3.728   0.527 -0.1259  0.5807  0.4938
18314TIP3    H176433   2.842   3.728   0.470  1.0450 -0.2318 -1.1150
18314TIP3    H276434   2.970   3.653   0.499  0.4692  0.1420  2.6657
18315TIP3   OH276435   1.696   5.724   1.823 -0.1464  0.1081 -0.2384
18315TIP3    H176436   1.623   5.684   1.871  0.4289  0.0826  0.6316
18315TIP3    H276437   1.763   5.655   1.820 -0.2837  0.0170 -1.3253
18316TIP3   OH276438   5.352   6.456   0.027 -0.3833 -0.4756  0.3464
18316TIP3    H176439   5.430   6.403   0.005 -0.1832 -0.6297  1.4257
18316TIP3    H276440   5.364   6.480   0.119 -1.4408 -0.1932  0.4149
18317TIP3   OH276441   4.795   6.432   0.598 -0.0231  0.4949 -0.2701
18317TIP3    H176442   4.764   6.430   0.689  1.5375 -2.2932  0.2659
18317TIP3    H276443   4.715   6.442   0.546 -1.2206 -0.4600  1.3311
18318TIP3   OH276444   1.468   5.570  11.389 -0.0185 -0.9402 -0.0899
18318TIP3    H176445   1.426   5.635  11.446  0.0151 -0.7583 -0.2737
18318TIP3    H276446   1.436   5.486  11.421 -0.1279 -0.8281  0.0949
18319TIP3   OH276447   0.747   4.404   3.167 -0.0013 -0.3728 -0.1425
18319TIP3    H176448   0.751   4.341   3.238 -0.9853 -0.5397 -0.2273
18319TIP3    H276449   0.673   4.461   3.189  0.3867  0.2708 -0.4617
18320TIP3   OH276450   5.277   0.517   4.273  0.2769 -0.4441  0.3446
18320TIP3    H176451   5.196   0.568   4.277  1.4787  1.4597  1.0198
18320TIP3    H276452   5.306   0.526   4.182  0.3524 -0.1412  0.3985
18321TIP3   OH276453   2.438   0.307  16.817  0.1843  0.2535  0.3974
18321TIP3    H176454   2.496   0.259  16.758 -0.1122 -0.6815  0.8602
18321TIP3    H276455   2.497   0.363  16.867  0.4645  0.8899 -0.6119
18322TIP3   OH276456   1.644   1.853   5.314  0.0950 -0.2678 -0.0207
18322TIP3    H176457   1.625   1.925   5.374  1.0061 -0.6979  0.8009
18322TIP3    H276458   1.699   1.794   5.365 -0.2962 -1.3386 -0.8299
18323TIP3   OH276459   4.277   6.657  13.637 -0.0258  0.6110 -0.2291
18323TIP3    H176460   4.192   6.684  13.670 -0.2582 -1.4290  0.9234
18323TIP3    H276461   4.257   6.595  13.567  0.4880 -0.3810  0.4859
18324TIP3   OH276462   6.502   1.215  10.753 -0.2867 -0.0806 -0.7131
18324TIP3    H176463   6.443   1.157  10.800  1.1948 -2.3756 -1.5926
18324TIP3    H276464   6.445   1.280  10.713 -1.8096  0.2985  1.9329
18325TIP3   OH276465   6.372   2.055   3.921  0.0429 -0.2325  0.3641
18325TIP3    H176466   6.336   2.023   3.838 -0.5345  0.1107  0.4757
18325TIP3    H276467   6.296   2.060   3.979  0.1878  0.9598  0.4625
18326TIP3   OH276468   4.811   1.689   2.575 -0.3930 -0.1125  0.7163
18326TIP3    H176469   4.904   1.686   2.598  0.0108  1.1041 -0.7405
18326TIP3    H276470   4.798   1.611   2.522 -0.5454 -1.0500  2.0899
18327TIP3   OH276471   1.219   3.522   3.857 -0.0723 -0.3568 -0.4509
18327TIP3    H176472   1.139   3.477   3.885 -0.8233  0.5280 -1.1274
18327TIP3    H276473   1.187   3.596   3.804  1.1726  0.3270 -0.2628
18328TIP3   OH276474   2.386   0.772  15.351 -0.0621 -0.4906  0.4041
18328TIP3    H176475   2.435   0.756  15.431 -0.4761  0.3958  0.8351
18328TIP3    H276476   2.396   0.691  15.301  0.4214 -0.9483  1.2260
18329TIP3   OH276477   5.047   5.123   1.832 -1.0257 -0.4319 -0.0965
18329TIP3    H176478   4.968   5.072   1.820 -0.9176 -0.4400 -0.7867
18329TIP3    H276479   5.079   5.140   1.743 -0.0725 -0.7173  0.1852
18330TIP3   OH276480   4.114   3.083   1.986  0.2788 -0.1357 -0.3744
18330TIP3    H176481   4.061   3.021   1.935  0.6008 -0.0228 -0.8522
18330TIP3    H276482   4.058   3.161   1.993  1.4360  1.0315 -3.3025
18331TIP3   OH276483   0.663   6.819  16.710  0.4299 -0.0695 -1.0309
18331TIP3    H176484   0.604   6.751  16.742 -0.5470  1.2984  0.1346
18331TIP3    H276485   0.747   6.774  16.697 -0.1214 -1.4210 -0.0266
18332TIP3   OH276486   0.807   3.681   1.200  0.2450 -0.0964  0.2882
18332TIP3    H176487   0.847   3.654   1.283  0.6528  0.1596  0.1744
18332TIP3    H276488   0.802   3.600   1.149 -1.6881 -0.6018  1.2578
18333TIP3   OH276489   2.044   3.696  14.949 -0.0854  0.6024  0.1448
18333TIP3    H176490   2.045   3.749  15.029  0.5264  0.5969  0.1400
18333TIP3    H276491   2.096   3.747  14.887  3.5828 -1.6801  1.2075
18334TIP3   OH276492   0.067   0.581   2.981  0.2068 -0.6909 -0.6048
18334TIP3    H176493   0.025   0.513   2.929  1.4047 -1.2458 -0.8626
18334TIP3    H276494   0.083   0.541   3.066 -0.4086 -0.2605 -0.2848
18335TIP3   OH276495   5.154   0.711   1.197 -0.0071  0.8219  0.1685
18335TIP3    H176496   5.091   0.783   1.207 -0.1474  0.7461 -0.1461
18335TIP3    H276497   5.101   0.637   1.168 -0.1622  0.0475  2.3850
18336TIP3   OH276498   1.789   0.761   1.906  0.0351  0.1110 -0.0245
18336TIP3    H176499   1.809   0.848   1.941  1.0811 -0.9049  2.0322
18336TIP3    H276500   1.719   0.728   1.962  1.7584 -1.5649  1.2257
18337TIP3   OH276501   2.939   0.707  14.002  0.3473 -0.1408 -0.0888
18337TIP3    H176502   2.867   0.677  14.056 -0.0838  1.5488  0.2884
18337TIP3    H276503   3.006   0.639  14.012 -0.7938 -1.2331  0.3181
18338TIP3   OH276504   3.511   5.223  17.167  0.3636 -0.1028  0.5667
18338TIP3    H176505   3.438   5.216  17.228  0.4269 -0.0063  0.6558
18338TIP3    H276506   3.474   5.196  17.083  0.2517 -0.1390  0.6294
18339TIP3   OH276507   2.460   6.778   4.779  0.2588 -0.6838  0.0748
18339TIP3    H176508   2.409   6.767   4.698 -0.7914 -0.0914  0.6384
18339TIP3    H276509   2.454   6.692   4.822  0.6470 -0.9402 -0.3786
18340TIP3   OH276510   4.081   6.246   4.890  0.5093  0.5230 -0.7117
18340TIP3    H176511   4.025   6.251   4.968  1.2234 -2.0844 -0.0045
18340TIP3    H276512   4.169   6.266   4.923  1.2630 -3.1575 -0.2666
18341TIP3   OH276513   2.626   0.398  13.039  0.8240 -0.0112  0.4738
18341TIP3    H176514   2.696   0.334  13.028 -0.0072 -1.0703  1.2111
18341TIP3    H276515   2.566   0.357  13.101  0.3190  1.5299  1.0139
18342TIP3   OH276516   4.705   5.183   3.215  0.0748 -0.0625 -0.4402
18342TIP3    H176517   4.654   5.215   3.290  0.1069 -1.3714  0.1488
18342TIP3    H276518   4.790   5.158   3.253  0.4939  0.3336 -1.1054
18343TIP3   OH276519   4.444   2.210  16.688 -0.6326 -0.0102 -0.5658
18343TIP3    H176520   4.396   2.141  16.735 -0.3021  1.0559  1.4217
18343TIP3    H276521   4.535   2.183  16.692 -0.7806 -0.7900 -2.1636
18344TIP3   OH276522   3.082   6.779   1.418 -0.2713  0.1219 -0.4935
18344TIP3    H176523   3.033   6.861   1.419 -0.0833  0.2562 -1.8220
18344TIP3    H276524   3.069   6.744   1.330  0.3050 -0.8843 -0.1930
18345TIP3   OH276525   1.196   2.049  12.341 -0.2369 -0.2858  0.3107
18345TIP3    H176526   1.207   2.144  12.339 -0.4456 -0.2517  0.6034
18345TIP3    H276527   1.263   2.019  12.402 -0.8473 -0.2168  1.0280
18346TIP3   OH276528   1.171   2.212  10.991 -0.5327 -0.0531 -0.4509
18346TIP3    H176529   1.260   2.179  10.977  0.6581  2.7811  0.2167
18346TIP3    H276530   1.124   2.191  10.910  1.3216  0.2776 -1.6300
18347TIP3   OH276531   6.685   5.735  14.228  0.1340  0.3231 -0.2069
18347TIP3    H176532   6.706   5.739  14.135  1.0118  0.7418  0.0026
18347TIP3    H276533   6.624   5.662  14.236 -0.5525  0.7747 -1.2196
18348TIP3   OH276534   4.711   2.432  13.756  0.6118 -0.1538 -0.4891
18348TIP3    H176535   4.670   2.382  13.685  2.2460 -0.4923 -1.2159
18348TIP3    H276536   4.748   2.366  13.814 -2.1660  0.0578  1.6225
18349TIP3   OH276537   6.246   4.432  13.230 -0.5016 -0.5210 -0.2381
18349TIP3    H176538   6.324   4.389  13.195  0.2885  0.7945 -0.1120
18349TIP3    H276539   6.213   4.486  13.157 -0.4954  0.0087  0.1506
18350TIP3   OH276540   2.513   2.115   2.064 -0.0004  0.5051 -0.5864
18350TIP3    H176541   2.454   2.180   2.100 -0.1911 -0.0675  0.1443
18350TIP3    H276542   2.532   2.146   1.975  0.0136  1.6089 -0.1961
18351TIP3   OH276543   3.210   3.023   1.472 -0.0376 -0.1944  0.3175
18351TIP3    H176544   3.138   3.082   1.447 -0.4850 -0.0820  1.8460
18351TIP3    H276545   3.221   3.037   1.566  0.7330 -1.5969  0.4473
18352TIP3   OH276546   0.572   6.385  13.909 -0.2741 -0.1383  0.7331
18352TIP3    H176547   0.492   6.420  13.948 -1.0533 -1.5835  0.4923
18352TIP3    H276548   0.610   6.329  13.977  0.7268  0.8116  0.9700
18353TIP3   OH276549   4.192   3.576   6.610  0.3859 -0.2337  0.8726
18353TIP3    H176550   4.239   3.499   6.578 -0.2480 -0.3696  0.2591
18353TIP3    H276551   4.119   3.541   6.660 -1.7537 -0.1185 -2.0109
18354TIP3   OH276552   1.193   4.701  10.448 -0.2139  0.3768 -0.9536
18354TIP3    H176553   1.265   4.735  10.500 -0.9339 -0.1201  0.3732
18354TIP3    H276554   1.194   4.755  10.369 -0.0685  2.1606  0.2407
18355TIP3   OH276555   2.027   5.636   3.663  0.0412 -0.0716  0.0095
18355TIP3    H176556   2.058   5.561   3.714 -1.3868  0.2966  1.4336
18355TIP3    H276557   1.993   5.597   3.582 -1.1356 -1.0023  0.9512
18356TIP3   OH276558   1.648   2.296  16.190 -0.3024 -0.0993 -0.1233
18356TIP3    H176559   1.635   2.379  16.234  0.1235  0.1610 -0.4813
18356TIP3    H276560   1.743   2.285  16.186 -0.2032  1.3489 -3.6695
18357TIP3   OH276561   3.481   4.698  12.630  0.0494  0.4346 -0.4546
18357TIP3    H176562   3.415   4.644  12.586  0.6924 -1.5389  0.9324
18357TIP3    H276563   3.563   4.652  12.614  0.5270  0.6658  1.2949
18358TIP3   OH276564   5.123   0.661  11.716  0.3916  0.5232  0.3143
18358TIP3    H176565   5.031   0.658  11.689  0.9180 -1.1496 -1.4111
18358TIP3    H276566   5.159   0.576  11.690  2.4702  1.2023  0.8217
18359TIP3   OH276567   1.422   0.517  16.180  0.2851  0.2023  0.0416
18359TIP3    H176568   1.472   0.458  16.123 -1.0450 -0.8472 -0.0701
18359TIP3    H276569   1.464   0.510  16.265 -0.4939 -1.7436  0.2933
18360TIP3   OH276570   5.466   2.435   4.722 -0.3774  0.2799 -0.3767
18360TIP3    H176571   5.503   2.523   4.714  1.2363 -0.5522 -2.6293
18360TIP3    H276572   5.397   2.432   4.656 -1.0161  0.1027  0.2838
18361TIP3   OH276573   4.743   4.121   0.346 -0.5810  0.2972 -0.4346
18361TIP3    H176574   4.759   4.184   0.416  0.6670 -1.2329  0.6872
18361TIP3    H276575   4.828   4.079   0.331 -0.7721  0.7123 -3.0005
18362TIP3   OH276576   1.906   1.140  11.616 -1.0106  0.4508  0.0923
18362TIP3    H176577   1.961   1.205  11.660 -0.0494  0.2194 -0.7343
18362TIP3    H276578   1.956   1.117  11.537 -1.6246 -0.8295  0.0717
18363TIP3   OH276579   1.243   1.739   4.136  0.2491 -0.4748 -0.2930
18363TIP3    H176580   1.266   1.650   4.107  0.4329 -0.3026 -0.6868
18363TIP3    H276581   1.258   1.739   4.230 -0.2429 -1.0161 -0.2113
18364TIP3   OH276582   3.706   4.757   5.727  0.1717  0.1444 -0.4114
18364TIP3    H176583   3.780   4.732   5.672 -1.5856 -0.7198 -2.4704
18364TIP3    H276584   3.673   4.675   5.763 -0.0104  0.4793  0.1883
18365TIP3   OH276585   5.680   0.341   0.412  0.2899  0.0795  0.0211
18365TIP3    H176586   5.646   0.256   0.439  0.3765 -0.2539 -0.9072
18365TIP3    H276587   5.774   0.328   0.405  0.4279  0.5555  0.9718
18366TIP3   OH276588   0.434   1.455   2.363 -0.5281  0.0874 -0.3202
18366TIP3    H176589   0.395   1.505   2.292 -1.2275 -1.0941 -0.7933
18366TIP3    H276590   0.490   1.517   2.409  0.2737  0.7708 -2.1686
18367TIP3   OH276591   4.516   2.551   1.259  0.2971 -0.1106  0.0645
18367TIP3    H176592   4.536   2.638   1.223  0.3405 -0.5859 -1.0618
18367TIP3    H276593   4.459   2.511   1.194 -1.0996 -0.3022  1.3696
18368TIP3   OH276594   1.788   0.135   0.387 -0.0464 -0.1304 -0.1676
18368TIP3    H176595   1.804   0.227   0.408  1.1407 -0.3064 -0.2921
18368TIP3    H276596   1.806   0.129   0.293 -1.1330 -0.2763 -0.3760
18369TIP3   OH276597   2.797   0.214   1.373  0.8161  0.1654 -0.5252
18369TIP3    H176598   2.729   0.254   1.319  1.6171  1.4395 -0.5743
18369TIP3    H276599   2.853   0.167   1.311  0.3286 -0.4091 -0.5409
18370TIP3   OH276600   6.275   3.592  11.866 -0.5286  0.0268 -0.3404
18370TIP3    H176601   6.282   3.535  11.942  0.8854 -1.3587 -1.4894
18370TIP3    H276602   6.182   3.617  11.864 -0.7282 -0.5004  1.3938
18371TIP3   OH276603   6.500   3.285  16.475 -0.1447  0.0318 -0.2172
18371TIP3    H176604   6.572   3.334  16.435  0.8532  0.4439  2.0487
18371TIP3    H276605   6.512   3.195  16.443  0.3882  0.4259 -1.1565
18372TIP3   OH276606   3.211   1.763   3.210  0.0848 -0.0706 -0.2899
18372TIP3    H176607   3.134   1.727   3.165  0.3138 -1.1513  0.1933
18372TIP3    H276608   3.282   1.704   3.187  1.6046  2.8892 -3.6937
18373TIP3   OH276609   5.059   4.216  15.800 -0.1999  0.1334 -0.1798
18373TIP3    H176610   5.015   4.267  15.733 -0.3743 -1.9330 -1.6742
18373TIP3    H276611   4.991   4.159  15.836  0.3786 -0.2974  0.2591
18374TIP3   OH276612   4.223   0.507  10.996 -0.1962 -0.4089  0.1142
18374TIP3    H176613   4.162   0.538  11.063 -2.8926 -0.2529 -2.3291
18374TIP3    H276614   4.261   0.587  10.958  0.1339 -0.4545  0.3400
18375TIP3   OH276615   3.372   2.555  10.630  0.1173  0.0768  0.7845
18375TIP3    H176616   3.293   2.607  10.618  0.5480  0.3209 -1.1618
18375TIP3    H276617   3.341   2.466  10.646 -0.5476 -0.0661 -1.1741
18376TIP3   OH276618   4.124   0.884   2.544 -0.0502 -0.0839 -0.8525
18376TIP3    H176619   4.145   0.926   2.460  2.3086  2.1398  0.7945
18376TIP3    H276620   4.176   0.931   2.609 -1.3566 -2.1685  1.8226
18377TIP3   OH276621   1.446   2.539  16.014 -0.0576 -0.2344 -0.2063
18377TIP3    H176622   1.506   2.605  16.048  0.7667 -1.5072  0.9004
18377TIP3    H276623   1.369   2.545  16.070 -0.0956 -0.0127 -0.2850
18378TIP3   OH276624   2.776   3.762   1.068 -0.3154 -0.3984  0.9079
18378TIP3    H176625   2.830   3.743   0.992 -0.0573  0.7894  0.7961
18378TIP3    H276626   2.694   3.714   1.051 -0.9671  1.3215 -0.9926
18379TIP3   OH276627   3.023   1.721  15.174  0.3215  0.4926  0.0910
18379TIP3    H176628   3.078   1.686  15.105  0.2235 -0.6376  0.5744
18379TIP3    H276629   3.065   1.803  15.200  2.1698 -0.6961  0.9161
18380TIP3   OH276630   5.352   0.738   1.004 -0.0327  0.1041 -0.4961
18380TIP3    H176631   5.329   0.830   0.989  2.3774  1.0733  1.4312
18380TIP3    H276632   5.286   0.707   1.065 -1.3654  0.2749 -1.8059
18381TIP3   OH276633   4.220   4.972  10.386 -0.2354 -0.9789 -0.1273
18381TIP3    H176634   4.265   5.001  10.466 -1.2579 -1.0392  0.4852
18381TIP3    H276635   4.246   5.035  10.319  0.1604 -0.5797  0.4006
18382TIP3   OH276636   2.722   3.701   0.348 -0.2699 -0.2389 -0.3226
18382TIP3    H176637   2.646   3.648   0.370 -0.9735  0.4808 -1.0096
18382TIP3    H276638   2.760   3.659   0.271  0.6218 -1.1794  0.6115
18383TIP3   OH276639   0.763   0.774  14.188  0.0540 -0.0365  0.3707
18383TIP3    H176640   0.679   0.769  14.143  0.0822  2.8767 -0.0892
18383TIP3    H276641   0.798   0.685  14.183 -2.0502 -0.8155 -1.2416
18384TIP3   OH276642   3.292   6.533   3.407  0.2396 -0.1240 -0.3223
18384TIP3    H176643   3.288   6.459   3.467 -1.7001 -0.0728 -0.3483
18384TIP3    H276644   3.229   6.596   3.442  1.9439  1.5708 -0.2354
18385TIP3   OH276645   2.257   0.215  15.554 -0.3707 -0.1585 -0.4845
18385TIP3    H176646   2.261   0.179  15.466  1.4545  0.8804 -0.8635
18385TIP3    H276647   2.290   0.145  15.610 -0.4220 -0.4080 -0.7676
18386TIP3   OH276648   6.170   0.805   3.288 -0.1831  0.3104  0.2183
18386TIP3    H176649   6.236   0.844   3.346  0.1176 -0.3776  0.3486
18386TIP3    H276650   6.186   0.845   3.203  3.0311 -2.7204 -0.7287
18387TIP3   OH276651   5.782   0.827  15.202  0.1682  0.5045  0.1913
18387TIP3    H176652   5.731   0.764  15.152  1.4001  0.2520 -0.7814
18387TIP3    H276653   5.856   0.777  15.236  0.5020  1.1565  0.4531
18388TIP3   OH276654   4.162   0.488   4.422 -0.2124  0.1400  0.0547
18388TIP3    H176655   4.100   0.546   4.467  0.7354  0.7069  0.6416
18388TIP3    H276656   4.112   0.408   4.407 -0.5238 -0.0909  2.2100
18389TIP3   OH276657   0.702   6.275   0.751  0.2811  0.6936 -0.4833
18389TIP3    H176658   0.655   6.334   0.809  1.5614  0.7433  0.5344
18389TIP3    H276659   0.663   6.289   0.665 -2.4452 -0.2516  0.5720
18390TIP3   OH276660   5.207   2.284   3.907  0.9565  0.8462  0.0129
18390TIP3    H176661   5.183   2.254   3.820  2.0900  0.8428 -0.3126
18390TIP3    H276662   5.301   2.304   3.901  1.4634 -0.7978  1.6747
18391TIP3   OH276663   1.235   2.951   0.074 -0.5312 -0.1183  0.5712
18391TIP3    H176664   1.176   2.884   0.108 -1.5022  1.4110  1.9705
18391TIP3    H276665   1.193   3.034   0.097  0.1539  1.0026 -1.9554
18392TIP3   OH276666   5.376   4.024  14.543 -0.0682 -0.1957  0.1014
18392TIP3    H176667   5.304   4.062  14.594 -0.8427  3.2940 -3.3753
18392TIP3    H276668   5.455   4.062  14.581 -0.3070 -0.8062  1.2470
18393TIP3   OH276669   2.243   0.849   0.514  0.3095 -0.3189  0.0106
18393TIP3    H176670   2.292   0.771   0.488 -0.5616 -0.7943 -0.2246
18393TIP3    H276671   2.261   0.858   0.608  1.9231  0.2935 -0.3392
18394TIP3   OH276672   3.197   4.545  13.128 -0.2047  0.5357 -0.1003
18394TIP3    H176673   3.125   4.497  13.168 -0.6259  2.1787  1.1859
18394TIP3    H276674   3.188   4.635  13.161 -0.0644  1.7853 -3.2762
18395TIP3   OH276675   5.935   4.079  16.652 -0.2595  0.0289  0.1685
18395TIP3    H176676   5.940   4.110  16.562  3.0089  1.6708  0.8001
18395TIP3    H276677   5.932   4.159  16.704 -0.4843 -0.8750  1.5674
18396TIP3   OH276678   6.136   6.296   1.329  0.2711 -0.1756 -0.0990
18396TIP3    H176679   6.227   6.267   1.336 -0.1152 -0.5814  3.9888
18396TIP3    H276680   6.085   6.216   1.328 -0.1427  0.0853 -1.3987
18397TIP3   OH276681   2.375   6.800  15.821  0.0280 -0.5157  0.1985
18397TIP3    H176682   2.363   6.721  15.769 -1.6702  0.0160 -0.2314
18397TIP3    H276683   2.457   6.785  15.869  0.9254 -1.5529 -1.6092
18398TIP3   OH276684   6.315   4.606  16.475 -0.1340  0.5473  0.0931
18398TIP3    H176685   6.275   4.520  16.468  0.9760  0.0371 -0.0660
18398TIP3    H276686   6.376   4.598  16.548 -0.9385  1.5726  0.9078
18399TIP3   OH276687   1.378   0.407  14.593  0.0186  0.1015  0.5735
18399TIP3    H176688   1.446   0.411  14.660 -1.5944 -0.4052  2.2917
18399TIP3    H276689   1.338   0.495  14.595  0.9282  0.5544 -0.7717
18400TIP3   OH276690   4.428   2.037  13.188 -0.0863 -0.0725 -0.1353
18400TIP3    H176691   4.406   1.972  13.255 -1.1144  1.7593  1.3519
18400TIP3    H276692   4.523   2.048  13.197 -0.1546 -0.1301  0.7682
18401TIP3   OH276693   3.170   6.281   6.397 -0.2587  0.7420 -0.7792
18401TIP3    H176694   3.263   6.269   6.416 -0.5579  1.0428  0.9927
18401TIP3    H276695   3.148   6.366   6.435 -1.2119  0.7834 -1.3839
18402TIP3   OH276696   3.348   5.357   5.695 -0.3493  0.1524  0.2640
18402TIP3    H176697   3.393   5.278   5.666  0.5916  0.2704  1.4081
18402TIP3    H276698   3.397   5.429   5.654 -0.2867  0.2170  0.4527
18403TIP3   OH276699   4.272   4.910  12.345 -0.3113  0.1613 -0.1502
18403TIP3    H176700   4.288   4.849  12.273 -1.0089  0.8508 -0.8910
18403TIP3    H276701   4.231   4.856  12.413  0.7271 -0.5818 -0.0867
18404TIP3   OH276702   2.660   0.940   4.836 -0.2676 -0.5408 -0.6996
18404TIP3    H176703   2.698   0.926   4.749  1.4754 -0.6560  0.0534
18404TIP3    H276704   2.657   1.035   4.846  0.5878 -0.5315 -0.4577
18405TIP3   OH276705   5.097   1.531   3.844  0.3317  0.0287 -0.3864
18405TIP3    H176706   5.006   1.561   3.842 -0.5533 -2.4755  0.1128
18405TIP3    H276707   5.115   1.504   3.754  0.3583 -0.1071 -0.3402
18406TIP3   OH276708   5.397   4.347  12.032  0.1778 -0.1530  0.4285
18406TIP3    H176709   5.377   4.267  11.984 -1.7311 -0.9724  2.4747
18406TIP3    H276710   5.394   4.321  12.124 -2.1114  2.6066  1.1988
18407TIP3   OH276711   1.640   5.287   5.023  0.2076  0.1439  0.1672
18407TIP3    H176712   1.717   5.262   5.074  1.4416  1.4884 -1.0018
18407TIP3    H276713   1.632   5.381   5.037 -1.1276  0.0410  0.1384
18408TIP3   OH276714   2.597   4.605   5.686 -0.0786 -0.4068  0.3099
18408TIP3    H176715   2.581   4.514   5.713 -1.1321 -0.8554 -1.7217
18408TIP3    H276716   2.682   4.602   5.642 -1.0159 -0.8233 -1.5173
18409TIP3   OH276717   5.090   5.240   3.790 -0.8104  0.1832  0.6926
18409TIP3    H176718   5.140   5.180   3.846  0.4603  2.4505  2.0806
18409TIP3    H276719   5.125   5.226   3.702  1.7289  1.1390  1.5150
18410TIP3   OH276720   5.887   2.786  14.917 -0.4974 -0.5644  0.6149
18410TIP3    H176721   5.966   2.809  14.867 -0.6537 -2.1183 -0.3445
18410TIP3    H276722   5.891   2.844  14.993  1.3899 -0.3519  0.3996
18411TIP3   OH276723   2.451   3.198  13.460  0.0684 -0.0190  0.0487
18411TIP3    H176724   2.531   3.218  13.412 -0.7649  0.7337 -1.0751
18411TIP3    H276725   2.479   3.184  13.550  1.5404 -0.4386 -0.4601
18412TIP3   OH276726   4.319   5.368   3.004 -0.2100  0.1676  0.1036
18412TIP3    H176727   4.253   5.437   3.017 -1.3668 -1.1077  1.1341
18412TIP3    H276728   4.279   5.307   2.942  1.2501  0.9542 -1.6672
18413TIP3   OH276729   5.683   1.851  15.302  0.4969  0.0326 -0.2598
18413TIP3    H176730   5.599   1.817  15.333  0.2162  1.3969  0.5083
18413TIP3    H276731   5.720   1.779  15.251 -0.6056 -1.0013  0.3640
18414TIP3   OH276732   6.632   6.767   4.873 -0.6357 -0.5019  0.2746
18414TIP3    H176733   6.541   6.751   4.849 -0.8855 -1.3550  1.7020
18414TIP3    H276734   6.633   6.857   4.907 -1.0249 -0.6467  0.6585
18415TIP3   OH276735   3.868   3.126  14.136  0.3084 -0.0680  0.3767
18415TIP3    H176736   3.784   3.110  14.093  0.9847 -1.9008 -0.3202
18415TIP3    H276737   3.893   3.215  14.109 -0.3383 -0.3605 -1.2495
18416TIP3   OH276738   5.926   6.173  11.406  0.3489 -0.4812  0.3307
18416TIP3    H176739   5.936   6.082  11.380  0.4522 -0.0445 -1.2170
18416TIP3    H276740   6.010   6.214  11.384  0.1787  0.0527  0.6574
18417TIP3   OH276741   4.294   2.451   2.236  0.3836  0.5724 -0.2400
18417TIP3    H176742   4.315   2.435   2.328 -2.3002 -1.5441  0.0909
18417TIP3    H276743   4.225   2.518   2.239 -0.0077  0.1903 -0.6981
18418TIP3   OH276744   0.238   4.283  10.518 -0.4449 -0.3470 -0.4023
18418TIP3    H176745   0.204   4.335  10.591 -2.4695 -2.2973  0.1085
18418TIP3    H276746   0.170   4.287  10.451 -0.0558 -1.3048 -0.8617
18419TIP3   OH276747   3.299   4.142   1.947  0.2259  0.6590 -0.1952
18419TIP3    H176748   3.249   4.209   1.901 -2.4963 -0.9112  0.3538
18419TIP3    H276749   3.332   4.186   2.026  1.8134  2.3640 -1.7605
18420TIP3   OH276750   4.115   5.168   4.378 -0.6472 -0.3570 -0.7245
18420TIP3    H176751   4.188   5.230   4.386 -0.8183 -0.3757  1.2016
18420TIP3    H276752   4.040   5.216   4.413 -1.7327 -0.1145 -3.2644
18421TIP3   OH276753   1.761   0.225  17.114  0.8798 -0.3489  0.3309
18421TIP3    H176754   1.767   0.242  17.208  0.1915  1.6243  0.0380
18421TIP3    H276755   1.820   0.288  17.075 -1.5544  1.3327 -0.7777
18422TIP3   OH276756   0.278   3.166   4.108  0.1615  0.7269 -0.2117
18422TIP3    H176757   0.236   3.248   4.135  0.3041  0.8577 -0.3838
18422TIP3    H276758   0.356   3.194   4.060  0.0470  0.4939 -0.5350
18423TIP3   OH276759   3.379   3.971  10.954 -0.1643 -0.5790 -0.2567
18423TIP3    H176760   3.320   3.984  10.880 -0.4291 -0.4086 -0.0162
18423TIP3    H276761   3.466   3.969  10.915 -0.1647  1.1897 -0.3928
18424TIP3   OH276762   4.406   0.999  16.738 -0.3515  0.1986 -0.6519
18424TIP3    H176763   4.459   0.937  16.788  0.4319 -0.0069 -1.7108
18424TIP3    H276764   4.332   1.019  16.795  0.3426 -0.2980  0.4340
18425TIP3   OH276765   5.301   3.261   2.609  0.1966 -0.6182 -0.2678
18425TIP3    H176766   5.222   3.258   2.555 -0.9648  1.1656  1.2326
18425TIP3    H276767   5.367   3.303   2.553  0.0456 -1.9744 -1.4765
18426TIP3   OH276768   0.020   5.889  11.404 -0.4421  0.3935  0.4348
18426TIP3    H176769   0.009   5.853  11.316  1.5072  2.1921 -0.5983
18426TIP3    H276770  -0.065   5.927  11.426 -0.4024  1.5913 -1.4428
18427TIP3   OH276771   3.646   6.397   0.815 -0.1993 -0.0377 -0.0021
18427TIP3    H176772   3.640   6.301   0.810  0.3607 -0.1031  0.6167
18427TIP3    H276773   3.573   6.422   0.872 -0.2816 -0.0980 -0.0786
18428TIP3   OH276774   0.967   4.498  14.254  0.5732  0.2760  0.0602
18428TIP3    H176775   0.919   4.499  14.337  0.7824  0.7275  0.1774
18428TIP3    H276776   0.901   4.478  14.188  0.4077 -0.0950  0.3362
18429TIP3   OH276777   3.819   1.858   4.242 -0.5442 -0.4156  0.0252
18429TIP3    H176778   3.899   1.821   4.206 -0.5456 -0.8467  0.4580
18429TIP3    H276779   3.756   1.786   4.240 -0.5540 -0.4303  0.8449
18430TIP3   OH276780   1.203   2.233   6.590 -0.7468 -0.1903 -0.0181
18430TIP3    H176781   1.132   2.226   6.654  0.0546  0.1475  0.9007
18430TIP3    H276782   1.226   2.326   6.589 -0.0799 -0.3543 -0.0647
18431TIP3   OH276783   3.527   5.785  10.289 -0.2651 -0.2245  0.1160
18431TIP3    H176784   3.497   5.741  10.368 -1.0844  1.3248  0.6749
18431TIP3    H276785   3.513   5.878  10.306 -0.1750  0.1415 -1.7327
18432TIP3   OH276786   5.009   0.592   3.913  0.2762  0.2185  0.1329
18432TIP3    H176787   5.022   0.606   3.820  1.9690  0.2012  0.3430
18432TIP3    H276788   4.941   0.654   3.938  0.4161  0.8151 -0.9573
18433TIP3   OH276789   0.768   5.562  15.254 -0.4679 -0.3843 -0.6475
18433TIP3    H176790   0.842   5.605  15.211 -0.0391 -1.6417 -1.1788
18433TIP3    H276791   0.730   5.630  15.310  1.4580  0.0959  0.1149
18434TIP3   OH276792   1.043   3.082   2.537 -0.2302 -0.0493  0.1187
18434TIP3    H176793   1.079   3.065   2.624 -0.2101  1.7835  0.4871
18434TIP3    H276794   1.039   3.177   2.531 -3.4644 -0.1733 -0.5553
18435TIP3   OH276795   2.217   6.053  12.116 -0.1295  0.8429 -0.0811
18435TIP3    H176796   2.306   6.033  12.086 -0.4489  1.1983 -1.2837
18435TIP3    H276797   2.229   6.119  12.184  0.5480  0.6387  0.0030
18436TIP3   OH276798   5.069   2.385   1.174  0.0291 -0.2981  0.5597
18436TIP3    H176799   5.117   2.303   1.183 -0.4744 -0.6498  0.0096
18436TIP3    H276800   5.102   2.423   1.093 -0.4076 -0.3940  0.3389
18437TIP3   OH276801   2.430   1.270   1.627  1.0057  0.2445  0.6244
18437TIP3    H176802   2.453   1.285   1.535 -0.8854  0.7945  0.2118
18437TIP3    H276803   2.339   1.300   1.634  0.6145 -1.2427  2.3069
18438TIP3   OH276804   6.029   2.902   0.460 -0.0803  0.1418 -0.2273
18438TIP3    H176805   6.122   2.925   0.464 -0.1446  0.3424  0.2201
18438TIP3    H276806   5.994   2.953   0.387  0.2796 -0.3744 -0.7623
18439TIP3   OH276807   1.358   6.736   1.861  0.1873  0.4224  0.3191
18439TIP3    H176808   1.399   6.650   1.871 -1.0758 -0.0649  1.5668
18439TIP3    H276809   1.349   6.748   1.766  1.5809 -0.2285  0.0963
18440TIP3   OH276810   3.293   6.740   5.176 -0.2996  0.2340 -0.2293
18440TIP3    H176811   3.326   6.656   5.208 -1.8000 -1.1732 -2.2580
18440TIP3    H276812   3.303   6.736   5.081  2.1781  3.5062 -0.1931
18441TIP3   OH276813   2.254   1.348  15.787  0.1047 -0.4492  0.4816
18441TIP3    H176814   2.241   1.348  15.693 -0.0324 -1.1987  0.4998
18441TIP3    H276815   2.303   1.268  15.805  1.8638  0.6841  0.8084
18442TIP3   OH276816   5.931   3.708   0.862 -0.4147 -0.2737  0.3536
18442TIP3    H176817   6.021   3.739   0.855 -1.2598  2.4649  0.8407
18442TIP3    H276818   5.901   3.699   0.772  0.0178 -0.2051  0.2028
18443TIP3   OH276819   5.772   1.281  10.527  0.3487  0.8396 -0.1871
18443TIP3    H176820   5.761   1.221  10.453 -0.9381 -0.2362  0.8380
18443TIP3    H276821   5.695   1.338  10.523 -0.6415 -0.3503  1.3107
18444TIP3   OH276822   0.294   1.934   1.184  0.4913 -0.7276  0.2867
18444TIP3    H176823   0.388   1.948   1.172  0.1935  1.4259  0.3198
18444TIP3    H276824   0.253   1.986   1.115 -0.8185  2.2067  3.1340
18445TIP3   OH276825   0.048   2.367  16.355 -0.0781 -0.1891  0.2129
18445TIP3    H176826   0.133   2.403  16.380 -0.2912 -0.2017  0.9607
18445TIP3    H276827   0.036   2.292  16.413 -0.2112 -0.7057 -0.4753
18446TIP3   OH276828   6.622   5.095  14.852  0.0883 -0.6849 -0.3270
18446TIP3    H176829   6.659   5.099  14.940 -1.4903 -0.2858  0.3322
18446TIP3    H276830   6.639   5.006  14.823 -1.3044 -1.5018  1.2577
18447TIP3   OH276831   3.643   0.584   4.074 -0.2578 -0.1626 -0.0429
18447TIP3    H176832   3.569   0.643   4.093 -0.7892  0.2002 -3.0530
18447TIP3    H276833   3.681   0.619   3.994  2.3778 -1.1650  0.7321
18448TIP3   OH276834   6.633   1.689  13.712  0.0240 -0.4631 -0.3665
18448TIP3    H176835   6.645   1.719  13.802  1.3797 -2.8227  0.2653
18448TIP3    H276836   6.712   1.639  13.692  0.2431  0.9162 -3.2628
18449TIP3   OH276837   1.243   2.548   5.907  0.1725 -0.0512 -0.3436
18449TIP3    H176838   1.285   2.487   5.846  0.0201 -0.8460  0.3442
18449TIP3    H276839   1.276   2.523   5.993 -0.6402  0.2127  0.0479
18450TIP3   OH276840   6.641   1.673   1.860  0.3211 -0.2612  0.3949
18450TIP3    H176841   6.626   1.623   1.780  0.5172 -0.0525  0.2264
18450TIP3    H276842   6.644   1.764   1.831  3.9258 -0.4178  0.0962
18451TIP3   OH276843   0.138   2.221   0.138 -0.1592  0.2089  1.1762
18451TIP3    H176844   0.066   2.205   0.077  1.3012 -0.7748 -0.3336
18451TIP3    H276845   0.189   2.291   0.097  0.5268 -0.0915  1.5042
18452TIP3   OH276846   3.682   0.175  17.037  0.1032  0.1166 -0.1260
18452TIP3    H176847   3.726   0.199  16.955  0.0623  0.3158 -0.0914
18452TIP3    H276848   3.589   0.195  17.021 -0.2071 -1.6671 -0.7110
18453TIP3   OH276849   5.063   2.594  13.697  0.2137 -0.0323  0.1048
18453TIP3    H176850   5.080   2.671  13.752 -2.6789  1.6141 -1.1675
18453TIP3    H276851   4.985   2.618  13.646 -0.9010 -3.8975 -0.2005
18454TIP3   OH276852   6.193   0.595  13.724 -0.3453 -0.4825  0.3638
18454TIP3    H176853   6.150   0.658  13.781  1.5068 -0.1821  1.4727
18454TIP3    H276854   6.261   0.645  13.679 -1.4997 -0.8163 -1.8218
18455TIP3   OH276855   3.041   3.885  13.305 -0.7402  0.0934 -0.2538
18455TIP3    H176856   3.044   3.803  13.354  0.3631 -0.3134 -0.9820
18455TIP3    H276857   3.105   3.873  13.234 -0.7569  1.4784 -0.5141
18456TIP3   OH276858   2.216   6.000   5.463 -0.0114 -0.2871  0.3778
18456TIP3    H176859   2.208   6.037   5.375  4.9169  0.9308  0.2983
18456TIP3    H276860   2.258   5.915   5.449 -0.8486 -0.8867  1.4593
18457TIP3   OH276861   4.102   4.398   1.569  0.1216 -0.2596 -0.3600
18457TIP3    H176862   4.119   4.453   1.646  2.7389  0.5754 -1.4713
18457TIP3    H276863   4.011   4.414   1.548 -0.3882  0.2004  2.0136
18458TIP3   OH276864   2.657   3.606   1.981  0.8230  0.5046 -0.1681
18458TIP3    H176865   2.744   3.634   1.955  0.2399  1.2895 -1.3156
18458TIP3    H276866   2.644   3.644   2.068  1.9246 -0.2881  0.3566
18459TIP3   OH276867   4.103   3.698   4.181 -0.2165 -0.2364  0.1728
18459TIP3    H176868   4.062   3.784   4.168  0.3325  0.0623  0.4276
18459TIP3    H276869   4.113   3.690   4.276  1.9790  0.4628  0.0127
18460TIP3   OH276870   3.112   4.214   2.601 -0.2061 -0.4660  0.0740
18460TIP3    H176871   3.019   4.233   2.602 -0.5893 -2.2921  0.8266
18460TIP3    H276872   3.154   4.300   2.605 -1.8616  0.3066  1.6179
18461TIP3   OH276873   0.973   2.910  12.745  0.2578  0.2223  0.0523
18461TIP3    H176874   1.062   2.877  12.747 -0.1022 -0.8163 -0.6093
18461TIP3    H276875   0.920   2.840  12.781 -0.4160  0.4079 -0.5550
18462TIP3   OH276876   5.907   2.059   3.201  0.1923  0.0396  0.0032
18462TIP3    H176877   5.973   2.107   3.252  0.5780 -0.6327  0.1464
18462TIP3    H276878   5.955   1.984   3.165 -0.4992 -0.4731  0.1379
18463TIP3   OH276879   4.318   1.040   0.988  0.0440 -0.1510  0.6478
18463TIP3    H176880   4.341   1.084   0.906  0.7117 -1.8234 -0.0867
18463TIP3    H276881   4.392   1.059   1.046  0.4616 -0.5151  0.2445
18464TIP3   OH276882   6.307   0.356  12.311 -0.1362  0.2982 -0.0746
18464TIP3    H176883   6.303   0.411  12.233 -1.4391  0.0713 -0.1817
18464TIP3    H276884   6.254   0.279  12.290  0.8102 -0.5111  0.4566
18465TIP3   OH276885   2.002   6.117   4.591  0.0956  0.3264 -0.0696
18465TIP3    H176886   1.945   6.129   4.515  0.3560 -1.5168 -0.5897
18465TIP3    H276887   1.946   6.135   4.666 -0.4373  1.1786 -0.6506
18466TIP3   OH276888   4.982   1.068  15.943 -0.5751  0.7171  0.0715
18466TIP3    H176889   5.077   1.059  15.949 -0.6578  0.3117  0.7951
18466TIP3    H276890   4.967   1.162  15.953 -0.3117  0.6771  0.9180
18467TIP3   OH276891   6.190   6.250  11.333 -0.2354  0.4835  0.1330
18467TIP3    H176892   6.247   6.175  11.315 -0.4369  0.3457  0.0700
18467TIP3    H276893   6.248   6.315  11.371  0.2597  0.8728 -1.2546
18468TIP3   OH276894   4.148   1.987  11.876 -0.5530  0.3377 -0.1641
18468TIP3    H176895   4.080   2.035  11.829 -0.1790 -0.2457 -1.3248
18468TIP3    H276896   4.115   1.979  11.965 -0.8669  2.2643 -0.0867
18469TIP3   OH276897   5.305   2.098   3.462 -0.5141  0.2853 -0.0423
18469TIP3    H176898   5.334   2.081   3.551 -4.1147  0.9241  1.3276
18469TIP3    H276899   5.283   2.192   3.462 -0.1741  0.3805 -1.7334
18470TIP3   OH276900   5.119   3.801   3.712 -0.0456  0.1692 -0.0898
18470TIP3    H176901   5.090   3.734   3.775 -0.7745 -0.7572 -1.3966
18470TIP3    H276902   5.161   3.752   3.642 -0.5813  1.0819 -1.0606
18471TIP3   OH276903   3.673   0.528   6.380  0.7271 -0.0928 -0.4761
18471TIP3    H176904   3.654   0.618   6.353  0.7104 -0.0408 -0.2877
18471TIP3    H276905   3.631   0.519   6.465 -0.5901 -0.7587 -1.1775
18472TIP3   OH276906   0.518   0.508  14.921 -0.1635 -0.5865  0.5050
18472TIP3    H176907   0.541   0.553  15.003  1.3720  0.9827 -0.7343
18472TIP3    H276908   0.600   0.469  14.891 -0.9031 -1.8832  0.1370
18473TIP3   OH276909   3.212   5.918   1.082 -0.1500  0.1776 -0.4801
18473TIP3    H176910   3.252   5.939   1.166 -0.4411  0.5560 -0.4351
18473TIP3    H276911   3.204   5.822   1.083 -0.8200  0.2377  0.2327
18474TIP3   OH276912   2.638   6.310   1.150 -0.3219  0.3396  0.1859
18474TIP3    H176913   2.635   6.399   1.114 -1.8883 -0.3815 -1.5719
18474TIP3    H276914   2.703   6.265   1.096 -1.4944 -0.3031 -0.7122
18475TIP3   OH276915   1.887   4.207   3.362 -0.0600  0.3288 -0.2840
18475TIP3    H176916   1.911   4.255   3.441  0.6871  0.4233 -0.5638
18475TIP3    H276917   1.933   4.123   3.370  0.2809  0.4695 -0.7781
18476TIP3   OH276918   3.082   3.504  15.662 -0.3647  0.1478  0.2010
18476TIP3    H176919   3.089   3.462  15.748  0.3796 -1.0566 -0.4401
18476TIP3    H276920   3.121   3.590  15.675  0.5915 -0.3694  0.8523
18477TIP3   OH276921   6.676   6.185   6.294  0.2158  0.4233 -0.2148
18477TIP3    H176922   6.616   6.245   6.338  0.5773  1.0142 -0.5234
18477TIP3    H276923   6.655   6.099   6.330 -0.6949  0.6551 -0.1968
18478TIP3   OH276924   1.764   4.672  12.488  0.0722  0.2379  0.0929
18478TIP3    H176925   1.684   4.700  12.533 -0.7073 -2.6771  0.6521
18478TIP3    H276926   1.737   4.662  12.396 -0.0869 -0.1677  0.1791
18479TIP3   OH276927   3.217   6.565   5.612  0.0585 -0.2021  0.0930
18479TIP3    H176928   3.147   6.520   5.659  0.7899 -1.2656  0.1922
18479TIP3    H276929   3.229   6.515   5.531  0.0424  0.5460 -0.3759
18480TIP3   OH276930   4.493   4.828   2.299 -0.2439 -0.2280  0.0847
18480TIP3    H176931   4.562   4.893   2.287  0.9627 -0.9457  2.7111
18480TIP3    H276932   4.536   4.755   2.344 -2.7777 -0.4520  2.3224
18481TIP3   OH276933   0.273   3.960   0.381 -0.5019 -0.4371 -1.0217
18481TIP3    H176934   0.199   3.936   0.437  0.6013 -0.0535  0.6480
18481TIP3    H276935   0.263   3.905   0.304 -0.4975 -3.0514  0.7822
18482TIP3   OH276936   2.455   0.800   5.743 -0.2626 -0.0374  0.2817
18482TIP3    H176937   2.491   0.882   5.777 -0.5904  0.9433 -1.7024
18482TIP3    H276938   2.526   0.736   5.754  0.6855  0.9593  0.0336
18483TIP3   OH276939   4.618   6.577   3.952  0.0945  0.2464  0.0884
18483TIP3    H176940   4.704   6.548   3.921  0.1707 -0.3645  0.8656
18483TIP3    H276941   4.636   6.652   4.008  0.0023  0.9862 -0.8479
18484TIP3   OH276942   3.208   5.861   4.693 -0.2526 -0.0917 -0.0944
18484TIP3    H176943   3.166   5.821   4.617 -1.1775 -0.7702  0.7635
18484TIP3    H276944   3.163   5.944   4.706 -1.1611 -0.6915  0.6553
18485TIP3   OH276945   2.203   3.607  15.316 -0.0277  0.1048  0.4123
18485TIP3    H176946   2.292   3.615  15.280 -0.3328 -1.3599 -0.6666
18485TIP3    H276947   2.155   3.679  15.276  0.0066 -0.6499 -0.9959
18486TIP3   OH276948   6.191   2.147   4.899 -0.1023 -0.6508  0.2381
18486TIP3    H176949   6.249   2.084   4.858 -0.0313 -1.1506  1.1057
18486TIP3    H276950   6.130   2.173   4.829  0.6009 -0.7860 -0.4258
18487TIP3   OH276951   3.561   0.724   3.622  0.2444 -0.0822  0.0971
18487TIP3    H176952   3.501   0.662   3.664 -0.0806  0.1762  0.0156
18487TIP3    H276953   3.518   0.809   3.632  0.4875  0.0717 -0.1708
18488TIP3   OH276954   1.911   5.131   1.632 -0.3698  0.7058  0.2671
18488TIP3    H176955   1.862   5.050   1.615 -0.0261 -0.0698  2.7769
18488TIP3    H276956   1.976   5.135   1.561 -2.2144  0.2808 -1.4823
18489TIP3   OH276957   3.426   2.063  16.052  0.4499  0.6920 -0.1634
18489TIP3    H176958   3.454   1.972  16.061 -2.4573 -0.1855  0.5697
18489TIP3    H276959   3.449   2.103  16.136 -0.8378 -0.1428  0.6136
18490TIP3   OH276960   5.377   0.480   5.728  0.0415 -0.2195 -0.3391
18490TIP3    H176961   5.398   0.463   5.637 -0.0398 -1.0597 -0.2068
18490TIP3    H276962   5.460   0.504   5.768  0.2447 -0.7618 -0.4343
18491TIP3   OH276963   1.369   3.385   2.017  0.2706 -0.1517  0.6255
18491TIP3    H176964   1.354   3.479   2.018  0.6706 -0.0776 -0.0334
18491TIP3    H276965   1.463   3.375   2.033  0.1409 -0.4591  1.2006
18492TIP3   OH276966   6.741   0.272   6.260  0.0830 -0.0092 -0.0471
18492TIP3    H176967   6.666   0.279   6.318  0.0052 -1.3836  0.0327
18492TIP3    H276968   6.817   0.276   6.317  0.0154 -0.9695  0.1105
18493TIP3   OH276969   6.727   4.994   4.372  0.4211 -0.0157  0.1958
18493TIP3    H176970   6.739   5.076   4.420  2.2670 -0.5953  0.7642
18493TIP3    H276971   6.649   4.954   4.412  0.0580  1.0206  0.5327
18494TIP3   OH276972   1.213   2.451  14.293 -0.3913  0.1511 -0.2539
18494TIP3    H176973   1.236   2.502  14.371 -1.0367  1.6593 -1.0378
18494TIP3    H276974   1.119   2.463  14.284 -0.3581 -0.2177 -1.1315
18495TIP3   OH276975   1.599   1.661   2.680  1.1351  0.2522 -0.0664
18495TIP3    H176976   1.537   1.655   2.753 -0.3673  0.4295 -1.2932
18495TIP3    H276977   1.613   1.570   2.654 -1.6867  0.3754 -2.2684
18496TIP3   OH276978   5.867   0.449  13.055  0.4214  0.0513 -0.1792
18496TIP3    H176979   5.867   0.377  12.991  0.7224 -0.3919  0.3108
18496TIP3    H276980   5.887   0.527  13.003  0.9015 -0.3382 -0.5934
18497TIP3   OH276981   4.941   6.644   1.600 -0.3051 -0.0781 -0.5644
18497TIP3    H176982   4.856   6.655   1.643 -0.0741 -0.6549  0.0428
18497TIP3    H276983   4.923   6.585   1.526 -0.5641  0.3433 -0.8375
18498TIP3   OH276984   1.519   6.429  11.776  0.5154 -0.0921 -0.3264
18498TIP3    H176985   1.485   6.492  11.713 -1.6850 -1.0799 -0.1650
18498TIP3    H276986   1.483   6.458  11.860  2.9755  0.8952  0.4647
18499TIP3   OH276987   4.277   3.626  15.744  0.1054 -0.3637 -0.2264
18499TIP3    H176988   4.342   3.575  15.696  0.3384 -0.9533  0.6893
18499TIP3    H276989   4.300   3.612  15.836 -0.6852  0.2676  0.0675
18500TIP3   OH276990   0.610   1.640  11.386  0.2269 -0.0969  0.2664
18500TIP3    H176991   0.588   1.553  11.418 -0.8386  0.2982  0.6314
18500TIP3    H276992   0.557   1.651  11.307 -1.9644  1.3741  1.8892
18501TIP3   OH276993   1.721   6.698   6.563  0.1346 -0.0462 -0.2360
18501TIP3    H176994   1.760   6.785   6.573  0.6215  0.0279 -2.4413
18501TIP3    H276995   1.779   6.640   6.612  2.0978  0.3301 -2.0319
18502TIP3   OH276996   3.166   5.576  14.232 -0.3598  0.7173  0.1473
18502TIP3    H176997   3.256   5.556  14.257 -0.5944 -0.0324  0.4069
18502TIP3    H276998   3.125   5.607  14.313 -0.3753  0.9152  0.0634
18503TIP3   OH276999   4.981   4.135   0.985 -0.6554 -0.5763 -0.8880
18503TIP3    H177000   4.985   4.086   1.067 -0.8933 -0.7033 -0.9533
18503TIP3    H277001   4.888   4.156   0.974 -1.0424 -3.0096 -2.5825
18504TIP3   OH277002   3.478   1.446  15.919 -0.6504  0.6449 -0.2510
18504TIP3    H177003   3.412   1.430  15.986 -1.1802  4.1189  0.1841
18504TIP3    H277004   3.427   1.471  15.841  0.0080 -1.6858 -1.4659
18505TIP3   OH277005   4.515   2.361  16.053  0.2291 -0.2776 -0.1005
18505TIP3    H177006   4.531   2.294  15.986 -1.2109 -2.5883  1.7720
18505TIP3    H277007   4.455   2.422  16.012 -0.8111 -1.7901 -0.8667
18506TIP3   OH277008   3.418   3.829  14.156  0.1311 -0.1259 -0.4535
18506TIP3    H177009   3.469   3.786  14.224  0.6450  1.4380  0.1628
18506TIP3    H277010   3.349   3.765  14.134  1.1222 -1.4253  0.1269
18507TIP3   OH277011   1.863   5.187  14.574  0.1110 -0.0595 -0.5533
18507TIP3    H177012   1.784   5.218  14.529 -0.8880 -0.3051  0.9930
18507TIP3    H277013   1.929   5.254  14.556 -0.4746  0.2009 -1.7721
18508TIP3   OH277014   6.162   2.734  16.250  0.2472 -0.1072 -0.0446
18508TIP3    H177015   6.168   2.829  16.237 -2.1446  0.2613  1.3041
18508TIP3    H277016   6.228   2.715  16.316 -0.7405  0.9684  1.2735
18509TIP3   OH277017   0.819   1.956  16.082 -0.2842  0.0563  0.0739
18509TIP3    H177018   0.736   2.003  16.073  0.1228  0.5538 -1.0686
18509TIP3    H277019   0.864   1.969  15.999  0.5806 -0.9234  0.3774
18510TIP3   OH277020   1.319   3.699   6.438 -0.2832 -0.4315 -0.0582
18510TIP3    H177021   1.392   3.638   6.452 -0.3436 -0.5893 -0.4440
18510TIP3    H277022   1.240   3.644   6.445 -0.4746  0.1230  2.6490
18511TIP3   OH277023   2.557   5.946   4.820 -0.3134  0.2657 -0.2046
18511TIP3    H177024   2.467   5.921   4.801 -0.1360 -0.0383 -0.6402
18511TIP3    H277025   2.563   5.943   4.916 -0.6848  0.0163 -0.1905
18512TIP3   OH277026   5.945   2.646   0.388  0.4620  0.3187  0.1072
18512TIP3    H177027   5.857   2.610   0.397  0.0634  1.3986  0.5854
18512TIP3    H277028   5.937   2.737   0.418  1.5205  0.7094 -0.7801
18513TIP3   OH277029   4.073   4.786  11.592 -0.7762 -0.8216 -0.0139
18513TIP3    H177030   4.027   4.746  11.518  0.3982 -1.4152 -0.4327
18513TIP3    H277031   4.081   4.717  11.657 -1.7509 -0.3160  0.6476
18514TIP3   OH277032   0.088   6.186   6.159  0.2928 -0.0726 -0.4146
18514TIP3    H177033   0.016   6.201   6.220  1.4672  0.1505  0.9540
18514TIP3    H277034   0.136   6.269   6.158  0.6492 -0.2845 -1.1452
18515TIP3   OH277035   3.050   2.153   3.516 -0.2284  0.0258 -0.0001
18515TIP3    H177036   3.127   2.168   3.571  1.0086 -2.8574 -0.8689
18515TIP3    H277037   3.001   2.235   3.521  1.6241  1.0439  2.5719
18516TIP3   OH277038   6.230   5.008   2.914 -0.0592 -0.2844 -0.1050
18516TIP3    H177039   6.311   5.011   2.966  0.9031 -0.0089 -1.5925
18516TIP3    H277040   6.243   4.934   2.854 -1.8432 -1.6311  1.0962
18517TIP3   OH277041   4.605   0.504   2.267  0.0950 -0.6025 -0.7479
18517TIP3    H177042   4.578   0.523   2.177 -2.7595 -2.0776 -0.2651
18517TIP3    H277043   4.523   0.486   2.313  1.4896  0.2690  2.2082
18518TIP3   OH277044   5.987   5.694  14.189 -0.0949 -0.6069  0.4627
18518TIP3    H177045   5.906   5.679  14.141 -0.9792  1.8409  1.1160
18518TIP3    H277046   5.959   5.730  14.273  1.7345  3.3583 -0.5203
18519TIP3   OH277047   6.289   1.094  13.718 -0.8434 -0.0802 -0.4848
18519TIP3    H177048   6.362   1.134  13.670  2.2888 -1.8724  2.5912
18519TIP3    H277049   6.279   1.008  13.679 -2.2789  0.6693 -1.8139
18520TIP3   OH277050   1.268   3.525   0.019  0.2469  0.1113 -0.0480
18520TIP3    H177051   1.331   3.546   0.089  1.4671  0.1403 -1.1338
18520TIP3    H277052   1.213   3.457   0.056 -0.1131  1.1980  1.5023
18521TIP3   OH277053   2.560   0.164   4.931 -0.5026  0.4110  0.0141
18521TIP3    H177054   2.529   0.249   4.898 -1.3589 -0.2657 -0.9927
18521TIP3    H277055   2.524   0.100   4.868  2.6887 -0.4497 -1.0173
18522TIP3   OH277056   3.770   0.504  11.136  0.1919 -0.0309  0.1192
18522TIP3    H177057   3.825   0.580  11.155 -2.0924  1.2402  1.7594
18522TIP3    H277058   3.726   0.527  11.054  0.2541 -0.0320  0.0847
18523TIP3   OH277059   0.672   2.472   4.438 -0.0938  0.2775  0.4942
18523TIP3    H177060   0.586   2.445   4.470 -0.6244  0.8128 -0.4742
18523TIP3    H277061   0.655   2.548   4.383  0.9050 -0.0693 -0.3198
18524TIP3   OH277062   4.933   0.813  15.144  0.0154 -0.0857  0.1365
18524TIP3    H177063   4.903   0.809  15.054  1.9290 -0.1373 -0.5284
18524TIP3    H277064   4.889   0.890  15.181  0.2982  0.7477 -1.2492
18525TIP3   OH277065   3.405   5.142   0.745  0.7015 -0.7464  0.0343
18525TIP3    H177066   3.469   5.210   0.765  1.4096 -1.7310  1.2338
18525TIP3    H277067   3.456   5.073   0.702  0.1942 -0.9840 -0.1945
18526TIP3   OH277068   4.258   2.153  13.420 -0.1783 -0.0693 -0.1450
18526TIP3    H177069   4.232   2.202  13.498 -3.4226 -0.4749 -0.9309
18526TIP3    H277070   4.321   2.210  13.376 -1.5587  2.0287  0.5487
18527TIP3   OH277071   1.789   5.515  12.596  0.5555  0.3804  0.1846
18527TIP3    H177072   1.800   5.580  12.666  1.1452  2.1210 -1.4733
18527TIP3    H277073   1.696   5.493  12.598  0.5579  0.4765  1.4586
18528TIP3   OH277074   5.340   2.386   4.482 -0.2741 -0.6209  0.1253
18528TIP3    H177075   5.394   2.314   4.452  1.8681 -0.3479  3.0543
18528TIP3    H277076   5.384   2.465   4.449 -0.9028 -0.5154 -0.4819
18529TIP3   OH277077   0.527   3.725   0.228 -0.4213  0.1212 -0.4446
18529TIP3    H177078   0.560   3.650   0.277 -1.4675  0.7239  1.1960
18529TIP3    H277079   0.495   3.687   0.146  1.4319 -0.8631 -0.7526
18530TIP3   OH277080   4.078   3.301  12.295 -0.0279  0.1955  0.0549
18530TIP3    H177081   3.986   3.329  12.301  0.3695  1.7556 -0.8540
18530TIP3    H277082   4.079   3.242  12.220  0.0075  1.4603 -0.9523
18531TIP3   OH277083   4.936   1.804  11.575  0.5412  0.7836 -0.5696
18531TIP3    H177084   4.903   1.718  11.546 -0.8403  0.4704  1.8139
18531TIP3    H277085   5.031   1.798  11.564  0.4524 -1.0363 -0.5233
18532TIP3   OH277086   3.110   5.695  12.367  0.0466  1.0052 -0.5616
18532TIP3    H177087   3.130   5.767  12.426 -0.8127  2.4404 -1.9666
18532TIP3    H277088   3.175   5.703  12.297  0.0177  0.3323 -0.6732
18533TIP3   OH277089   4.631   1.400   3.005 -0.3058 -0.0740 -0.0400
18533TIP3    H177090   4.587   1.327   3.047  0.3214 -0.6439 -0.3593
18533TIP3    H277091   4.724   1.377   3.009 -0.2044  0.1077 -1.2790
18534TIP3   OH277092   2.846   0.595  14.800  0.4170 -0.3171 -0.8505
18534TIP3    H177093   2.923   0.563  14.846  0.9182 -1.0073 -2.1393
18534TIP3    H277094   2.825   0.678  14.842  0.8025 -0.9692  0.6695
18535TIP3   OH277095   5.866   3.825  11.002 -0.2258  0.3497  0.0532
18535TIP3    H177096   5.918   3.905  10.990 -0.1064  0.2247 -0.2477
18535TIP3    H277097   5.920   3.770  11.059 -0.1004  0.2871 -0.1258
18536TIP3   OH277098   1.079   4.038  14.759  0.1644 -0.0096  0.5150
18536TIP3    H177099   1.074   4.101  14.832  1.3123 -0.6534  1.1569
18536TIP3    H277100   1.161   3.992  14.772 -0.1625 -0.9282 -0.5603
18537TIP3   OH277101   0.081   5.518  12.869 -0.0836 -0.1511 -0.1553
18537TIP3    H177102   0.175   5.534  12.873 -0.3995  1.9812 -0.9038
18537TIP3    H277103   0.068   5.465  12.790  0.5668 -1.2582  0.4614
18538TIP3   OH277104   4.041   2.000   3.639 -0.1580  0.6915 -0.6294
18538TIP3    H177105   4.017   2.092   3.646  0.2610  0.7542  0.0803
18538TIP3    H277106   3.974   1.961   3.582  0.1747  1.6174 -1.6657
18539TIP3   OH277107   5.751   0.354  15.921 -0.1394 -0.1782 -0.4548
18539TIP3    H177108   5.682   0.355  15.854  0.4021 -0.7296 -1.0342
18539TIP3    H277109   5.745   0.267  15.960 -0.0175 -0.0940 -0.2498
18540TIP3   OH277110   1.351   1.274  10.830 -0.5497  0.1796 -0.8610
18540TIP3    H177111   1.322   1.365  10.841 -0.0610  0.0959  1.3872
18540TIP3    H277112   1.441   1.274  10.863 -0.2608 -0.9712 -1.6061
18541TIP3   OH277113   2.845   2.951  13.236 -0.0992  0.1210  0.1910
18541TIP3    H177114   2.803   2.938  13.151 -0.9778  3.5099  0.0745
18541TIP3    H277115   2.924   2.896  13.231 -0.4004 -0.1420 -2.6096
18542TIP3   OH277116   5.814   5.971   2.286  0.1706  0.6933 -0.2180
18542TIP3    H177117   5.772   6.045   2.330 -0.6326 -1.0709  2.0911
18542TIP3    H277118   5.888   5.949   2.343 -0.1841 -0.8998 -0.3669
18543TIP3   OH277119   6.723   5.657  13.706 -0.3528 -0.1452  0.2724
18543TIP3    H177120   6.793   5.708  13.666 -1.3988  2.2726  1.4420
18543TIP3    H277121   6.666   5.633  13.633  0.0449  0.4965 -0.2512
18544TIP3   OH277122   1.159   3.016  13.524 -0.3013  0.2008  0.8749
18544TIP3    H177123   1.120   3.091  13.480 -0.0315  0.1009  0.4614
18544TIP3    H277124   1.136   3.027  13.616  1.8553  2.1038  1.2175
18545TIP3   OH277125   6.209   0.147  11.462 -0.0544 -0.1768 -0.3533
18545TIP3    H177126   6.276   0.214  11.447  1.3015 -1.3757  0.3022
18545TIP3    H277127   6.252   0.064  11.439 -0.4134 -1.2441  2.6485
18546TIP3   OH277128   4.598   1.808  12.757  0.0254  0.1786  0.4221
18546TIP3    H177129   4.552   1.746  12.700 -0.8378 -0.2581  1.5792
18546TIP3    H277130   4.685   1.817  12.718 -0.3781 -0.5294 -0.6512
18547TIP3   OH277131   0.936   2.714  13.924  0.1384 -0.1775 -0.2422
18547TIP3    H177132   0.930   2.621  13.903 -1.3728 -0.3362  0.8190
18547TIP3    H277133   0.859   2.752  13.882 -0.9378  0.0806  1.9358
18548TIP3   OH277134   6.577   6.039  16.380 -0.0114 -0.2063  0.2316
18548TIP3    H177135   6.627   6.024  16.460  1.8054  0.7583 -0.6792
18548TIP3    H277136   6.552   5.951  16.350 -0.1870 -0.6055  1.5182
18549TIP3   OH277137   2.355   4.710  13.004  0.7086 -0.1489  0.3805
18549TIP3    H177138   2.385   4.785  12.953  0.6827 -0.4466 -0.0859
18549TIP3    H277139   2.304   4.747  13.075 -0.4597  0.2219 -0.6286
18550TIP3   OH277140   2.185   1.038  16.239  0.6436 -0.2739 -0.3260
18550TIP3    H177141   2.237   1.065  16.314  0.6463  2.1125 -1.1532
18550TIP3    H277142   2.100   1.079  16.252  0.0930 -1.2743 -0.7392
18551TIP3   OH277143   5.338   4.866  11.313  0.1282  0.1049 -0.2799
18551TIP3    H177144   5.280   4.841  11.241 -0.1818 -1.2030  0.4218
18551TIP3    H277145   5.291   4.935  11.359 -0.1050  0.2579 -0.7480
18552TIP3   OH277146   1.324   1.810   3.878 -0.4193  0.1142  0.1497
18552TIP3    H177147   1.233   1.809   3.849 -0.1034  1.9271 -0.9511
18552TIP3    H277148   1.319   1.817   3.974 -1.4362 -0.1006  0.1145
18553TIP3   OH277149   0.342   5.833  11.892  0.1794  0.2401  0.3657
18553TIP3    H177150   0.308   5.805  11.977  2.1140 -0.5949  0.9045
18553TIP3    H277151   0.280   5.798  11.828  0.2102 -1.5598  1.2875
18554TIP3   OH277152   2.686   6.789  11.829 -0.0677  0.4479  0.7266
18554TIP3    H177153   2.712   6.879  11.809  2.6006 -1.1123 -3.6367
18554TIP3    H277154   2.742   6.764  11.902  0.9521  1.5834  0.3559
18555TIP3   OH277155   3.623   2.456  14.611  0.0316 -0.5587  0.1056
18555TIP3    H177156   3.600   2.534  14.560  1.1030 -1.0042 -1.1024
18555TIP3    H277157   3.608   2.383  14.551 -0.1475 -1.2198  0.9453
18556TIP3   OH277158   3.558   2.632  10.437 -0.6185  0.5780 -0.1164
18556TIP3    H177159   3.479   2.613  10.488 -1.2018  1.6350 -0.6062
18556TIP3    H277160   3.562   2.727  10.434  1.4187  0.5494  1.0108
18557TIP3   OH277161   3.994   2.165  17.091 -0.3861 -0.0027  0.8844
18557TIP3    H177162   3.916   2.138  17.140  0.1133 -0.6958  1.3084
18557TIP3    H277163   4.048   2.210  17.156  1.2239 -2.7394  1.5284
18558TIP3   OH277164   4.673   4.462   3.996 -0.3636  0.0961 -0.6676
18558TIP3    H177165   4.659   4.556   3.992  0.8981  0.3439  0.3443
18558TIP3    H277166   4.587   4.424   3.977 -0.8915  1.4405 -1.0352
18559TIP3   OH277167   3.964   0.681   3.244 -0.3189 -0.3314 -0.0339
18559TIP3    H177168   4.055   0.680   3.276  0.1453  3.0773 -1.0221
18559TIP3    H277169   3.964   0.619   3.171  1.3462 -0.0226 -0.3295
18560TIP3   OH277170   5.465   5.627   1.118 -0.4296  0.5028 -0.0760
18560TIP3    H177171   5.458   5.666   1.031  1.1479 -0.1117 -0.4993
18560TIP3    H277172   5.438   5.536   1.106  2.1072 -0.2201 -0.4367
18561TIP3   OH277173   5.965   5.050  12.206  0.2373  0.6348  0.5245
18561TIP3    H177174   5.985   5.103  12.283  0.9706 -0.0764  0.8318
18561TIP3    H277175   6.012   4.968  12.221  0.7638  0.6721 -0.9074
18562TIP3   OH277176   1.469   0.491   0.706 -0.4209  1.4701 -0.3936
18562TIP3    H177177   1.445   0.472   0.615  0.3623 -1.4312 -0.0662
18562TIP3    H277178   1.563   0.508   0.702 -0.0528 -0.2989  0.0377
18563TIP3   OH277179   0.328   4.992  13.735 -0.3679 -0.2470 -1.0829
18563TIP3    H177180   0.393   4.987  13.805 -1.2362 -2.7727 -0.4024
18563TIP3    H277181   0.326   5.085  13.711  1.7402  0.2570  0.5186
18564TIP3   OH277182   0.307   6.565   1.066  0.1978 -0.4651  0.2530
18564TIP3    H177183   0.348   6.620   1.133  1.5392 -1.1737  0.0373
18564TIP3    H277184   0.278   6.488   1.114  3.7195 -2.2887 -0.3763
18565TIP3   OH277185   1.609   0.627   6.589  0.0124  0.2743  0.6615
18565TIP3    H177186   1.619   0.722   6.584 -0.4044  0.4507  2.9383
18565TIP3    H277187   1.518   0.612   6.562 -0.2140  0.5980  1.2502
18566TIP3   OH277188   2.975   4.396  14.771  0.1381  0.1742 -0.6582
18566TIP3    H177189   2.938   4.481  14.744  0.8850  0.7481  0.0884
18566TIP3    H277190   2.905   4.354  14.820  0.3835  1.1913  0.6130
18567TIP3   OH277191   2.738   2.314   1.291 -0.0363 -0.4394 -0.1555
18567TIP3    H177192   2.702   2.339   1.206 -0.5995 -0.4279  0.0853
18567TIP3    H277193   2.721   2.220   1.297  0.3697 -0.5196 -0.2292
18568TIP3   OH277194   1.110   3.097  14.708 -0.4368 -0.3758 -0.8476
18568TIP3    H177195   1.151   3.170  14.662 -1.6094  0.2269 -0.9620
18568TIP3    H277196   1.142   3.105  14.798 -0.2381  0.0440 -0.9515
18569TIP3   OH277197   0.505   6.289  16.555 -0.1184  0.0498  0.7192
18569TIP3    H177198   0.418   6.284  16.596  0.1326  2.8186  1.7020
18569TIP3    H277199   0.551   6.355  16.606  2.1992 -0.5715 -0.5162
18570TIP3   OH277200   3.397   1.970  16.913  0.2470  0.3576 -0.3983
18570TIP3    H177201   3.393   1.896  16.973 -0.2382 -0.5064 -1.4887
18570TIP3    H277202   3.306   1.985  16.887  0.1329  2.3812  1.0631
18571TIP3   OH277203   1.929   0.016   1.140 -0.7610  0.3721 -0.5244
18571TIP3    H177204   1.908  -0.075   1.160  0.0518 -0.1177 -1.8537
18571TIP3    H277205   1.929   0.060   1.225 -2.8168 -0.5015 -0.0366
18572TIP3   OH277206   1.477   3.501  14.311  0.1784 -0.3944 -0.1317
18572TIP3    H177207   1.443   3.566  14.372  1.1670  0.2656 -0.2617
18572TIP3    H277208   1.473   3.418  14.359  1.3597  0.1944  1.0089
18573TIP3   OH277209   1.356   1.655   0.248 -0.0097 -0.1518  0.0888
18573TIP3    H177210   1.426   1.690   0.304 -0.9558  0.7196  0.7453
18573TIP3    H277211   1.294   1.727   0.240  0.3446 -0.0977 -2.5165
18574TIP3   OH277212   5.706   2.637   4.912 -0.4698  0.0513 -0.0713
18574TIP3    H177213   5.802   2.636   4.910 -0.4518  1.8840 -0.5122
18574TIP3    H277214   5.684   2.591   4.994  0.6978 -2.3490 -1.0495
18575TIP3   OH277215   4.188   3.677  16.057 -0.3412  0.0105 -0.3138
18575TIP3    H177216   4.138   3.615  16.110  0.9725  0.0417  0.9856
18575TIP3    H277217   4.277   3.673  16.093  0.4850  0.3339 -2.2379
18576TIP3   OH277218   6.259   4.487  10.866  0.0580 -0.2110 -0.3240
18576TIP3    H177219   6.288   4.408  10.821  1.0301 -0.1959  0.2658
18576TIP3    H277220   6.213   4.456  10.944 -0.7551 -0.2139 -0.7926
18577TIP3   OH277221   0.511   6.114   4.770  0.6962  0.3293  0.4582
18577TIP3    H177222   0.520   6.193   4.716  1.4427 -0.5782 -0.7658
18577TIP3    H277223   0.595   6.107   4.816  0.5461  0.3738  0.7389
18578TIP3   OH277224   1.964   6.586  12.667 -0.1687 -0.2121  0.1038
18578TIP3    H177225   1.939   6.642  12.594  2.0363  0.0245 -0.5077
18578TIP3    H277226   2.018   6.518  12.627  0.7059 -0.3267  1.4525
18579TIP3   OH277227   5.799   2.664   5.276 -0.0159  0.3489  0.0355
18579TIP3    H177228   5.713   2.628   5.257  0.4477 -0.5981 -0.3438
18579TIP3    H277229   5.799   2.680   5.370 -0.5555  0.2171  0.0580
18580TIP3   OH277230   5.398   4.359   2.695  0.2058  0.1088  0.0338
18580TIP3    H177231   5.378   4.279   2.647  0.4186 -0.8690  1.5486
18580TIP3    H277232   5.461   4.405   2.639  0.9543 -1.3145 -0.3226
18581TIP3   OH277233   5.042   2.966  13.332 -0.1890 -0.4458  0.3276
18581TIP3    H177234   4.955   2.949  13.366 -0.3179 -1.5760 -0.5436
18581TIP3    H277235   5.096   2.894  13.364  0.4170  0.2110  0.8105
18582TIP3   OH277236   6.188   6.392  14.878 -0.1463 -0.5069 -0.4219
18582TIP3    H177237   6.214   6.366  14.789 -0.9368 -1.6845 -0.3179
18582TIP3    H277238   6.269   6.387  14.928 -0.1136 -1.9567 -0.6053
18583TIP3   OH277239   2.138   4.556   0.834 -0.0020  0.1393  0.1093
18583TIP3    H177240   2.205   4.566   0.902 -0.7934  0.5766  0.8346
18583TIP3    H277241   2.068   4.507   0.876 -1.0900  1.6050  0.0379
18584TIP3   OH277242   2.682   4.263  11.466 -0.3079 -0.1392 -0.2842
18584TIP3    H177243   2.766   4.234  11.504 -0.0173  0.8296 -0.1843
18584TIP3    H277244   2.705   4.294  11.379 -0.4962  0.5189 -0.0996
18585TIP3   OH277245   5.292   1.827  14.160  0.4237 -0.0033 -0.8383
18585TIP3    H177246   5.233   1.794  14.227  1.2901  0.6855  0.2665
18585TIP3    H277247   5.317   1.749  14.110  0.5063 -0.6502  0.2090
18586TIP3   OH277248   0.620   3.747  16.458  0.0100  0.7716  0.1951
18586TIP3    H177249   0.614   3.748  16.362  1.7728  0.9519  0.0809
18586TIP3    H277250   0.585   3.832  16.485  1.2432  1.4676 -0.3890
18587TIP3   OH277251   4.875   3.275   3.803 -0.0551 -0.1050 -0.3375
18587TIP3    H177252   4.899   3.187   3.775  0.6591 -0.0989  0.2303
18587TIP3    H277253   4.796   3.263   3.856 -0.0770 -0.3772 -0.4307
18588TIP3   OH277254   0.656   6.245  15.345  0.2951 -0.0679 -0.5268
18588TIP3    H177255   0.679   6.329  15.384 -0.2586 -0.5749  0.9382
18588TIP3    H277256   0.599   6.204  15.410 -0.3390 -1.0983 -1.7278
18589TIP3   OH277257   6.403   1.843   4.201  0.0970  0.3945  0.4266
18589TIP3    H177258   6.436   1.821   4.114  1.2978 -0.5451  1.1106
18589TIP3    H277259   6.357   1.765   4.230  1.1003  0.1223  1.3040
18590TIP3   OH277260   1.915   3.556  12.656  0.6487  0.3553 -0.1320
18590TIP3    H177261   1.874   3.606  12.727  0.1620 -0.7374  0.3745
18590TIP3    H277262   1.975   3.496  12.701  2.7111  1.8380 -0.8696
18591TIP3   OH277263   5.883   2.963   0.229 -0.4025 -0.1332  0.0509
18591TIP3    H177264   5.807   2.958   0.286 -0.0709 -1.4718  0.3837
18591TIP3    H277265   5.863   2.904   0.157 -1.1530  2.1249 -1.6485
18592TIP3   OH277266   0.053   1.222   3.384  0.2135 -0.5053  0.2100
18592TIP3    H177267   0.023   1.282   3.453 -0.0470  1.3569 -1.4837
18592TIP3    H277268  -0.001   1.244   3.308  1.2456 -1.7785 -0.9113
18593TIP3   OH277269   2.148   1.677   1.168 -0.0268 -0.3423  0.0919
18593TIP3    H177270   2.193   1.686   1.252  1.1419 -2.1189 -0.3208
18593TIP3    H277271   2.059   1.707   1.185  0.3269 -0.2494  1.8402
18594TIP3   OH277272   4.954   4.656   2.673  0.1100 -0.5321  0.6568
18594TIP3    H177273   4.894   4.595   2.714  0.1581 -2.0187 -1.4127
18594TIP3    H277274   4.998   4.605   2.605 -0.6422  2.0613 -1.8769
18595TIP3   OH277275   5.474   3.897  12.496 -0.3084  0.2381 -0.1831
18595TIP3    H177276   5.420   3.837  12.445  0.8830  0.0815 -1.2826
18595TIP3    H277277   5.551   3.846  12.522  0.0539  0.8907  0.0618
18596TIP3   OH277278   1.192   5.533  17.110  0.3449 -0.4070 -0.0103
18596TIP3    H177279   1.145   5.616  17.116  1.7407  0.4190 -0.3403
18596TIP3    H277280   1.209   5.521  17.017  3.2656  0.7367  0.3292
18597TIP3   OH277281   5.492   2.683  15.025  0.1816  0.3657 -0.2100
18597TIP3    H177282   5.524   2.597  14.998 -0.3354 -0.2649  1.1476
18597TIP3    H277283   5.399   2.683  15.001  0.4514  1.0328 -1.3302
18598TIP3   OH277284   4.809   2.259   4.321  0.0300 -0.2204 -0.4649
18598TIP3    H177285   4.904   2.266   4.332 -0.0742 -0.3377  0.4891
18598TIP3    H277286   4.778   2.349   4.330 -0.1159 -0.3907  0.8063
18599TIP3   OH277287   4.633   0.788   2.424 -0.0031  0.5506  0.0030
18599TIP3    H177288   4.696   0.722   2.394  0.3878  0.9196  0.0214
18599TIP3    H277289   4.685   0.867   2.439 -0.2569  0.4866  1.2869
18600TIP3   OH277290   5.325   6.122  14.809  0.4510 -0.0150  1.0707
18600TIP3    H177291   5.355   6.033  14.791  1.6728  0.2061  1.9054
18600TIP3    H277292   5.387   6.155  14.874  0.4400  1.6908  0.2437
18601TIP3   OH277293   6.441   4.357  12.978  0.0091 -0.0238 -0.1919
18601TIP3    H177294   6.439   4.268  13.013 -0.7371  0.4265  0.9367
18601TIP3    H277295   6.479   4.409  13.048 -0.7868  0.7683 -0.3447
18602TIP3   OH277296   4.486   3.097  16.652 -0.2304 -0.2071  0.2972
18602TIP3    H177297   4.429   3.166  16.687 -0.7266 -0.2434 -0.4363
18602TIP3    H277298   4.552   3.144  16.602 -0.9524 -0.2883 -0.7567
18603TIP3   OH277299   1.917   1.741   2.446 -0.4985 -0.4239 -0.7098
18603TIP3    H177300   1.962   1.816   2.484 -0.3461 -0.5521 -0.6361
18603TIP3    H277301   1.982   1.701   2.389 -0.3625 -0.8947 -0.2277
18604TIP3   OH277302   2.572   4.707   4.239 -0.2241 -0.3885 -0.3377
18604TIP3    H177303   2.652   4.699   4.187  0.6915  0.3918  0.9331
18604TIP3    H277304   2.502   4.686   4.177  0.9983 -1.8968 -1.2658
18605TIP3   OH277305   6.494   4.734  12.659  1.2035  0.2093 -0.1129
18605TIP3    H177306   6.429   4.703  12.722  1.1225  2.3891  0.8968
18605TIP3    H277307   6.458   4.817  12.626  1.6117 -0.4894 -2.4601
18606TIP3   OH277308   3.511   3.041   0.498  0.5651 -0.3830 -0.1163
18606TIP3    H177309   3.460   3.112   0.461 -0.6220 -0.5894  1.0857
18606TIP3    H277310   3.509   2.972   0.431 -0.6957 -0.3670 -0.1026
18607TIP3   OH277311   4.370   1.833   6.234 -0.5851 -0.4605 -0.6511
18607TIP3    H177312   4.339   1.924   6.236 -1.0533 -0.5929 -1.9674
18607TIP3    H277313   4.347   1.798   6.320 -0.1304  0.7546 -0.0190
18608TIP3   OH277314   0.698   2.107   5.919 -0.5961 -0.0055  0.0921
18608TIP3    H177315   0.703   2.021   5.876  2.0967  0.1851 -0.0641
18608TIP3    H277316   0.653   2.090   6.002 -0.6381 -1.4483 -0.2079
18609TIP3   OH277317   4.993   3.540   3.792  0.0247 -0.2059  0.5671
18609TIP3    H177318   4.958   3.607   3.851  0.5763 -1.0403  1.8811
18609TIP3    H277319   4.935   3.465   3.804 -0.1303 -0.2255 -0.3125
18610TIP3   OH277320   6.709   0.995   1.951  0.0404  0.2617 -0.2826
18610TIP3    H177321   6.752   1.074   1.982 -1.0987  0.7166  0.1845
18610TIP3    H277322   6.777   0.946   1.904  1.1621  0.7189  0.8587
18611TIP3   OH277323   4.134   4.893  16.948  0.4227 -0.4222  0.6864
18611TIP3    H177324   4.076   4.818  16.956 -0.2509 -0.0247 -0.3783
18611TIP3    H277325   4.075   4.968  16.939  1.0970 -0.0338 -0.5584
18612TIP3   OH277326   0.813   2.606  16.115  0.2095  0.1342  0.3499
18612TIP3    H177327   0.721   2.611  16.139  0.1153 -1.5992  0.3857
18612TIP3    H277328   0.858   2.583  16.197  0.6617  0.8594  0.3123
18613TIP3   OH277329   6.725   0.339   3.775 -0.5384 -0.0876 -0.2920
18613TIP3    H177330   6.643   0.377   3.743 -1.2731 -0.3683  1.2425
18613TIP3    H277331   6.770   0.413   3.817 -1.2255 -0.5333  1.2421
18614TIP3   OH277332   3.254   1.763   2.824 -0.2604 -0.8752  0.3531
18614TIP3    H177333   3.307   1.702   2.876 -0.4858 -2.3145 -1.0739
18614TIP3    H277334   3.265   1.733   2.733  1.3766  2.5215 -0.6602
18615TIP3   OH277335   2.359   5.118  14.252 -0.0937  0.1312  0.1410
18615TIP3    H177336   2.271   5.083  14.265 -0.2183  0.5138  0.3323
18615TIP3    H277337   2.356   5.161  14.167  0.0744 -0.3625 -0.1190
18616TIP3   OH277338   1.020   3.313  14.005 -0.2040 -0.5991  0.4126
18616TIP3    H177339   0.977   3.264  13.934 -1.6583 -0.6073  1.2905
18616TIP3    H277340   1.030   3.402  13.969  0.3046 -0.9370 -0.3065
18617TIP3   OH277341   6.638   6.037   0.968  0.5799 -0.1018  0.1528
18617TIP3    H177342   6.673   6.082   0.891 -0.5639  0.7991  0.1425
18617TIP3    H277343   6.635   6.105   1.036  1.7156 -0.9251  1.0511
18618TIP3   OH277344   4.275   1.981   0.837 -0.2471 -0.4946 -0.2475
18618TIP3    H177345   4.224   1.902   0.820 -0.2135 -0.5550 -0.0720
18618TIP3    H277346   4.223   2.029   0.902 -0.1597 -0.4799 -0.1879
18619TIP3   OH277347   2.850   1.712   1.832  0.2736 -0.0794 -0.2552
18619TIP3    H177348   2.783   1.671   1.777  0.1193 -0.5012  0.2421
18619TIP3    H277349   2.835   1.806   1.822  0.6563 -0.1256 -1.4403
18620TIP3   OH277350   3.330   0.940  12.529  0.5334 -0.4586  0.0244
18620TIP3    H177351   3.344   1.024  12.486  0.7380  0.6808  2.2553
18620TIP3    H277352   3.417   0.913  12.558  0.0537  0.1628  2.1598
18621TIP3   OH277353   1.117   4.029  11.512  0.0916  0.0129 -0.0609
18621TIP3    H177354   1.193   4.075  11.547 -1.2745  2.8582 -0.7538
18621TIP3    H277355   1.086   3.976  11.585  1.3208  0.6556  0.9500
18622TIP3   OH277356   2.288   3.730   0.403  1.2037 -0.6694  0.5995
18622TIP3    H177357   2.260   3.794   0.468 -1.3951 -1.3015  0.1282
18622TIP3    H277358   2.340   3.780   0.340 -0.7340  0.9824  0.2729
18623TIP3   OH277359   5.126   0.266  11.280 -0.1641 -0.4875  0.0694
18623TIP3    H177360   5.217   0.237  11.265 -0.1267 -0.0533 -0.5725
18623TIP3    H277361   5.079   0.238  11.202 -0.1927  0.8923 -0.4309
18624TIP3   OH277362   6.379   2.812  14.140 -0.1846 -0.5785  0.2411
18624TIP3    H177363   6.351   2.730  14.180  0.7539 -0.3975  1.3163
18624TIP3    H277364   6.309   2.874  14.162  0.2544 -0.5138  1.5365
18625TIP3   OH277365   3.119   4.650  11.105 -0.2148  0.6349 -0.0285
18625TIP3    H177366   3.112   4.556  11.122  1.6290  0.5808  0.5859
18625TIP3    H277367   3.094   4.660  11.013  0.1622 -0.5377 -0.2633
18626TIP3   OH277368   0.745   2.125  13.795  0.2850 -0.8291 -0.4573
18626TIP3    H177369   0.671   2.131  13.736 -0.0449  0.5149  0.0798
18626TIP3    H277370   0.753   2.032  13.815 -0.9512 -1.0285 -0.8977
18627TIP3   OH277371   3.865   2.403   3.452  0.3729 -0.6664  0.1918
18627TIP3    H177372   3.785   2.360   3.483 -0.5170  1.2659  0.6563
18627TIP3    H277373   3.933   2.373   3.513 -0.8054  0.7995  2.2885
18628TIP3   OH277374   4.703   2.333  12.296  0.1783 -0.1328 -0.1204
18628TIP3    H177375   4.787   2.288  12.304  0.2757 -0.0392 -0.5896
18628TIP3    H277376   4.725   2.426  12.307 -0.0097 -0.1903  0.7643
18629TIP3   OH277377   4.510   5.183  11.930  0.5391  0.3329 -0.3193
18629TIP3    H177378   4.425   5.143  11.911  1.1054 -0.4241 -1.2718
18629TIP3    H277379   4.488   5.265  11.973 -0.7202  1.0031 -2.1822
18630TIP3   OH277380   4.837   0.470  14.691  0.1142 -0.8778 -0.4816
18630TIP3    H177381   4.756   0.515  14.667  0.6682  1.1063  1.2708
18630TIP3    H277382   4.810   0.379  14.704 -1.8508 -0.2410  0.1203
18631TIP3   OH277383   0.602   5.458   1.784 -0.4384  0.0572  0.0036
18631TIP3    H177384   0.610   5.532   1.723 -0.9215 -0.6201 -0.9020
18631TIP3    H277385   0.689   5.451   1.824 -0.3014  0.9211 -0.1241
18632TIP3   OH277386   1.581   2.144   3.387  0.2268  0.8880 -0.4943
18632TIP3    H177387   1.570   2.101   3.302 -0.8787  0.8814 -0.3571
18632TIP3    H277388   1.599   2.073   3.448 -1.0611  0.6510 -0.3639
18633TIP3   OH277389   1.559   6.052  14.522 -0.3799 -0.1460  0.0352
18633TIP3    H177390   1.469   6.077  14.502 -0.3755  0.7834  1.1593
18633TIP3    H277391   1.563   6.051  14.618  0.6780 -0.6447 -0.0091
18634TIP3   OH277392   2.382   1.899  13.753  0.5633 -0.6500 -0.6125
18634TIP3    H177393   2.356   1.956  13.827 -1.9844 -2.1081 -0.3318
18634TIP3    H277394   2.328   1.821  13.763  1.8612 -1.8582 -2.7419
18635TIP3   OH277395   0.392   1.244  14.658 -0.6003 -0.0593 -0.1305
18635TIP3    H177396   0.324   1.212  14.599 -0.6666 -1.6374  0.8030
18635TIP3    H277397   0.368   1.335  14.674 -2.0498 -0.3781 -0.4342
18636TIP3   OH277398   0.150   2.263   3.045 -0.8514  0.1856  0.3656
18636TIP3    H177399   0.085   2.330   3.064 -0.9385  0.4835 -0.9416
18636TIP3    H277400   0.198   2.297   2.970 -1.3259 -1.4927 -0.7371
18637TIP3   OH277401   3.767   0.121  13.325  0.0801 -0.1722 -0.2057
18637TIP3    H177402   3.788   0.035  13.361 -0.6268 -0.1817  0.1887
18637TIP3    H277403   3.679   0.139  13.356 -0.0019  0.4346 -0.7817
18638TIP3   OH277404   5.192   3.939  11.426 -0.6133  0.7460 -0.0830
18638TIP3    H177405   5.148   3.911  11.507  0.0076  0.8271  0.2826
18638TIP3    H277406   5.183   4.034  11.426 -1.5274  0.6641 -0.6379
18639TIP3   OH277407   6.134   0.440  13.239  0.3730  0.2332 -0.1827
18639TIP3    H177408   6.043   0.434  13.211 -0.0328  1.5662  0.7787
18639TIP3    H277409   6.137   0.387  13.320  0.5050  0.0282 -0.3209
18640TIP3   OH277410   2.584   2.774  14.400  0.2801  0.2498  0.4022
18640TIP3    H177411   2.584   2.816  14.313 -1.3930 -0.3900  0.0880
18640TIP3    H277412   2.513   2.710  14.396  1.3649 -1.0608  1.6526
18641TIP3   OH277413   4.253   5.858  17.084  0.0168 -0.5402 -0.2244
18641TIP3    H177414   4.208   5.920  17.027  0.0252 -0.0080  0.3413
18641TIP3    H277415   4.257   5.901  17.169 -0.0116 -1.3332  0.1898
18642TIP3   OH277416   2.039   0.599  15.681 -0.1708  0.2524  0.6224
18642TIP3    H177417   2.014   0.577  15.591 -3.5795  0.8972  1.3343
18642TIP3    H277418   2.030   0.694  15.686  0.9640  0.3289  1.3791
18643TIP3   OH277419   2.366   3.807   0.920 -0.0918 -0.1607  0.3097
18643TIP3    H177420   2.297   3.794   0.985  0.5064 -0.2622  0.9295
18643TIP3    H277421   2.447   3.805   0.971  0.3706 -0.1120 -0.4240
18644TIP3   OH277422   3.935   1.756  14.533 -0.1654 -0.2174 -0.2117
18644TIP3    H177423   3.950   1.731  14.624 -0.0465 -1.6621 -0.6192
18644TIP3    H277424   3.991   1.833  14.521 -1.6228  1.1581  1.4622
18645TIP3   OH277425   4.907   5.635  10.564  0.2503  0.0158 -0.5776
18645TIP3    H177426   4.991   5.611  10.602 -0.6490  0.1032  1.5635
18645TIP3    H277427   4.905   5.731  10.568 -0.1656 -0.0059 -0.0637
18646TIP3   OH277428   0.496   0.864  16.707 -0.0675  0.0781 -0.4557
18646TIP3    H177429   0.541   0.910  16.635 -2.9588  2.5358 -0.7990
18646TIP3    H277430   0.496   0.927  16.779 -2.7974  0.1073 -0.4409
18647TIP3   OH277431   4.471   4.063  14.783 -0.3119 -0.6575 -0.1904
18647TIP3    H177432   4.390   4.090  14.826 -0.7629 -2.2079 -0.0722
18647TIP3    H277433   4.445   3.992  14.724  0.5622  0.3928 -1.8980
18648TIP3   OH277434   3.448   2.296   2.049 -0.1813 -0.5994  0.3180
18648TIP3    H177435   3.423   2.387   2.060  1.7371 -0.1024  0.7584
18648TIP3    H277436   3.412   2.252   2.126 -1.7632 -0.3604 -0.2839
18649TIP3   OH277437   1.624   3.563   5.884 -0.0278  0.0450  0.3482
18649TIP3    H177438   1.644   3.646   5.928  0.0410  0.5648 -0.6506
18649TIP3    H277439   1.637   3.496   5.951 -0.7938  0.9092  1.3568
18650TIP3   OH277440   4.579   4.681   0.864 -0.1050  0.2290  0.0925
18650TIP3    H177441   4.603   4.758   0.813 -0.5914  0.5930  0.4178
18650TIP3    H277442   4.493   4.656   0.830  0.4539 -0.7369 -0.6740
18651TIP3   OH277443   2.407   2.321  14.433  0.3533  0.5180 -0.4022
18651TIP3    H177444   2.332   2.291  14.485  0.2959  1.6924  0.1936
18651TIP3    H277445   2.451   2.385  14.489  1.4313  0.3272 -1.0160
18652TIP3   OH277446   2.707   4.812  12.459 -0.3054  0.3477 -0.1870
18652TIP3    H177447   2.655   4.885  12.425 -1.7120 -0.5244  0.0258
18652TIP3    H277448   2.773   4.796  12.391 -0.3090  1.4758 -0.4704
18653TIP3   OH277449   1.175   5.089   4.777 -0.2387  0.1818 -0.8519
18653TIP3    H177450   1.237   5.079   4.849 -0.8988 -1.1646 -0.4513
18653TIP3    H277451   1.222   5.142   4.712  1.2394 -0.5837 -0.4429
18654TIP3   OH277452   1.991   1.247   0.582 -0.7011 -0.9205  0.1938
18654TIP3    H177453   2.007   1.233   0.676 -1.0893 -0.4949  0.3265
18654TIP3    H277454   2.040   1.177   0.539 -1.0092 -1.4787  0.7451
18655TIP3   OH277455   3.038   4.506  15.798  0.0344 -0.9835 -0.6217
18655TIP3    H177456   2.976   4.454  15.747  0.7783 -0.6272 -1.9138
18655TIP3    H277457   3.105   4.533  15.735  0.6678 -0.0455  0.4193
18656TIP3   OH277458   0.720   0.903   0.533  0.1685 -0.1011  0.7819
18656TIP3    H177459   0.811   0.875   0.539  0.4125  0.8690  1.6678
18656TIP3    H277460   0.720   0.994   0.562 -1.1347 -0.1863  1.1049
18657TIP3   OH277461   2.760   1.940   3.179 -0.2266 -0.0730  0.0883
18657TIP3    H177462   2.682   1.994   3.186 -0.4040 -0.1990 -0.9424
18657TIP3    H277463   2.832   2.003   3.173 -0.1518  0.0494  1.8734
18658TIP3   OH277464   2.744   1.054   5.471  0.5419  0.1213  0.2248
18658TIP3    H177465   2.665   1.100   5.500  1.1832  0.3878  1.5704
18658TIP3    H277466   2.715   1.001   5.397 -1.0526 -0.3315  1.1623
18659TIP3   OH277467   3.040   2.963   3.131 -0.2751 -0.0789 -0.5180
18659TIP3    H177468   3.019   3.026   3.201  0.8457  1.0245 -1.1439
18659TIP3    H277469   3.048   2.879   3.176  0.6191  0.6548  0.7404
18660TIP3   OH277470   3.732   5.534  12.549  0.5726 -0.1338 -0.2674
18660TIP3    H177471   3.797   5.602  12.567  0.9520 -0.6717  0.4422
18660TIP3    H277472   3.649   5.571  12.579  0.6637  0.2970 -0.5502
18661TIP3   OH277473   2.519   4.015  17.258  0.1933  0.2250 -0.1085
18661TIP3    H177474   2.470   4.055  17.187 -1.4877  2.2759  2.1180
18661TIP3    H277475   2.597   4.070  17.268  0.0060  0.4354  0.1942
18662TIP3   OH277476   5.258   3.280  11.454  0.2762  0.1485  0.3769
18662TIP3    H177477   5.166   3.283  11.427  0.2877  1.0933  0.4320
18662TIP3    H277478   5.306   3.316  11.380  0.6406 -0.7363  0.1803
18663TIP3   OH277479   5.226   5.424   5.013 -0.0063  0.7689  0.1773
18663TIP3    H177480   5.279   5.392   4.940 -0.8249 -0.2309  0.0072
18663TIP3    H277481   5.197   5.511   4.984  0.3550  0.7275 -0.3350
18664TIP3   OH277482   2.596   3.559  15.704  0.4522  0.2801 -0.3829
18664TIP3    H177483   2.687   3.535  15.687  0.3288 -0.3133 -0.2257
18664TIP3    H277484   2.580   3.635  15.648  1.5295  1.3961  0.7938
18665TIP3   OH277485   2.215   6.548   3.201  0.0331  0.2893 -0.0072
18665TIP3    H177486   2.251   6.464   3.229  2.1957  0.4935 -2.0015
18665TIP3    H277487   2.155   6.527   3.130 -0.2543  0.3382  0.2210
18666TIP3   OH277488   1.371   0.143  13.827 -0.1533  0.3732  0.1216
18666TIP3    H177489   1.440   0.205  13.851 -1.0519  0.7766  1.7418
18666TIP3    H277490   1.415   0.078  13.772  1.0378  1.8492 -0.7296
18667TIP3   OH277491   0.250   0.050   0.674 -0.0042 -0.1761 -0.4826
18667TIP3    H177492   0.188   0.121   0.693 -1.2260 -1.0507 -1.1347
18667TIP3    H277493   0.223   0.016   0.589  1.6609 -0.2871 -0.9976
18668TIP3   OH277494   5.484   1.209  12.087 -0.7158  0.3791 -0.1644
18668TIP3    H177495   5.413   1.179  12.030 -1.4143  2.7857 -0.6013
18668TIP3    H277496   5.440   1.265  12.152  0.3955 -0.4393  1.3345
18669TIP3   OH277497   2.972   3.171  12.339  0.4035  0.0784 -0.2650
18669TIP3    H177498   2.971   3.231  12.414 -0.5220  0.6279 -0.7192
18669TIP3    H277499   2.940   3.223  12.266  0.5059 -0.7026 -0.8735
18670TIP3   OH277500   1.161   3.355   5.202  0.2945  0.5427  0.0200
18670TIP3    H177501   1.095   3.383   5.139  2.6263  2.0592 -1.7923
18670TIP3    H277502   1.120   3.281   5.248 -1.2448 -0.9606 -3.6043
18671TIP3   OH277503   1.109   1.089   2.804 -0.5304 -0.1577  0.2679
18671TIP3    H177504   1.153   1.020   2.854 -2.2018 -3.6352 -2.7998
18671TIP3    H277505   1.023   1.097   2.845 -0.2687  0.2823  0.7426
18672TIP3   OH277506   1.334   4.517  15.653  0.0517  0.2683  0.0518
18672TIP3    H177507   1.299   4.471  15.729  0.5760  2.1695  1.5014
18672TIP3    H277508   1.321   4.610  15.674  0.1923  0.8123 -2.1942
18673TIP3   OH277509   1.599   4.160  15.279 -0.0129 -0.1866 -0.0497
18673TIP3    H177510   1.694   4.148  15.274 -0.1611 -0.6979 -2.0709
18673TIP3    H277511   1.564   4.071  15.284 -0.5009 -0.1404 -2.2002
18674TIP3   OH277512   1.586   5.616  15.704 -0.1918 -0.3916  0.1472
18674TIP3    H177513   1.548   5.673  15.637 -1.8860  0.7023  1.9416
18674TIP3    H277514   1.536   5.535  15.699 -0.1332 -0.4105 -0.1072
18675TIP3   OH277515   2.158   3.391   6.695 -0.2482  0.6032 -0.8280
18675TIP3    H177516   2.079   3.441   6.717 -0.0766  0.5800 -0.1353
18675TIP3    H277517   2.158   3.317   6.755  0.1579  0.4501 -1.0089
18676TIP3   OH277518   5.631   6.300  16.071  0.1822 -0.1492 -0.1457
18676TIP3    H177519   5.626   6.242  16.147  1.4252 -0.8509 -0.5828
18676TIP3    H277520   5.723   6.297  16.044  0.3743  2.3997  0.1008
18677TIP3   OH277521   1.193   3.969  13.502 -0.0112 -0.5197 -0.2669
18677TIP3    H177522   1.259   3.998  13.566 -1.7588  0.6836  1.0713
18677TIP3    H277523   1.238   3.971  13.418  1.3167  1.4720  0.4536
18678TIP3   OH277524   2.062   3.199   3.739 -0.5033 -0.0411 -0.4822
18678TIP3    H177525   1.997   3.165   3.801  0.4289  1.1918  1.2516
18678TIP3    H277526   2.143   3.201   3.790  0.6577 -0.5993 -2.3075
18679TIP3   OH277527   4.149   1.198  16.610  0.2959 -0.4109  0.2770
18679TIP3    H177528   4.070   1.144  16.612 -0.1192  0.1313 -1.0258
18679TIP3    H277529   4.160   1.228  16.700  0.1741 -2.1369  0.8887
18680TIP3   OH277530   3.699   4.493   3.562 -0.0270  0.3041  0.1093
18680TIP3    H177531   3.740   4.413   3.594  2.7263  1.0046 -1.4889
18680TIP3    H277532   3.644   4.465   3.489  1.0794 -0.1080 -0.5700
18681TIP3   OH277533   2.716   3.971   2.193 -0.2413  0.2070 -0.0235
18681TIP3    H177534   2.662   3.893   2.205  0.1289  0.2036  1.8120
18681TIP3    H277535   2.804   3.937   2.178 -0.3778  0.2465 -0.9212
18682TIP3   OH277536   3.991   2.784   4.797 -0.1032  0.4008 -0.0431
18682TIP3    H177537   4.064   2.727   4.823 -1.8399 -2.4094 -1.0911
18682TIP3    H277538   3.999   2.792   4.702 -0.5184  0.9941 -0.0311
18683TIP3   OH277539   5.468   4.304  16.525  0.0227 -0.1750 -0.7227
18683TIP3    H177540   5.450   4.395  16.550  0.9724 -0.1134 -0.2376
18683TIP3    H277541   5.432   4.251  16.596  1.2791 -0.0752  0.0058
18684TIP3   OH277542   3.707   2.846  11.177 -0.1525  0.0924  0.3639
18684TIP3    H177543   3.739   2.794  11.103  0.7492 -0.0357  0.8313
18684TIP3    H277544   3.728   2.937  11.153 -0.9459  0.1605 -0.0703
18685TIP3   OH277545   1.040   1.995   5.720 -0.3773  0.0207 -0.7261
18685TIP3    H177546   1.109   2.013   5.656  0.5960 -2.5239 -0.4626
18685TIP3    H277547   0.958   2.007   5.672  0.2870  1.1660 -1.5832
18686TIP3   OH277548   2.356   1.493   0.739 -0.8144  0.5021  0.6634
18686TIP3    H177549   2.274   1.443   0.740 -0.0306 -0.8223  0.3829
18686TIP3    H277550   2.337   1.571   0.790 -2.1130 -0.0422  1.0361
18687TIP3   OH277551   2.170   5.658   1.656  0.4937 -0.7334  0.2399
18687TIP3    H177552   2.205   5.738   1.696 -0.9197 -0.1105  0.2688
18687TIP3    H277553   2.075   5.667   1.663  0.3274 -3.2125  1.8070
18688TIP3   OH277554   3.817   1.905  15.495 -0.9714  0.5057 -0.2159
18688TIP3    H177555   3.723   1.897  15.511 -0.6667  0.8940  1.9642
18688TIP3    H277556   3.830   1.998  15.473 -1.3717  0.0079 -2.6159
18689TIP3   OH277557   6.311   4.355  17.115 -0.3374 -0.9786  0.2833
18689TIP3    H177558   6.242   4.337  17.179  0.2078 -0.5154  1.0177
18689TIP3    H277559   6.338   4.445  17.134  1.0196 -1.4287  0.5361
18690TIP3   OH277560   1.016   6.451   5.631 -0.4424  0.2731  0.0611
18690TIP3    H177561   1.074   6.418   5.701 -0.5723 -0.0052  0.0399
18690TIP3    H277562   0.936   6.399   5.640  0.3089 -1.2191 -1.6128
18691TIP3   OH277563   2.620   5.793   3.617 -0.2767  0.2623  0.3920
18691TIP3    H177564   2.612   5.704   3.582  1.3359 -0.9718  2.9537
18691TIP3    H277565   2.530   5.820   3.635 -0.9162 -0.1285 -2.0631
18692TIP3   OH277566   3.976   5.666   1.982  0.6673 -0.5866 -0.2307
18692TIP3    H177567   3.986   5.712   1.899 -0.0081  0.3507  0.2005
18692TIP3    H277568   4.025   5.719   2.045 -0.1181 -0.4429  0.2664
18693TIP3   OH277569   5.775   1.889   1.629  0.1599  0.0488  0.2406
18693TIP3    H177570   5.751   1.938   1.708  1.1921 -0.6595  1.0073
18693TIP3    H277571   5.828   1.816   1.661 -1.0518 -1.3763 -0.9121
18694TIP3   OH277572   6.565   1.894  12.803 -1.1172 -0.5318 -0.1940
18694TIP3    H177573   6.511   1.825  12.765 -0.8944 -0.6739 -0.2530
18694TIP3    H277574   6.587   1.861  12.891 -0.9709 -0.5582 -0.2402
18695TIP3   OH277575   3.974   3.302   2.688 -0.0577  0.2191  0.0690
18695TIP3    H177576   3.962   3.222   2.740 -0.5805  0.7089  0.7079
18695TIP3    H277577   3.935   3.282   2.603 -0.5086 -0.0788  0.3448
18696TIP3   OH277578   5.226   4.792   1.516  0.0153  0.5619  0.8812
18696TIP3    H177579   5.303   4.845   1.492 -0.0264 -0.5999 -1.9806
18696TIP3    H277580   5.152   4.851   1.502  0.1370  0.5263  0.0594
18697TIP3   OH277581   6.814   2.467  11.280 -0.0042 -0.5969  0.7703
18697TIP3    H177582   6.839   2.485  11.189 -1.3851  0.8432  0.6543
18697TIP3    H277583   6.885   2.413  11.314  0.5462 -1.1283 -1.1565
18698TIP3   OH277584   5.047   1.925   4.440 -0.2440 -0.0930 -0.0086
18698TIP3    H177585   5.141   1.930   4.419  0.5587 -2.0503  2.7642
18698TIP3    H277586   5.020   2.016   4.453  1.8613  0.3753  1.4034
18699TIP3   OH277587   2.066   6.128  15.290  0.1998  0.2141 -0.8046
18699TIP3    H177588   2.158   6.121  15.267  0.5933  0.4386  0.6490
18699TIP3    H277589   2.063   6.197  15.357 -1.1142  0.7268 -1.3799
18700TIP3   OH277590   4.530   3.541  11.384  0.5354  0.1390 -0.1458
18700TIP3    H177591   4.602   3.600  11.407  0.6838 -0.4735  1.0052
18700TIP3    H277592   4.507   3.498  11.467  1.6820 -2.7892 -1.2785
18701TIP3   OH277593   6.103   0.752   3.942 -0.0849  0.1563 -0.4917
18701TIP3    H177594   6.065   0.723   3.860 -0.7398 -0.2381 -0.0527
18701TIP3    H277595   6.036   0.807   3.982 -0.0326 -0.1993  0.0874
18702TIP3   OH277596   2.044   1.660   3.256  0.0088  0.0817 -0.1860
18702TIP3    H177597   1.977   1.624   3.315 -0.7722 -1.8459 -2.1928
18702TIP3    H277598   2.002   1.662   3.170  1.3247  2.3261 -0.8150
18703TIP3   OH277599   0.456   6.764   1.591 -0.1997  0.0066  0.0682
18703TIP3    H177600   0.371   6.803   1.571  0.1614  0.6806 -0.1564
18703TIP3    H277601   0.440   6.710   1.669 -0.3742  1.8636  1.3614
18704TIP3   OH277602   1.623   0.487   4.767 -0.3800  0.3924 -0.0278
18704TIP3    H177603   1.539   0.448   4.791  0.1421 -0.0813  1.0772
18704TIP3    H277604   1.662   0.512   4.851  1.0154 -0.2937 -0.4635
18705TIP3   OH277605   0.475   4.987   2.254  0.6316 -0.1857  0.0376
18705TIP3    H177606   0.447   4.950   2.338 -1.2666 -0.8795 -0.8559
18705TIP3    H277607   0.570   4.980   2.254  0.4488 -3.1862  0.7816
18706TIP3   OH277608   3.444   2.866  16.499  0.3206 -0.0223 -0.2094
18706TIP3    H177609   3.377   2.841  16.563 -0.0911  2.2868  0.3049
18706TIP3    H277610   3.504   2.792  16.497 -1.1177 -1.2585  0.8661
18707TIP3   OH277611   0.176   6.434   2.366 -0.5301 -0.4179  0.2971
18707TIP3    H177612   0.167   6.342   2.340 -1.0444 -0.3980  0.4028
18707TIP3    H277613   0.222   6.430   2.450  2.1585 -0.4294 -1.1228
18708TIP3   OH277614   4.499   0.972  15.157  0.1457 -0.3465 -0.1223
18708TIP3    H177615   4.447   0.999  15.081 -1.2981  0.3728  1.0817
18708TIP3    H277616   4.578   1.026  15.152 -1.3441  1.9862  0.5677
18709TIP3   OH277617   1.589   1.753  14.864  0.2758  0.1369  0.0257
18709TIP3    H177618   1.642   1.830  14.846 -0.1092  0.0685 -1.5043
18709TIP3    H277619   1.618   1.688  14.800 -0.2574 -0.5784  0.4893
18710TIP3   OH277620   2.877   3.834   1.923  0.2507  0.5150 -0.6543
18710TIP3    H177621   2.901   3.916   1.880 -0.3679  0.7047 -0.6411
18710TIP3    H277622   2.922   3.838   2.008  0.3893  0.7423 -0.7378
18711TIP3   OH277623   6.082   3.869  16.049  0.0158 -0.0056 -0.3138
18711TIP3    H177624   6.051   3.917  16.125  0.7132  0.2213 -0.1687
18711TIP3    H277625   6.125   3.791  16.086  0.7849  0.3503 -0.4474
18712TIP3   OH277626   2.780   5.353  12.932 -0.0252  0.2658 -0.1858
18712TIP3    H177627   2.732   5.277  12.965  0.6927 -0.2124 -0.2085
18712TIP3    H277628   2.838   5.378  13.004  0.1792  0.4046 -0.3947
18713TIP3   OH277629   0.815   4.386  12.637 -0.0704  0.3043  0.1874
18713TIP3    H177630   0.803   4.447  12.709  2.0579  0.2391  0.6156
18713TIP3    H277631   0.760   4.422  12.567 -0.1462  1.7861  0.9786
18714TIP3   OH277632   6.586   2.199   3.332 -0.3780  0.0876  0.1459
18714TIP3    H177633   6.642   2.136   3.287  0.2571  0.6166  0.1859
18714TIP3    H277634   6.521   2.225   3.266  1.0434  1.4761 -0.7436
18715TIP3   OH277635   4.327   6.750   3.154  0.1789  0.4809  0.0407
18715TIP3    H177636   4.257   6.814   3.143  0.4698  0.4601 -2.1308
18715TIP3    H277637   4.405   6.803   3.169  0.1608  0.5988 -0.2663
18716TIP3   OH277638   2.974   6.723   5.533 -0.2059  0.4645 -0.0663
18716TIP3    H177639   2.948   6.704   5.443 -0.9157  0.8238  0.0581
18716TIP3    H277640   2.900   6.693   5.586  1.3159 -2.2253  0.6189
18717TIP3   OH277641   5.178   6.557  16.825  0.4929  0.0977 -0.4984
18717TIP3    H177642   5.254   6.589  16.872  0.0258  0.5167 -0.0190
18717TIP3    H277643   5.176   6.463  16.843  1.7200 -0.1698 -1.7037
18718TIP3   OH277644   6.335   4.878  15.180  0.4829 -0.0237  0.0032
18718TIP3    H177645   6.355   4.789  15.209  1.6010 -0.1800 -1.1674
18718TIP3    H277646   6.349   4.933  15.257 -0.5521 -0.9073  0.8237
18719TIP3   OH277647   2.411   1.376  17.090 -0.4112  0.0622  0.3149
18719TIP3    H177648   2.325   1.417  17.098 -0.5594  0.4777 -2.8261
18719TIP3    H277649   2.473   1.445  17.116 -0.8659  0.9261 -0.8616
18720TIP3   OH277650   5.812   2.565  16.820  0.7192  0.7214  0.3435
18720TIP3    H177651   5.742   2.503  16.842  0.6176  1.0838  1.0602
18720TIP3    H277652   5.771   2.628  16.761  1.6006 -1.6254 -2.9100
18721TIP3   OH277653   2.938   0.124   0.786 -0.7262 -0.4680 -0.2836
18721TIP3    H177654   2.874   0.096   0.721 -1.1191 -0.3104  0.0350
18721TIP3    H277655   2.886   0.158   0.859 -0.2813 -0.1301 -0.1159
18722TIP3   OH277656   4.333   0.678   5.124  0.3191 -0.2850 -0.1882
18722TIP3    H177657   4.260   0.730   5.090  0.7433 -0.1153 -0.8506
18722TIP3    H277658   4.301   0.643   5.207 -0.2602  0.3733 -0.1312
18723TIP3   OH277659   3.104   5.883   2.822 -0.0733  0.2137  0.0306
18723TIP3    H177660   3.118   5.812   2.760  3.3129 -3.0086  4.1565
18723TIP3    H277661   3.184   5.935   2.818 -1.5204  2.4013 -1.1786
18724TIP3   OH277662   2.664   1.107   1.279  0.1310  0.0186 -0.5740
18724TIP3    H177663   2.693   1.125   1.190 -1.5604  0.1660 -1.1224
18724TIP3    H277664   2.575   1.143   1.283  0.9907  2.0729  1.8811
18725TIP3   OH277665   4.301   0.323   5.342 -0.0483  0.3766 -0.2407
18725TIP3    H177666   4.371   0.337   5.278 -0.4989  1.0263 -0.6015
18725TIP3    H277667   4.339   0.264   5.407  0.9992  1.1130 -0.1694
18726TIP3   OH277668   6.348   2.987  16.263  0.1874 -0.2965  0.1762
18726TIP3    H177669   6.301   2.982  16.347  0.5525  2.3514  0.5755
18726TIP3    H277670   6.439   3.005  16.287  0.2860  0.5169 -0.7765
18727TIP3   OH277671   6.388   1.114   1.029 -0.4664  0.1066 -0.2618
18727TIP3    H177672   6.435   1.072   0.957 -1.9083 -0.2786 -1.0026
18727TIP3    H277673   6.433   1.084   1.108  0.6182 -0.1239 -0.9532
18728TIP3   OH277674   5.687   2.466   4.198  0.2602 -0.0009 -0.3145
18728TIP3    H177675   5.694   2.377   4.163 -1.3449 -0.6157  0.8898
18728TIP3    H277676   5.663   2.454   4.289  0.1927  1.6845 -0.1024
18729TIP3   OH277677   3.309   4.817  10.757  0.3989  0.0469  0.3896
18729TIP3    H177678   3.368   4.862  10.818  1.5221  2.1287 -2.1651
18729TIP3    H277679   3.367   4.767  10.700 -0.3370  1.4459 -1.6220
18730TIP3   OH277680   4.682   6.784  15.750  0.1525 -0.1159 -0.0132
18730TIP3    H177681   4.738   6.804  15.824 -1.4900  1.2590  0.8868
18730TIP3    H277682   4.740   6.789  15.674  1.1880  1.5549  0.8584
18731TIP3   OH277683   2.386   2.694   6.016 -0.8547  0.0844  0.2080
18731TIP3    H177684   2.304   2.742   6.029 -1.4541 -0.6758 -0.7357
18731TIP3    H277685   2.407   2.659   6.103 -2.0117 -0.4701  0.2808
18732TIP3   OH277686   5.447   6.307  12.500  0.1110  0.1043 -0.3148
18732TIP3    H177687   5.506   6.275  12.568 -1.2718  1.4711  1.5707
18732TIP3    H277688   5.360   6.300  12.539 -0.3912  4.6021 -0.3840
18733TIP3   OH277689   0.971   4.717   5.866  0.6281 -0.0137 -0.4910
18733TIP3    H177690   0.968   4.696   5.959  1.2756 -0.2289 -0.5139
18733TIP3    H277691   0.926   4.801   5.859  0.8926  0.1762  0.0658
18734TIP3   OH277692   3.108   5.149  13.758 -0.0210 -0.2167 -0.5039
18734TIP3    H177693   3.064   5.203  13.692 -2.8630 -1.5389  0.2141
18734TIP3    H277694   3.148   5.078  13.708 -0.0421  0.1514 -1.0442
18735TIP3   OH277695   6.091   4.421  14.815  0.6617 -0.3027  0.0716
18735TIP3    H177696   6.156   4.452  14.879 -0.4597  2.4667 -0.0645
18735TIP3    H277697   6.133   4.433  14.730  0.5901 -0.0709  0.0692
18736TIP3   OH277698   4.185   3.328   0.129 -0.0003 -0.1237 -1.1378
18736TIP3    H177699   4.233   3.256   0.087  0.4850  0.1533 -1.0706
18736TIP3    H277700   4.252   3.373   0.182 -0.9766 -1.6275  1.4746
18737TIP3   OH277701   2.351   2.068  12.986  0.3251  0.2879 -0.4587
18737TIP3    H177702   2.411   2.047  12.915 -0.0100 -0.0693 -0.6407
18737TIP3    H277703   2.385   2.020  13.062 -0.0551 -0.3754 -0.7048
18738TIP3   OH277704   1.370   2.830  11.092 -0.0781 -0.3718 -0.2336
18738TIP3    H177705   1.397   2.919  11.069 -0.9490  0.1586  0.7425
18738TIP3    H277706   1.283   2.820  11.051 -0.6317 -0.2360  0.8980
18739TIP3   OH277707   4.817   3.601   0.521 -0.0932  0.4400 -0.0436
18739TIP3    H177708   4.867   3.620   0.600 -1.4735 -1.7322  1.3915
18739TIP3    H277709   4.747   3.666   0.522 -0.1496  0.3737  0.5577
18740TIP3   OH277710   6.102   6.723   0.841  0.1959  0.3388 -0.2758
18740TIP3    H177711   6.130   6.642   0.798 -1.0016 -0.8134  1.0559
18740TIP3    H277712   6.150   6.792   0.796 -0.4493 -0.8899 -2.9383
18741TIP3   OH277713   1.166   0.369   2.506 -0.4365 -0.0744  0.6994
18741TIP3    H177714   1.155   0.463   2.491 -2.9560 -0.5518 -0.7066
18741TIP3    H277715   1.189   0.334   2.420 -2.0298 -1.0761  0.6662
18742TIP3   OH277716   1.138   3.882   6.358  0.1447 -0.6090  0.2479
18742TIP3    H177717   1.161   3.968   6.322 -2.2415  0.3918  1.0435
18742TIP3    H277718   1.223   3.841   6.376  1.3711  0.2443 -3.1611
18743TIP3   OH277719   4.198   3.167   4.082  0.3356 -0.1753 -0.7435
18743TIP3    H177720   4.176   3.257   4.105 -2.0500 -0.9058  0.0449
18743TIP3    H277721   4.268   3.143   4.142 -0.3550  0.5372  0.3740
18744TIP3   OH277722   5.999   5.954   2.072 -0.5807  0.2496 -0.1874
18744TIP3    H177723   6.076   5.900   2.088  0.5487  1.6949 -0.6504
18744TIP3    H277724   5.933   5.922   2.134  0.1237 -1.4935 -0.3048
18745TIP3   OH277725   0.180   6.114   4.467 -0.4355  0.2349  0.4705
18745TIP3    H177726   0.223   6.056   4.404 -1.4564 -2.5646  2.2941
18745TIP3    H277727   0.190   6.070   4.551 -2.4003  2.0709  1.7041
18746TIP3   OH277728   3.539   2.151  14.658 -0.2798 -0.1104 -0.2810
18746TIP3    H177729   3.462   2.142  14.602 -0.4776 -0.8026  0.1068
18746TIP3    H277730   3.569   2.061  14.673  0.8051  0.1634 -0.7077
18747TIP3   OH277731   6.062   2.658   4.018  0.0495 -0.0130  0.1969
18747TIP3    H177732   6.127   2.707   3.967  0.6450 -1.1923 -0.1821
18747TIP3    H277733   5.991   2.641   3.955 -0.0190  0.0895  0.2459
18748TIP3   OH277734   2.264   1.523   3.197  0.1487 -0.7179 -0.0348
18748TIP3    H177735   2.249   1.503   3.105 -0.2839 -0.1818 -0.0830
18748TIP3    H277736   2.184   1.567   3.225  0.3274 -0.7769  0.5681
18749TIP3   OH277737   4.295   1.462  13.371  0.0152 -0.2450  0.0931
18749TIP3    H177738   4.254   1.505  13.446  1.1069  1.8536 -0.4677
18749TIP3    H277739   4.345   1.532  13.328  0.1079 -1.6189 -2.0848
18750TIP3   OH277740   2.322   1.766   4.849 -0.0237 -0.0561  0.1114
18750TIP3    H177741   2.269   1.828   4.900 -1.3103 -2.5012  1.8231
18750TIP3    H277742   2.298   1.784   4.758 -0.7512  1.6220  0.6058
18751TIP3   OH277743   3.903   1.169   6.203 -0.4552 -0.3068 -0.1715
18751TIP3    H177744   3.839   1.241   6.203  0.8746  0.8808 -0.1143
18751TIP3    H277745   3.981   1.206   6.164  0.7319 -1.2849  1.2245
18752TIP3   OH277746   1.727   1.479   4.273 -0.0883 -0.2665 -0.2580
18752TIP3    H177747   1.643   1.442   4.301  0.4040 -1.1273  0.1019
18752TIP3    H277748   1.720   1.484   4.177 -1.2225  1.3370 -0.1043
18753TIP3   OH277749   1.457   4.261  16.924 -0.1294 -0.2968  0.3621
18753TIP3    H177750   1.454   4.348  16.883  2.2773 -0.9331 -1.2708
18753TIP3    H277751   1.427   4.202  16.855  0.6327 -1.0118  0.6360
18754TIP3   OH277752   6.413   1.694  12.670  0.4306  0.0916 -0.7051
18754TIP3    H177753   6.410   1.697  12.574  1.5598  0.5117 -0.7252
18754TIP3    H277754   6.417   1.600  12.690  1.0497  0.0298 -1.0965
18755TIP3   OH277755   0.993   4.232   3.298  0.2777  0.2893  0.0527
18755TIP3    H177756   1.005   4.304   3.360 -0.3401 -0.2488  0.8102
18755TIP3    H277757   0.929   4.265   3.236  1.0962  0.9316 -0.4692
18756TIP3   OH277758   5.357   5.957  11.853 -0.4582 -0.4483  0.3273
18756TIP3    H177759   5.418   6.006  11.907 -1.6679  1.0708  0.3647
18756TIP3    H277760   5.404   5.877  11.829  1.0518  0.1009  1.3982
18757TIP3   OH277761   2.290   1.341  14.375  0.0310 -0.5627 -0.6376
18757TIP3    H177762   2.210   1.323  14.326  0.7465 -0.8806 -1.7063
18757TIP3    H277763   2.345   1.390  14.314  0.9107 -0.9161 -0.1378
18758TIP3   OH277764   3.383   3.473   2.262  0.1334  0.5548 -0.1603
18758TIP3    H177765   3.427   3.410   2.320 -1.0862 -0.5219 -0.3960
18758TIP3    H277766   3.326   3.523   2.321 -1.2683 -0.6830 -0.4364
18759TIP3   OH277767   1.049   1.482   2.844 -0.8878 -0.6323 -0.2000
18759TIP3    H177768   1.052   1.399   2.796  2.4434 -0.8127  0.2278
18759TIP3    H277769   1.046   1.456   2.936 -0.2830 -0.2697 -0.0805
18760TIP3   OH277770   2.375   3.034   5.873 -0.0962 -0.3917  0.6558
18760TIP3    H177771   2.413   2.952   5.843 -0.8905  0.0780 -1.7327
18760TIP3    H277772   2.449   3.094   5.881  0.0950 -0.4185 -0.7996
18761TIP3   OH277773   0.908   6.251  13.050  0.3004  0.1777 -0.3203
18761TIP3    H177774   0.999   6.256  13.079 -0.0797 -0.2205  0.9909
18761TIP3    H277775   0.859   6.293  13.121 -0.7119 -1.3732 -0.0883
18762TIP3   OH277776   5.402   6.472  13.595  0.0790 -0.4770 -0.0876
18762TIP3    H177777   5.374   6.549  13.545 -0.2961 -1.5618 -1.5711
18762TIP3    H277778   5.480   6.441  13.550  0.7615 -0.4600  1.0439
18763TIP3   OH277779   4.201   4.305   2.297  0.0895  0.1456 -0.3240
18763TIP3    H177780   4.157   4.245   2.237 -0.5710 -0.6572  0.9391
18763TIP3    H277781   4.204   4.257   2.380 -0.7119  1.9927  0.7848
18764TIP3   OH277782   6.478   4.286   3.821 -0.1061 -0.1751 -0.3742
18764TIP3    H177783   6.468   4.247   3.734 -0.1795 -2.1698  0.4987
18764TIP3    H277784   6.439   4.222   3.881 -0.9824  1.6472  1.0355
18765TIP3   OH277785   2.521   0.930   5.136  0.4344 -0.2788  0.4069
18765TIP3    H177786   2.505   0.983   5.214 -2.2522 -1.2708  0.5810
18765TIP3    H277787   2.522   0.992   5.064 -0.2829  0.2877  0.8761
18766TIP3   OH277788   6.464   2.012   4.773  0.7851 -0.8784  0.4690
18766TIP3    H177789   6.521   2.059   4.712  0.9547  0.1141  1.3757
18766TIP3    H277790   6.504   2.026   4.859 -0.4721 -0.7103  1.0417
18767TIP3   OH277791   2.885   5.690  11.549 -0.7804 -0.9545 -0.6760
18767TIP3    H177792   2.947   5.683  11.476 -0.6385 -0.7738 -0.5733
18767TIP3    H277793   2.886   5.603  11.589  1.0328 -0.3766  0.6389
18768TIP3   OH277794   6.627   2.728   4.487 -0.2412 -0.1018 -0.3528
18768TIP3    H177795   6.608   2.642   4.524  1.4711  0.3744  1.7278
18768TIP3    H277796   6.583   2.790   4.545  0.3443  0.5330 -0.5721
18769TIP3   OH277797   5.415   0.130  16.419  0.0537  0.1355  0.1430
18769TIP3    H177798   5.404   0.167  16.332  0.2084  0.1972  0.1487
18769TIP3    H277799   5.509   0.136  16.436  0.3756 -2.0221 -0.6455
18770TIP3   OH277800   2.359   5.910   3.716 -0.3776 -0.2602 -0.1352
18770TIP3    H177801   2.270   5.924   3.684  0.5830 -0.2545 -2.9339
18770TIP3    H277802   2.384   5.995   3.754 -2.1484 -0.7726  2.2834
18771TIP3   OH277803   6.320   1.335  15.194 -0.3077  0.1195 -0.2364
18771TIP3    H177804   6.294   1.367  15.108 -0.2118  0.6270 -0.0791
18771TIP3    H277805   6.282   1.398  15.256  1.3112  0.8696 -0.0022
18772TIP3   OH277806   4.427   6.310   2.277 -0.2916 -0.4731 -0.1581
18772TIP3    H177807   4.421   6.235   2.217  1.0324 -0.3175 -0.4929
18772TIP3    H277808   4.468   6.275   2.356 -1.6077 -0.5699  0.4937
18773TIP3   OH277809   4.877   5.006  14.534 -0.1341 -0.5217  0.0016
18773TIP3    H177810   4.961   4.989  14.578 -0.3785  0.8723  1.0573
18773TIP3    H277811   4.818   5.031  14.606 -1.1094 -0.2501 -0.8899
18774TIP3   OH277812   2.101   4.035   2.009 -0.7884 -0.2055 -0.1741
18774TIP3    H177813   2.045   4.091   2.063  0.2279 -0.3707  1.0803
18774TIP3    H277814   2.086   3.947   2.043  1.2184 -0.0935  1.0823
18775TIP3   OH277815   2.067   4.134   3.932 -0.5093 -0.4560  0.0862
18775TIP3    H177816   2.035   4.044   3.925 -1.6720 -0.0393  0.1160
18775TIP3    H277817   2.080   4.162   3.841  0.6745 -0.9301  0.0879
18776TIP3   OH277818   0.504   2.487   3.735  0.3019  0.5966  0.4425
18776TIP3    H177819   0.458   2.569   3.751 -1.2789 -0.4432  1.3525
18776TIP3    H277820   0.488   2.468   3.643 -1.1238  0.2429  0.7510
18777TIP3   OH277821   0.945   0.983  11.018  0.1505 -0.0267 -0.0376
18777TIP3    H177822   0.996   1.046  10.968 -1.6125  0.6594 -1.0199
18777TIP3    H277823   0.881   0.949  10.955 -1.5968  0.2821  1.5342
18778TIP3   OH277824   3.446   0.941  11.466  0.4245  0.2136 -0.1209
18778TIP3    H177825   3.506   0.923  11.394  1.3682 -0.6821  0.8713
18778TIP3    H277826   3.425   0.854  11.501 -0.3646  0.6190  0.4251
18779TIP3   OH277827   6.596   3.128   2.293  0.2046 -0.1207 -0.3976
18779TIP3    H177828   6.666   3.152   2.354 -0.9906 -1.0114  1.3596
18779TIP3    H277829   6.620   3.042   2.260 -0.3564 -0.6963  0.6775
18780TIP3   OH277830   5.680   3.783  15.608  0.4550 -0.2772  0.0090
18780TIP3    H177831   5.641   3.790  15.696  1.3390 -2.5560  0.6225
18780TIP3    H277832   5.623   3.836  15.552 -0.9020  0.1078  1.7042
18781TIP3   OH277833   1.383   3.260  15.148  0.2431 -0.5820 -0.6966
18781TIP3    H177834   1.313   3.325  15.142 -0.9562 -1.9772 -2.1779
18781TIP3    H277835   1.375   3.224  15.236 -0.5302 -0.3247 -0.6632
18782TIP3   OH277836   0.516   3.472   2.245  0.4038  0.0462 -0.4980
18782TIP3    H177837   0.500   3.437   2.333  2.2130  1.4331  0.4378
18782TIP3    H277838   0.569   3.404   2.202 -1.5845 -1.2226 -1.0116
18783TIP3   OH277839   2.264   3.914   3.160 -0.1227 -0.0533  0.1421
18783TIP3    H177840   2.178   3.886   3.129 -0.1913 -0.1988  0.4666
18783TIP3    H277841   2.273   3.873   3.246  0.8940 -1.3022 -0.5223
18784TIP3   OH277842   6.800   0.636   5.210  0.3781  0.0602 -0.0665
18784TIP3    H177843   6.730   0.625   5.275  0.2171  3.4654  0.4260
18784TIP3    H277844   6.870   0.578   5.240 -0.7454 -0.4463  1.6535
18785TIP3   OH277845   2.207   1.645   1.796  0.2990  0.2695 -0.9239
18785TIP3    H177846   2.206   1.738   1.820 -0.5930  0.6359 -2.3230
18785TIP3    H277847   2.291   1.613   1.829  2.1507  2.3708 -3.3116
18786TIP3   OH277848   0.001   0.547  14.639 -0.4925  0.2835 -0.5608
18786TIP3    H177849  -0.019   0.574  14.549  2.3174 -0.8570 -1.5878
18786TIP3    H277850  -0.011   0.626  14.691 -1.1217  1.2264 -2.0965
18787TIP3   OH277851   6.663   2.385   5.246 -0.3373 -0.1295 -0.2828
18787TIP3    H177852   6.688   2.426   5.163 -0.6448 -0.7229 -0.6707
18787TIP3    H277853   6.589   2.437   5.277 -0.8209 -0.4804 -0.8491
18788TIP3   OH277854   0.269   2.671   3.667  0.3895  0.0598  0.1567
18788TIP3    H177855   0.186   2.678   3.620  0.2566  1.6710  0.6058
18788TIP3    H277856   0.266   2.585   3.708 -0.8758 -0.0659 -0.1696
18789TIP3   OH277857   5.460   4.106  10.640  0.1887  0.2384 -0.2781
18789TIP3    H177858   5.373   4.117  10.603  0.8528  1.2612 -1.5910
18789TIP3    H277859   5.461   4.017  10.674 -1.2669  0.1266 -0.5258
18790TIP3   OH277860   4.336   4.584  14.470  1.0025  0.0912  0.2687
18790TIP3    H177861   4.243   4.599  14.457  0.8399  0.1351  1.4672
18790TIP3    H277862   4.365   4.540  14.390  0.1196  0.7885 -0.4299
18791TIP3   OH277863   4.395   6.271  10.661  0.0375 -0.3254  0.8903
18791TIP3    H177864   4.302   6.261  10.678  0.0736  0.0890  1.3113
18791TIP3    H277865   4.435   6.193  10.700 -0.1967 -0.8168  0.1656
18792TIP3   OH277866   6.332   0.559   1.079 -0.6253 -0.0881  0.5191
18792TIP3    H177867   6.398   0.584   1.014 -1.3794  0.0826 -0.1788
18792TIP3    H277868   6.342   0.624   1.149 -2.2425  1.9137 -1.0531
18793TIP3   OH277869   0.968   3.260  15.413 -0.2539  0.2138  0.0740
18793TIP3    H177870   0.913   3.330  15.448 -0.7048 -0.3570  0.5289
18793TIP3    H277871   0.974   3.197  15.485 -0.1700 -0.3923 -0.4589
18794TIP3   OH277872   5.263   6.523  16.139 -0.2868  1.0902 -0.3542
18794TIP3    H177873   5.281   6.470  16.216  0.9352 -1.4864 -2.3571
18794TIP3    H277874   5.197   6.586  16.168 -2.0776 -1.7722  2.0155
18795TIP3   OH277875   3.790   2.974   5.279  0.0288  0.0890  0.7669
18795TIP3    H177876   3.864   2.982   5.219 -0.0545  1.2819  0.8092
18795TIP3    H277877   3.818   3.022   5.357 -0.6942  0.3297  0.8766
18796TIP3   OH277878   1.239   2.649   0.294  0.0015  0.0946 -0.5591
18796TIP3    H177879   1.171   2.595   0.333 -1.2789  0.8564 -1.7140
18796TIP3    H277880   1.208   2.668   0.206  0.2318  3.0602 -0.0512
18797TIP3   OH277881   3.693   5.275   6.080 -0.0205 -0.1582  0.4849
18797TIP3    H177882   3.752   5.279   6.005 -0.5553 -2.6175 -0.1237
18797TIP3    H277883   3.669   5.183   6.087 -0.3221  0.0915  3.4394
18798TIP3   OH277884   1.386   6.651   3.159 -0.3220 -0.1140 -0.0336
18798TIP3    H177885   1.330   6.640   3.082 -2.9733 -2.0372  2.0585
18798TIP3    H277886   1.466   6.603   3.138 -0.7577 -0.0844 -1.8147
18799TIP3   OH277887   2.261   4.350   1.597 -0.8796  0.4355 -0.1237
18799TIP3    H177888   2.231   4.432   1.638 -1.9911 -0.9388  1.9110
18799TIP3    H277889   2.289   4.376   1.509 -3.4248  2.6155 -0.3645
18800TIP3   OH277890   0.056   4.890   2.129  0.3640  0.4072  0.2251
18800TIP3    H177891   0.073   4.945   2.052  2.2623  0.9289  0.9845
18800TIP3    H277892   0.033   4.953   2.198  4.6719  0.5673  1.6929
18801TIP3   OH277893   5.249   5.857  16.962 -0.6461  0.2874 -0.0341
18801TIP3    H177894   5.287   5.891  17.043 -2.9014  1.5542  0.5178
18801TIP3    H277895   5.280   5.917  16.894 -0.4065  0.3963  0.1699
18802TIP3   OH277896   5.777   3.022   4.081 -0.5302 -0.2895  0.3246
18802TIP3    H177897   5.801   3.114   4.074  2.1432 -0.8552  1.3113
18802TIP3    H277898   5.776   2.990   3.991  0.3936  0.2866  0.0975
18803TIP3   OH277899   6.093   4.387  10.660  0.6066 -0.1512  0.4583
18803TIP3    H177900   6.058   4.448  10.725 -0.4478  0.2884 -0.4847
18803TIP3    H277901   6.016   4.361  10.609  1.4163 -0.4464 -0.6367
18804TIP3   OH277902   3.708   1.000  15.687 -0.2363  0.0870 -0.1140
18804TIP3    H177903   3.623   1.012  15.644 -0.3451  0.9571  0.3194
18804TIP3    H277904   3.765   1.065  15.647  0.0736 -0.1163 -0.0054
18805TIP3   OH277905   1.840   1.406   3.383 -0.4187  0.6353 -0.1586
18805TIP3    H177906   1.765   1.353   3.356 -1.8793  1.9781  1.0871
18805TIP3    H277907   1.906   1.342   3.410 -1.3604 -0.5759 -0.6574
18806TIP3   OH277908   6.351   2.952   6.523 -0.3927  0.0201 -0.0330
18806TIP3    H177909   6.398   2.893   6.582  1.1805 -1.6791 -2.9194
18806TIP3    H277910   6.417   3.013   6.491 -0.6093 -0.9487 -2.3570
18807TIP3   OH277911   1.424   5.402  15.239  0.4426 -0.0907 -0.3718
18807TIP3    H177912   1.387   5.317  15.214  1.1451 -1.0063  1.5996
18807TIP3    H277913   1.515   5.398  15.210  0.8798 -0.6141  1.0198
18808TIP3   OH277914   4.750   4.087   1.438  0.4051  0.3106 -0.0795
18808TIP3    H177915   4.675   4.117   1.386 -1.2556  0.8239  2.5336
18808TIP3    H277916   4.723   4.002   1.471  1.6926 -0.2802 -0.5364
18809TIP3   OH277917   6.573   4.563  14.071  0.1282 -0.0460 -0.3207
18809TIP3    H177918   6.501   4.524  14.022 -1.0979  0.4626  1.0712
18809TIP3    H277919   6.590   4.647  14.026 -1.1758  0.5484  0.2836
18810TIP3   OH277920   5.043   1.090  11.432  0.1120 -0.1722 -0.4047
18810TIP3    H177921   5.004   1.037  11.501  0.4387  0.5405  0.3347
18810TIP3    H277922   4.973   1.100  11.367 -0.2617 -0.6635 -0.0857
18811TIP3   OH277923   6.317   3.758   4.597 -0.2364 -0.0799 -0.1453
18811TIP3    H177924   6.305   3.737   4.689 -2.2378  1.5329  0.0031
18811TIP3    H277925   6.375   3.834   4.597 -0.4511  0.0840 -0.2030
18812TIP3   OH277926   3.809   4.491  10.805  0.1030 -0.5797 -0.3992
18812TIP3    H177927   3.763   4.566  10.841  1.9145 -0.1193  1.0419
18812TIP3    H277928   3.760   4.415  10.835 -0.6501 -0.0433 -0.2638
18813TIP3   OH277929   6.735   2.057   2.185  0.0028 -0.8304 -0.6771
18813TIP3    H177930   6.692   2.124   2.131 -0.4389 -1.1948 -0.7860
18813TIP3    H277931   6.730   2.091   2.274  1.8563  0.3621 -1.0130
18814TIP3   OH277932   3.696   6.783   6.419 -0.2474  0.2648  0.3168
18814TIP3    H177933   3.707   6.719   6.490  0.6976 -0.4742 -0.4946
18814TIP3    H277934   3.777   6.834   6.421 -0.8152  1.1588  0.6750
18815TIP3   OH277935   4.071   3.029  13.953  0.4095  0.2980  0.3323
18815TIP3    H177936   3.991   2.978  13.964  1.2217 -1.2610 -0.8292
18815TIP3    H277937   4.057   3.107  14.006 -0.4221 -1.6068  3.0393
18816TIP3   OH277938   5.627   5.984  11.235 -0.3056 -0.3901  0.1662
18816TIP3    H177939   5.702   6.003  11.179 -0.3090 -0.2111  0.2232
18816TIP3    H277940   5.648   6.025  11.318 -0.0102 -1.2065  0.4968
18817TIP3   OH277941   2.858   4.241   1.064  0.4466  0.4358  0.1416
18817TIP3    H177942   2.795   4.313   1.062  1.7126  1.5537 -0.4959
18817TIP3    H277943   2.907   4.255   1.145 -2.7636 -2.7997  2.8229
18818TIP3   OH277944   2.275   5.334   1.368 -0.5313 -0.6886 -0.5594
18818TIP3    H177945   2.229   5.254   1.393  1.5644 -1.5603  0.6610
18818TIP3    H277946   2.322   5.360   1.447  0.9525  0.2596 -1.7258
18819TIP3   OH277947   5.086   0.875  14.566 -0.1986 -0.0498 -0.3200
18819TIP3    H177948   5.004   0.918  14.590 -0.0562  0.4533 -0.7430
18819TIP3    H277949   5.126   0.853  14.650 -0.8088 -0.3799 -0.1138
18820TIP3   OH277950   4.726   5.833  14.040 -0.5013  0.5407 -0.1133
18820TIP3    H177951   4.707   5.817  14.132 -0.9590  1.5828 -0.0252
18820TIP3    H277952   4.646   5.872  14.005 -0.2217  0.4355 -0.8841
18821TIP3   OH277953   3.092   1.238   5.290  0.1599 -0.4128  0.5079
18821TIP3    H177954   3.014   1.233   5.236  0.5066  0.0094 -0.0299
18821TIP3    H277955   3.076   1.174   5.360 -0.4205 -0.7332  0.0909
18822TIP3   OH277956   2.816   4.002  13.065 -1.1991  0.2244 -0.0692
18822TIP3    H177957   2.901   4.035  13.095 -0.9505 -1.5216  1.1983
18822TIP3    H277958   2.832   3.971  12.976  0.1494 -2.4435  1.0421
18823TIP3   OH277959   1.420   3.981  13.687  0.0482 -0.0216  0.8601
18823TIP3    H177960   1.367   3.920  13.739  0.3955  0.0296  1.2761
18823TIP3    H277961   1.509   3.968  13.719  0.3907 -0.5920 -0.3063
18824TIP3   OH277962   1.583   4.316  15.809  0.4358  0.2710 -0.3247
18824TIP3    H177963   1.604   4.224  15.825  1.2243  0.4037 -0.5853
18824TIP3    H277964   1.665   4.355  15.777 -0.4107  0.6034 -2.1803
18825TIP3   OH277965   2.589   0.275  13.709 -0.0607  0.5599  0.1389
18825TIP3    H177966   2.505   0.231  13.694 -0.0727  0.8592 -0.7107
18825TIP3    H277967   2.616   0.246  13.796  1.1970 -3.2629 -1.3868
18826TIP3   OH277968   3.277   1.819   3.932  0.1366  0.1737 -0.0975
18826TIP3    H177969   3.305   1.786   4.017  2.3985  2.7443  0.2170
18826TIP3    H277970   3.233   1.902   3.952  0.1869  0.5202 -1.3753
18827TIP3   OH277971   4.821   3.746   3.920  0.3271 -0.6220 -0.2090
18827TIP3    H177972   4.883   3.787   3.981  0.5869 -0.9753 -0.2301
18827TIP3    H277973   4.797   3.816   3.859 -1.2052  0.1644  1.2802
18828TIP3   OH277974   1.744   1.879   2.627 -0.5687 -0.2786 -0.0045
18828TIP3    H177975   1.775   1.854   2.540  0.5135  0.1937  0.2307
18828TIP3    H277976   1.681   1.811   2.651  0.4742 -1.3974 -0.4121
18829TIP3   OH277977   1.458   5.193   3.949 -0.0075 -0.0352 -0.0698
18829TIP3    H177978   1.507   5.276   3.955 -2.3318  1.3873 -0.0677
18829TIP3    H277979   1.442   5.168   4.040 -1.0221  0.5777 -0.0743
18830TIP3   OH277980   6.460   2.326   3.086 -0.1076  0.1338  0.0863
18830TIP3    H177981   6.380   2.307   3.136 -0.3401  0.4235 -0.1768
18830TIP3    H277982   6.458   2.265   3.013 -1.0875  1.4465 -1.0160
18831TIP3   OH277983   0.146   5.465  16.740  0.7386  0.4383 -0.3060
18831TIP3    H177984   0.198   5.492  16.664  0.6406 -0.0677 -0.5471
18831TIP3    H277985   0.087   5.398  16.707  0.3024  0.6220  0.0945
18832TIP3   OH277986   0.087   6.531   0.408  0.3879  0.2580 -0.1550
18832TIP3    H177987   0.045   6.553   0.491  0.6280  0.5459 -0.1109
18832TIP3    H277988   0.042   6.452   0.379  1.0685 -0.4789  0.7903
18833TIP3   OH277989   1.188   1.570   3.728  0.3932 -0.2030 -0.2842
18833TIP3    H177990   1.137   1.629   3.783 -0.7455 -0.6756 -0.8100
18833TIP3    H277991   1.261   1.623   3.696  0.3127  0.4402  0.5890
18834TIP3   OH277992   3.811   0.312  17.258  0.6481  0.7018 -0.1573
18834TIP3    H177993   3.775   0.241  17.206  0.7589  0.9017 -0.5070
18834TIP3    H277994   3.906   0.298  17.256  0.6575  0.7521 -0.0738
18835TIP3   OH277995   1.093   1.806   0.267  0.2309 -0.6390  0.0847
18835TIP3    H177996   1.094   1.902   0.262  0.4762 -0.7038 -1.2388
18835TIP3    H277997   1.004   1.781   0.241 -0.3491 -0.7030  2.0514
18836TIP3   OH277998   6.081   0.817   2.331 -0.9155  0.6172  0.1642
18836TIP3    H177999   6.017   0.756   2.365 -0.5196 -0.6028 -1.2119
18836TIP3    H278000   6.052   0.903   2.361 -1.5899 -0.2244  1.9358
18837TIP3   OH278001   1.915   4.345   0.948  0.1331 -0.4563  0.2772
18837TIP3    H178002   1.922   4.252   0.925 -0.7882 -0.7057  0.9806
18837TIP3    H278003   1.821   4.362   0.948  0.3562  1.1686 -2.5783
18838TIP3   OH278004   5.860   0.575  13.994  0.2441  0.5453  0.5475
18838TIP3    H178005   5.846   0.554  13.902  0.5699  1.0953  0.3707
18838TIP3    H278006   5.828   0.498  14.042 -1.8144  1.0840  0.0882
18839TIP3   OH278007   1.911   4.647   1.753  0.0106 -0.1070  0.2847
18839TIP3    H178008   1.839   4.625   1.694 -0.0093  0.4584  0.0978
18839TIP3    H278009   1.954   4.722   1.711 -0.3762  0.6848  1.3086
18840TIP3   OH278010   6.660   4.962   0.933 -0.0528  0.7657  0.3675
18840TIP3    H178011   6.732   4.924   0.985  0.0668 -0.5937 -0.7819
18840TIP3    H278012   6.698   4.977   0.847 -0.7603  1.3646  0.1577
18841TIP3   OH278013   1.574   1.351   3.279  0.0814  0.3387 -0.1795
18841TIP3    H178014   1.639   1.282   3.264 -0.2866  0.0784 -0.5780
18841TIP3    H278015   1.579   1.406   3.201 -0.5594  0.0096 -0.4526
18842TIP3   OH278016   5.907   2.620  15.127 -0.4137  0.5344 -0.0446
18842TIP3    H178017   5.898   2.661  15.041 -1.5625  0.0290 -0.1770
18842TIP3    H278018   6.000   2.626  15.147  0.3980 -2.0189 -2.6713
18843TIP3   OH278019   0.602   4.082   3.984 -0.1739  0.4143  0.1717
18843TIP3    H178020   0.576   4.033   3.906 -0.8492  1.3333 -0.1899
18843TIP3    H278021   0.575   4.028   4.057  0.9973 -0.7329 -0.2266
18844TIP3   OH278022   5.230   5.118   4.678 -0.0643  0.0273  0.3133
18844TIP3    H178023   5.164   5.080   4.736 -0.8217  1.0792  0.1595
18844TIP3    H278024   5.311   5.070   4.698 -0.6237 -0.5167  1.2806
18845TIP3   OH278025   1.398   0.557  12.767  0.0046 -0.5257  0.1829
18845TIP3    H178026   1.486   0.557  12.727  0.8610 -1.8109  1.9791
18845TIP3    H278027   1.398   0.479  12.823 -2.9174 -1.5297 -1.1355
18846TIP3   OH278028   0.955   3.294  14.528  0.3732 -0.3361  0.1778
18846TIP3    H178029   0.915   3.273  14.443  1.7935 -0.1941 -0.5374
18846TIP3    H278030   0.993   3.211  14.557 -0.9331 -0.6141  1.1454
18847TIP3   OH278031   3.327   5.530  11.712 -0.1658 -0.5325  0.1379
18847TIP3    H178032   3.249   5.582  11.728 -1.0075 -1.6048 -0.4543
18847TIP3    H278033   3.391   5.564  11.774 -0.9841  0.5818  0.3898
18848TIP3   OH278034   0.014   4.016   6.578 -0.6461 -0.0468 -0.7675
18848TIP3    H178035  -0.074   4.028   6.613 -0.9837 -1.8615 -0.9354
18848TIP3    H278036   0.058   4.099   6.595 -1.8969  0.3330  0.7261
18849TIP3   OH278037   2.107   3.378  12.769 -0.2853  0.2335  0.5454
18849TIP3    H178038   2.195   3.410  12.788  0.0510 -0.9178  0.9453
18849TIP3    H278039   2.067   3.365  12.855 -0.5712 -0.0027  0.3781
18850TIP3   OH278040   6.556   5.110  13.630  0.3237 -0.6750  1.0455
18850TIP3    H178041   6.585   5.154  13.550  0.7322  0.7472  1.9470
18850TIP3    H278042   6.629   5.053  13.654  0.0986 -1.2914  0.2750
18851TIP3   OH278043   5.277   5.828   0.598 -0.0784 -0.4127  0.0762
18851TIP3    H178044   5.184   5.833   0.619  0.3492 -0.2336  2.0324
18851TIP3    H278045   5.298   5.915   0.563 -0.4576 -0.1461  0.5045
18852TIP3   OH278046   0.341   6.535  16.452 -0.0034 -0.1018  0.1923
18852TIP3    H178047   0.250   6.522  16.427 -0.4316 -0.0502  1.6702
18852TIP3    H278048   0.338   6.609  16.513  1.0817  0.1797 -0.0880
18853TIP3   OH278049   2.988   2.515   1.146 -0.1169 -0.3070  0.6745
18853TIP3    H178050   3.032   2.435   1.175 -1.1221 -0.8003  0.8505
18853TIP3    H278051   2.945   2.549   1.224 -0.5339 -0.1352  0.3697
18854TIP3   OH278052   1.400   3.578  11.903 -0.1247  0.2603  0.9216
18854TIP3    H178053   1.346   3.655  11.888 -1.4868 -0.9089 -0.3993
18854TIP3    H278054   1.350   3.524  11.964 -0.0267 -0.3950  0.4405
18855TIP3   OH278055   6.588   2.115   5.238  0.0309  0.7214 -0.0022
18855TIP3    H178056   6.621   2.066   5.314 -0.4811 -0.0533 -0.2759
18855TIP3    H278057   6.612   2.206   5.257  1.0759  0.3663  0.4647
18856TIP3   OH278058   4.354   4.217  16.130  0.0520  0.8119  0.3985
18856TIP3    H178059   4.299   4.280  16.177 -1.1570  0.6614 -0.7683
18856TIP3    H278060   4.304   4.196  16.051  0.5366 -1.4147  0.6468
18857TIP3   OH278061   4.652   1.045  11.889  0.4810  0.4389  0.5261
18857TIP3    H178062   4.666   0.959  11.929  1.5921  0.6394  0.5821
18857TIP3    H278063   4.739   1.085  11.887 -0.0536  1.6186  0.6240
18858TIP3   OH278064   6.519   5.691   4.160  0.3643  0.0190  0.2450
18858TIP3    H178065   6.461   5.730   4.226 -2.3231 -0.7466 -1.5830
18858TIP3    H278066   6.524   5.599   4.183  0.2671 -0.0492 -0.0004
18859TIP3   OH278067   4.961   0.379  11.628 -0.3516 -0.3309  0.0943
18859TIP3    H178068   4.935   0.301  11.678 -1.0218 -0.0910  0.1341
18859TIP3    H278069   4.904   0.448  11.663  0.1844  0.1548  0.0020
18860TIP3   OH278070   6.546   6.088   2.020  0.1211 -0.5774 -0.2065
18860TIP3    H178071   6.632   6.118   2.051  0.0957 -1.0575  0.3399
18860TIP3    H278072   6.492   6.085   2.099 -0.6450  0.5054 -0.6632
18861TIP3   OH278073   0.609   4.472  12.446 -0.0197  0.4796 -0.0383
18861TIP3    H178074   0.577   4.388  12.411 -3.9617  2.2124 -0.8047
18861TIP3    H278075   0.658   4.511  12.373 -0.7628  0.1866 -0.7031
18862TIP3   OH278076   5.376   3.393   3.330  0.3524  0.6155 -0.3489
18862TIP3    H178077   5.346   3.473   3.373 -2.3726 -0.8980  0.7493
18862TIP3    H278078   5.412   3.340   3.401 -0.7340 -0.3688 -0.5093
18863TIP3   OH278079   6.144   5.956  16.663 -0.2331 -0.7785 -0.7178
18863TIP3    H178080   6.107   6.042  16.683 -0.2591 -1.1376  0.8079
18863TIP3    H278081   6.100   5.896  16.724  2.6919 -1.2411  1.0025
18864TIP3   OH278082   3.407   4.306  12.946  0.6062  0.1550  0.6132
18864TIP3    H178083   3.340   4.345  12.890  0.5017 -1.3634 -0.3576
18864TIP3    H278084   3.464   4.258  12.886  0.6054 -1.3371  1.7572
18865TIP3   OH278085   2.970   2.752   4.460 -0.2242  0.0790  0.2503
18865TIP3    H178086   2.945   2.812   4.390  1.4995 -0.0254 -0.4895
18865TIP3    H278087   2.946   2.797   4.540 -0.9706  0.7969 -0.3689
18866TIP3   OH278088   3.308   6.676   4.890  0.0279 -0.1235 -0.0892
18866TIP3    H178089   3.217   6.702   4.906 -0.1922  0.5505 -2.3845
18866TIP3    H278090   3.328   6.707   4.802  2.6111  0.0439  0.4992
18867TIP3   OH278091   5.435   3.377   3.062  0.4320  0.5157 -0.3427
18867TIP3    H178092   5.348   3.412   3.043  1.2673  1.7344 -2.1131
18867TIP3    H278093   5.442   3.380   3.157 -1.8065 -0.4862 -0.1187
18868TIP3   OH278094   5.873   0.944  13.305 -0.5066 -0.0423  0.0269
18868TIP3    H178095   5.850   0.932  13.397  1.0542  0.0954  0.4443
18868TIP3    H278096   5.950   1.001  13.306 -1.4121  1.2401 -1.4465
18869TIP3   OH278097   3.930   6.324  16.511  0.1755 -0.9782 -0.5675
18869TIP3    H178098   3.902   6.388  16.577  2.1842 -0.5241 -0.1133
18869TIP3    H278099   3.852   6.310  16.457 -1.3507 -0.9593  1.5710
18870TIP3   OH278100   2.748   2.349  15.899  0.2942 -0.2049 -0.3707
18870TIP3    H178101   2.822   2.305  15.858  1.1411  0.3577  0.5105
18870TIP3    H278102   2.700   2.389  15.827  2.0106  1.1662 -0.8008
18871TIP3   OH278103   0.889   2.157   5.115 -0.4276 -0.1279 -0.5240
18871TIP3    H178104   0.885   2.084   5.176  1.2292  0.3043  0.1172
18871TIP3    H278105   0.978   2.191   5.123 -0.0922 -0.1976 -3.3502
18872TIP3   OH278106   1.232   2.969   5.858 -0.8127  0.2470  0.2028
18872TIP3    H178107   1.269   2.998   5.941 -1.3304 -2.0835  1.2761
18872TIP3    H278108   1.220   3.050   5.808  0.7308  1.5474  1.8680
18873TIP3   OH278109   2.162   4.046  15.840  0.8080 -0.2724 -0.3392
18873TIP3    H178110   2.154   4.124  15.786  1.1517  1.8073  2.5345
18873TIP3    H278111   2.246   4.057  15.886  0.0784 -1.5024  1.3507
18874TIP3   OH278112   2.257   1.398  12.909  0.3891  0.5510 -0.2164
18874TIP3    H178113   2.189   1.465  12.906 -0.2227 -0.1094 -1.8889
18874TIP3    H278114   2.225   1.333  12.971  1.2324  2.0347  1.8255
18875TIP3   OH278115   6.478   5.538   1.531  0.4832 -0.4151 -0.1585
18875TIP3    H178116   6.512   5.562   1.444 -0.1840 -2.8019 -1.1055
18875TIP3    H278117   6.528   5.461   1.556 -1.8541 -1.9195 -0.0468
18876TIP3   OH278118   2.147   4.689  15.782  0.3342  0.1335 -0.1903
18876TIP3    H178119   2.160   4.595  15.767 -0.6729 -0.1435  0.6288
18876TIP3    H278120   2.188   4.705  15.867  1.0690  0.5643 -0.6253
18877TIP3   OH278121   5.442   3.856  11.961 -0.2422  0.0748 -0.0112
18877TIP3    H178122   5.436   3.820  11.872 -0.3432  1.9966 -0.8009
18877TIP3    H278123   5.521   3.816  11.998 -0.2644 -0.8204 -0.9147
18878TIP3   OH278124   2.227   0.607   5.326 -0.3787 -0.1814  0.1797
18878TIP3    H178125   2.224   0.649   5.411 -1.5135  1.7766 -0.8160
18878TIP3    H278126   2.250   0.516   5.345  1.0939  0.6325  2.4209
18879TIP3   OH278127   3.424   1.079  15.308  0.1645  0.3675 -0.3041
18879TIP3    H178128   3.341   1.126  15.298 -0.0062 -0.1939 -1.6095
18879TIP3    H278129   3.486   1.127  15.253  0.7430  0.8517  0.7560
18880TIP3   OH278130   1.350   1.914   5.275 -0.9351  0.1343  0.0936
18880TIP3    H178131   1.435   1.872   5.283  0.3480  2.8169  0.8597
18880TIP3    H278132   1.294   1.866   5.336  0.9084  0.5709  2.1823
18881TIP3   OH278133   1.438   3.996   1.002 -0.1149 -0.8177 -0.0759
18881TIP3    H178134   1.497   3.928   1.034  0.0039 -0.4992  0.3763
18881TIP3    H278135   1.354   3.977   1.044 -1.4110 -3.5668 -3.6246
18882TIP3   OH278136   1.583   4.473   5.454 -0.1679 -0.3042  0.0842
18882TIP3    H178137   1.562   4.520   5.373 -0.0898  0.0472  0.2680
18882TIP3    H278138   1.537   4.521   5.522  0.2236 -0.2732  0.3246
18883TIP3   OH278139   0.146   5.063   1.067  0.6651 -0.4038  0.2585
18883TIP3    H178140   0.189   5.048   0.983 -1.7501 -2.0051 -0.7646
18883TIP3    H278141   0.217   5.061   1.132  2.2595 -1.5924 -1.4841
18884TIP3   OH278142   1.440   3.285  17.190  0.1923 -0.0940 -0.1601
18884TIP3    H178143   1.358   3.297  17.238  0.6493  0.2078  0.5665
18884TIP3    H278144   1.414   3.257  17.103 -0.5910 -2.4496  0.7988
18885TIP3   OH278145   0.229   1.093   0.596 -0.4273 -0.6058 -0.0436
18885TIP3    H178146   0.145   1.053   0.618 -1.1844  2.3579  2.7528
18885TIP3    H278147   0.211   1.146   0.518 -0.3994 -2.2877 -1.2269
18886TIP3   OH278148   6.710   0.647  12.999 -0.6191 -0.5108 -0.4370
18886TIP3    H178149   6.791   0.614  12.959 -1.1611 -1.5251 -0.7130
18886TIP3    H278150   6.641   0.589  12.966 -1.5730  0.8294 -0.8074
18887TIP3   OH278151   4.851   0.255  14.149  0.4403  0.1538  0.0968
18887TIP3    H178152   4.881   0.264  14.239  0.6036  1.2247 -0.0626
18887TIP3    H278153   4.765   0.297  14.147  0.9764  1.2391 -0.5269
18888TIP3   OH278154   0.780   0.636  13.355  0.3651 -0.3364  0.1984
18888TIP3    H178155   0.752   0.549  13.327 -0.9440  0.5722 -1.4060
18888TIP3    H278156   0.873   0.639  13.336  0.1803 -0.9903 -0.8305
18889TIP3   OH278157   3.662   5.096   1.223  0.1465  0.2838  0.0875
18889TIP3    H178158   3.716   5.127   1.296 -0.2936  0.6397  0.2613
18889TIP3    H278159   3.676   5.001   1.221 -0.2901  0.2004  0.9933
18890TIP3   OH278160   4.602   5.801  16.482 -0.0618 -0.0029  0.5950
18890TIP3    H178161   4.579   5.781  16.392  1.0068  1.4577 -0.0269
18890TIP3    H278162   4.624   5.716  16.521 -2.4733 -0.8938  0.0762
18891TIP3   OH278163   2.948   3.244   3.927  0.3375  0.3933  0.5610
18891TIP3    H178164   2.862   3.264   3.966  0.3300  2.3405 -0.3951
18891TIP3    H278165   2.930   3.173   3.865 -0.7418  1.3477 -0.2349
18892TIP3   OH278166   4.532   4.872  11.460  0.2894 -0.0514  0.8335
18892TIP3    H178167   4.559   4.863  11.368  0.6200  1.1924  0.8067
18892TIP3    H278168   4.440   4.846  11.460 -0.2206  1.6845 -0.1875
18893TIP3   OH278169   2.546   5.684  17.259  0.7334 -0.1156  0.6536
18893TIP3    H178170   2.570   5.605  17.211  0.7077 -2.1965  3.9022
18893TIP3    H278171   2.477   5.657  17.319 -0.5563  2.8089  0.5979
18894TIP3   OH278172   4.266   1.643   1.061  0.3337 -0.3317 -0.1406
18894TIP3    H178173   4.239   1.728   1.095 -1.2924 -1.5487  1.7080
18894TIP3    H278174   4.354   1.630   1.098  1.1113  1.0455 -1.4322
18895TIP3   OH278175   2.090   0.294   1.541 -0.0967 -0.2425  0.1728
18895TIP3    H178176   2.163   0.342   1.580  0.2806  0.8855 -1.8351
18895TIP3    H278177   2.029   0.279   1.613  0.6696  1.5498  1.2174
18896TIP3   OH278178   0.470   1.599  13.083 -0.1295  0.0491  0.2130
18896TIP3    H178179   0.467   1.509  13.116  0.7599  0.5519  1.6662
18896TIP3    H278180   0.547   1.601  13.026 -0.4204 -0.2297 -0.1947
18897TIP3   OH278181   1.545   1.279  12.511  0.4581 -0.1179  0.0411
18897TIP3    H178182   1.463   1.299  12.467  1.1355 -0.8066 -1.5415
18897TIP3    H278183   1.524   1.208  12.571 -0.2767  0.2876  0.2749
18898TIP3   OH278184   1.667   6.029  13.975  0.4118 -0.2645 -0.5678
18898TIP3    H178185   1.730   6.002  14.042  0.8273  0.9846 -0.4429
18898TIP3    H278186   1.700   5.990  13.894  0.6736 -0.6262 -0.2920
18899TIP3   OH278187   1.709   3.627  12.835 -0.2860  0.5053 -0.0004
18899TIP3    H178188   1.738   3.688  12.904  0.5570  0.1568 -0.0413
18899TIP3    H278189   1.678   3.684  12.765  0.8778  0.9017 -0.2038
18900TIP3   OH278190   3.932   4.164   2.320  0.0498 -0.1893  0.0206
18900TIP3    H178191   3.899   4.185   2.232  0.5510  1.0648  0.1257
18900TIP3    H278192   3.985   4.086   2.307  0.4058  0.1904 -0.8643
18901TIP3   OH278193   4.842   0.779   0.013 -0.4374 -0.3067  0.3079
18901TIP3    H178194   4.878   0.866  -0.004 -0.9132 -0.3161 -0.8369
18901TIP3    H278195   4.891   0.747   0.088  0.3258  0.6146  0.2191
18902TIP3   OH278196   5.684   2.082   2.936 -0.1718  0.0650  0.6530
18902TIP3    H178197   5.591   2.058   2.943 -0.2167  0.4155  1.2584
18902TIP3    H278198   5.686   2.152   2.871 -0.3654  0.2367  0.8310
18903TIP3   OH278199   5.638   0.788  15.515 -0.1904  0.1174 -0.3400
18903TIP3    H178200   5.713   0.733  15.493 -0.6316 -0.8430  0.5057
18903TIP3    H278201   5.639   0.857  15.449 -1.4175 -2.5667 -3.3060
18904TIP3   OH278202   5.780   4.257   1.514 -0.2233  0.6654 -0.3439
18904TIP3    H178203   5.856   4.246   1.456 -1.3157  1.8104 -2.0311
18904TIP3    H278204   5.708   4.215   1.468 -1.0578  1.3815  0.2901
18905TIP3   OH278205   2.439   1.568   5.845 -0.0897 -0.0870  0.1638
18905TIP3    H178206   2.396   1.643   5.885 -1.4121 -0.5150 -0.4389
18905TIP3    H278207   2.497   1.534   5.913 -1.3417 -0.0268  1.2817
18906TIP3   OH278208   1.309   4.318   1.827 -0.4526 -0.4407  0.1275
18906TIP3    H178209   1.284   4.345   1.739 -1.2610 -1.2829  0.0877
18906TIP3    H278210   1.273   4.230   1.836  0.9206 -0.9660  0.7524
18907TIP3   OH278211   3.353   5.027   3.639  0.1312 -0.1327 -0.1995
18907TIP3    H178212   3.435   4.981   3.626  0.7529  0.6985  0.7083
18907TIP3    H278213   3.350   5.092   3.568  0.0034 -0.4942 -0.5310
18908TIP3   OH278214   1.097   5.066  12.966 -0.0979  0.1268  0.1448
18908TIP3    H178215   1.166   5.120  13.006  0.2475 -0.0583 -0.2009
18908TIP3    H278216   1.026   5.128  12.947 -1.2846 -0.1466  3.2888
18909TIP3   OH278217   4.326   4.111   1.071 -0.5338 -0.6189 -0.2940
18909TIP3    H178218   4.307   4.026   1.030  0.5838 -0.8854 -0.2729
18909TIP3    H278219   4.408   4.096   1.119  0.1473  0.7233 -1.0340
18910TIP3   OH278220   4.389   1.254   1.762  0.0844  0.0016  0.1864
18910TIP3    H178221   4.483   1.242   1.778 -0.0107 -0.0874  0.7004
18910TIP3    H278222   4.365   1.185   1.701  0.0637 -0.8571  1.1487
18911TIP3   OH278223   6.306   3.816  12.617 -0.3152 -0.0144  0.3339
18911TIP3    H178224   6.368   3.871  12.663 -0.0848  0.2868 -0.3315
18911TIP3    H278225   6.323   3.727  12.650 -1.2860  0.4155  2.0505
18912TIP3   OH278226   5.800   3.592  10.857 -0.2252 -0.3129 -0.6257
18912TIP3    H178227   5.852   3.658  10.902  0.8941 -0.7235 -1.2848
18912TIP3    H278228   5.864   3.538  10.811 -1.2529 -0.6836 -1.6606
18913TIP3   OH278229   6.701   2.004  15.943 -0.2078 -0.1839 -0.0355
18913TIP3    H178230   6.739   1.939  15.883  1.6566 -0.3069  1.2551
18913TIP3    H278231   6.674   1.953  16.020 -0.5311  0.3004  0.1740
18914TIP3   OH278232   2.949   5.721   0.830 -0.2155  0.0684 -0.7537
18914TIP3    H178233   2.981   5.781   0.762 -1.0540  2.4347  0.9016
18914TIP3    H278234   2.938   5.776   0.907  0.1167 -2.4710  1.1462
18915TIP3   OH278235   3.266   2.200   2.210  0.1694  0.0992  0.0173
18915TIP3    H178236   3.319   2.162   2.279  0.6700 -1.9203 -1.4205
18915TIP3    H278237   3.194   2.243   2.256  1.1734 -0.1214  1.8315
18916TIP3   OH278238   3.033   3.623   3.045 -0.8552 -0.3340  0.0714
18916TIP3    H178239   2.949   3.612   3.088 -0.8355 -0.5594  0.0501
18916TIP3    H278240   3.091   3.558   3.085 -0.9899 -0.9251 -0.6855
18917TIP3   OH278241   0.493   3.637  10.919 -0.7184  0.0106 -0.1458
18917TIP3    H178242   0.571   3.581  10.907 -1.1197 -0.5242 -0.2891
18917TIP3    H278243   0.422   3.575  10.935 -1.2432  0.4657 -0.6951
18918TIP3   OH278244   0.085   3.663  16.925 -0.3209 -0.0335 -0.3367
18918TIP3    H178245   0.039   3.594  16.877 -1.2956  1.2530 -1.3161
18918TIP3    H278246   0.043   3.744  16.895  0.6639  0.9646  0.9330
18919TIP3   OH278247   5.500   6.245  13.926 -0.9007  0.0759  0.1463
18919TIP3    H178248   5.426   6.300  13.902 -1.2461 -0.1051  0.7832
18919TIP3    H278249   5.562   6.304  13.969 -1.1382  0.0270  0.5563
18920TIP3   OH278250   3.107   2.662   2.202  0.1406 -0.0888  0.7214
18920TIP3    H178251   3.111   2.718   2.125 -1.5053  1.4506  1.7203
18920TIP3    H278252   3.156   2.710   2.269 -0.5835 -0.2095  1.3470
18921TIP3   OH278253   1.657   4.721  15.246 -0.5125  0.2691  0.0670
18921TIP3    H178254   1.732   4.663  15.264 -1.1308 -0.6484 -0.2853
18921TIP3    H278255   1.611   4.727  15.329 -0.5384  0.1111  0.0657
18922TIP3   OH278256   2.821   2.455   5.748  0.3405  0.1446  0.4833
18922TIP3    H178257   2.765   2.517   5.703 -0.7388 -1.4373 -0.4083
18922TIP3    H278258   2.910   2.489   5.737 -0.0571  0.5466 -1.5862
18923TIP3   OH278259   1.486   3.589   5.320  0.1232 -0.2475 -0.3462
18923TIP3    H178260   1.524   3.508   5.354  0.8822 -0.3979 -1.5258
18923TIP3    H278261   1.539   3.611   5.243 -0.7262  0.8054 -0.6565
18924TIP3   OH278262   4.998   3.394  12.828 -0.1258 -0.1964  0.1917
18924TIP3    H178263   5.043   3.332  12.771 -0.4840  0.2003 -0.5470
18924TIP3    H278264   4.911   3.357  12.840  0.3852 -0.9596  1.6119
18925TIP3   OH278265   0.500   5.942   0.222 -0.2846 -0.7057  0.4100
18925TIP3    H178266   0.511   5.973   0.132 -1.7980  2.2466  1.1882
18925TIP3    H278267   0.461   5.855   0.212 -0.8464 -0.2441 -1.7852
18926TIP3   OH278268   2.510   1.047   0.453 -0.2344 -0.2858 -0.1461
18926TIP3    H178269   2.568   1.023   0.381  0.8239  0.7296  0.3502
18926TIP3    H278270   2.533   0.987   0.524 -1.1587 -1.1732 -0.5900
18927TIP3   OH278271   4.043   3.081  12.094 -0.3851  0.0597 -0.0877
18927TIP3    H178272   3.979   3.018  12.060 -0.6502  0.8801 -1.1239
18927TIP3    H278273   4.099   3.029  12.152 -0.9576 -1.0125 -0.4862
18928TIP3   OH278274   3.867   3.874   5.524 -0.1131  0.3584  0.5336
18928TIP3    H178275   3.864   3.865   5.429  0.6987  2.1314  0.3119
18928TIP3    H278276   3.909   3.794   5.555  0.1272  0.0200 -0.6458
18929TIP3   OH278277   0.152   5.914   3.788  0.0646  0.2574 -0.1588
18929TIP3    H178278   0.197   5.884   3.709 -0.4043  0.1615 -0.3872
18929TIP3    H278279   0.129   6.005   3.769 -0.2774  0.1554 -0.2309
18930TIP3   OH278280   1.443   3.410   2.806  0.5063  0.8025  0.2203
18930TIP3    H178281   1.474   3.324   2.777  2.8863  1.4953  0.5823
18930TIP3    H278282   1.408   3.451   2.727  1.5086  0.3830 -0.4520
18931TIP3   OH278283   3.572   2.498  11.934  0.2888 -0.4751  0.5714
18931TIP3    H178284   3.525   2.447  11.999 -0.3058 -0.1493  0.4078
18931TIP3    H278285   3.659   2.512  11.971  0.5386 -1.8287  0.4899
18932TIP3   OH278286   3.399   4.601   5.346 -0.4342 -0.4084 -0.1952
18932TIP3    H178287   3.448   4.592   5.428 -0.5997  1.1696  0.1024
18932TIP3    H278288   3.307   4.600   5.374 -0.5393 -1.9072 -0.5882
18933TIP3   OH278289   3.414   6.362  15.725 -0.1874  0.2058 -0.2775
18933TIP3    H178290   3.342   6.307  15.754 -0.5583  0.9908  0.3000
18933TIP3    H278291   3.444   6.406  15.804 -0.7806  1.8659 -0.9615
18934TIP3   OH278292   5.171   3.057   5.824 -0.0678  0.3087 -0.5099
18934TIP3    H178293   5.170   3.028   5.915  1.5364 -1.3960 -0.9877
18934TIP3    H278294   5.096   3.013   5.784 -0.1426  0.2145 -0.2678
18935TIP3   OH278295   6.072   4.408   4.583 -0.1384 -0.1664 -0.3713
18935TIP3    H178296   6.145   4.389   4.641 -0.4894 -0.3985 -0.0016
18935TIP3    H278297   6.113   4.442   4.503  0.3796 -0.4575 -0.2337
18936TIP3   OH278298   5.948   2.581  13.489  0.1605  0.1123  0.1212
18936TIP3    H178299   5.940   2.626  13.404 -1.5372 -1.9066 -0.8265
18936TIP3    H278300   6.033   2.609  13.522  0.9141  0.8710 -2.3002
18937TIP3   OH278301   0.337   6.810   4.990  0.0876  0.0122 -0.0211
18937TIP3    H178302   0.311   6.798   5.081  0.1301  0.2810  0.0267
18937TIP3    H278303   0.255   6.824   4.942  0.1610  1.2726  0.1911
18938TIP3   OH278304   4.592   3.017  11.814 -0.0423 -0.0735  0.1090
18938TIP3    H178305   4.621   3.081  11.750  0.4360  0.2180  0.6041
18938TIP3    H278306   4.551   2.947  11.763 -0.0485  0.3596 -0.4719
18939TIP3   OH278307   1.040   4.476   0.699  0.0864 -0.2356  0.2403
18939TIP3    H178308   0.990   4.407   0.743 -1.4183  1.0914  0.6346
18939TIP3    H278309   1.080   4.432   0.624 -1.8634 -1.2826 -0.2259
18940TIP3   OH278310   0.681   0.416   4.277 -0.3385  0.5224 -0.2123
18940TIP3    H178311   0.685   0.327   4.312  1.9006  0.8118  0.3927
18940TIP3    H278312   0.724   0.470   4.343 -3.4652  2.4167  0.3736
18941TIP3   OH278313   6.678   2.448   4.255 -0.7617 -0.2078 -0.6085
18941TIP3    H178314   6.620   2.428   4.182  1.3309 -2.2162 -1.7904
18941TIP3    H278315   6.765   2.423   4.224  0.6349  1.9363  1.4125
18942TIP3   OH278316   4.953   2.182  12.228  0.1982  0.3251  0.3182
18942TIP3    H178317   4.965   2.267  12.187 -2.9577 -0.1376 -1.7427
18942TIP3    H278318   4.916   2.127  12.159 -1.8764 -1.5148  2.7702
18943TIP3   OH278319   3.710   3.851   5.015  0.3344  0.7488 -0.2130
18943TIP3    H178320   3.656   3.821   4.943  1.3049 -0.5325 -0.4127
18943TIP3    H278321   3.796   3.812   5.000  0.2076 -0.6608  2.3397
18944TIP3   OH278322   0.501   4.261  15.104 -0.6672 -0.0908 -0.0133
18944TIP3    H178323   0.466   4.221  15.185 -0.7103 -1.2365 -0.5844
18944TIP3    H278324   0.593   4.237  15.104 -0.1778  1.7477  0.7803
18945TIP3   OH278325   5.125   1.561  13.644  0.1409  0.3628  0.2104
18945TIP3    H178326   5.122   1.475  13.604 -0.9822  0.0461  0.9582
18945TIP3    H278327   5.118   1.545  13.738 -2.2016  1.3778  0.2266
18946TIP3   OH278328   2.642   5.312  12.678  0.2454  0.6018  0.1298
18946TIP3    H178329   2.561   5.294  12.727 -0.0702  0.2399 -0.5272
18946TIP3    H278330   2.710   5.317  12.746 -0.2437  0.4126  0.6383
18947TIP3   OH278331   0.570   4.603  13.211 -0.1240  0.4094 -0.4316
18947TIP3    H178332   0.476   4.585  13.210 -0.2793  1.1975 -0.1975
18947TIP3    H278333   0.604   4.557  13.134 -0.6549 -0.0935 -0.3687
18948TIP3   OH278334   6.679   3.951  15.045  0.3802  0.0979  0.7026
18948TIP3    H178335   6.730   3.881  15.003 -0.8585 -1.3225  1.5017
18948TIP3    H278336   6.662   4.014  14.975 -0.6976 -1.6907 -0.6930
18949TIP3   OH278337   4.547   1.945  16.949  0.0510  0.1347  0.2198
18949TIP3    H178338   4.555   1.892  16.870 -1.5588 -0.3868  0.3972
18949TIP3    H278339   4.632   1.937  16.992  1.4845  1.6090 -2.1768
18950TIP3   OH278340   6.682   4.415   5.588  0.3770 -0.2482  0.7262
18950TIP3    H178341   6.626   4.368   5.649  0.0622 -1.8283 -0.7383
18950TIP3    H278342   6.651   4.506   5.591 -0.1024 -0.4607  2.3501
18951TIP3   OH278343   5.249   2.695   0.731  0.8013  0.1456  0.1167
18951TIP3    H178344   5.312   2.654   0.672  0.2134  1.6037 -1.5596
18951TIP3    H278345   5.164   2.665   0.701  0.6231 -1.4926  2.1279
18952TIP3   OH278346   4.483   3.718   1.770  0.2264 -0.3903  0.4394
18952TIP3    H178347   4.503   3.722   1.676 -1.2492  0.6190  0.1581
18952TIP3    H278348   4.420   3.646   1.777  0.0217 -0.1943  0.5981
18953TIP3   OH278349   1.595   6.782   5.796  0.4510 -0.3264 -0.0590
18953TIP3    H178350   1.655   6.841   5.842 -0.0355 -0.5990  0.9379
18953TIP3    H278351   1.594   6.814   5.706  1.6730  0.0144  0.0391
18954TIP3   OH278352   5.180   2.232  15.546  0.3410 -0.1668 -0.2236
18954TIP3    H178353   5.139   2.309  15.585  0.5081 -0.9056  1.4397
18954TIP3    H278354   5.239   2.268  15.479  0.1214  1.1251  0.2558
18955TIP3   OH278355   6.672   1.849   2.538 -0.7446 -0.6338  0.1250
18955TIP3    H178356   6.666   1.765   2.583 -2.3375 -1.4782 -1.6222
18955TIP3    H278357   6.670   1.827   2.445 -0.3579  1.2910 -0.3625
18956TIP3   OH278358   1.255   6.366  15.597 -0.3608 -0.1589  0.9717
18956TIP3    H178359   1.306   6.445  15.578 -0.4247 -0.4806 -0.5698
18956TIP3    H278360   1.168   6.385  15.563 -0.5480 -0.6563  1.1782
18957TIP3   OH278361   5.521   6.452   2.061 -0.2411 -0.0908 -0.3228
18957TIP3    H178362   5.569   6.373   2.035 -0.1523 -0.4600  0.9286
18957TIP3    H278363   5.430   6.433   2.037 -0.0639 -0.1791 -0.9195
18958TIP3   OH278364   5.971   6.061   1.348 -0.2508  0.5081 -0.5377
18958TIP3    H178365   5.912   6.017   1.410  0.3514  2.1014  1.2242
18958TIP3    H278366   5.913   6.095   1.280 -1.3814  1.8720  1.0680
18959TIP3   OH278367   4.345   0.310   4.161  0.7899  0.4189  0.2660
18959TIP3    H178368   4.310   0.233   4.206  1.1619  0.1694  0.1310
18959TIP3    H278369   4.268   0.350   4.119  0.5891  0.1502  0.3774
18960TIP3   OH278370   2.620   4.705  11.019  0.1230  0.3049 -0.2121
18960TIP3    H178371   2.615   4.733  11.110  0.5979 -0.7937  0.1547
18960TIP3    H278372   2.529   4.695  10.991 -0.0630  2.1687 -0.3451
18961TIP3   OH278373   0.247   6.040   6.406  0.1185  0.9360 -0.0993
18961TIP3    H178374   0.163   6.006   6.374  0.5335 -0.7911  0.5960
18961TIP3    H278375   0.226   6.085   6.487 -0.0498 -0.1098  0.4447
18962TIP3   OH278376   1.065   0.672   4.386 -0.5370  0.3590  0.3206
18962TIP3    H178377   1.107   0.636   4.465 -0.2683 -0.0076  0.0109
18962TIP3    H278378   0.971   0.670   4.407 -0.3135  3.0552  1.8046
18963TIP3   OH278379   3.816   2.537  12.029  0.4602 -0.2183  0.0227
18963TIP3    H178380   3.802   2.621  12.074  1.8273 -0.8225  1.6537
18963TIP3    H278381   3.896   2.551  11.978  0.6407 -0.5061  0.2309
18964TIP3   OH278382   3.031   5.530   6.621  0.3757  0.5738  0.3843
18964TIP3    H178383   3.083   5.461   6.580  2.0475  1.1866  1.3912
18964TIP3    H278384   3.096   5.590   6.659 -1.0450  0.4692  3.1786
18965TIP3   OH278385   2.525   0.330  15.907 -0.0313 -0.2425  0.3406
18965TIP3    H178386   2.542   0.247  15.863  1.2783  1.0149 -1.6394
18965TIP3    H278387   2.602   0.384  15.885 -1.3151  1.7936  0.7632
18966TIP3   OH278388   5.824   1.676   4.882  0.1401  0.9158 -0.2705
18966TIP3    H178389   5.915   1.646   4.885  0.0980  0.7221 -1.0269
18966TIP3    H278390   5.784   1.638   4.960  0.4955  0.3332 -0.3716
18967TIP3   OH278391   5.669   0.172  14.405  0.5522  0.7758 -0.2385
18967TIP3    H178392   5.708   0.091  14.438  2.2261  1.3103 -0.8489
18967TIP3    H278393   5.665   0.231  14.480 -3.1441 -0.7222  0.8563
18968TIP3   OH278394   0.452   2.413  13.433 -0.0377 -0.2675 -0.0468
18968TIP3    H178395   0.417   2.502  13.429 -0.4560 -0.3250  1.6518
18968TIP3    H278396   0.422   2.379  13.518  1.7217 -1.3350  0.1926
18969TIP3   OH278397   2.824   1.457  13.450  0.6154  0.0767 -0.4716
18969TIP3    H178398   2.813   1.364  13.434 -1.9750  0.3756 -0.7016
18969TIP3    H278399   2.881   1.488  13.380  0.9186 -1.1989 -0.7965
18970TIP3   OH278400   6.678   1.599   2.651 -0.0965  0.1986 -0.0162
18970TIP3    H178401   6.598   1.547   2.641 -0.4653  0.5924  0.9192
18970TIP3    H278402   6.726   1.555   2.721  0.5943 -0.1304 -0.6791
18971TIP3   OH278403   6.815   0.944  17.256 -0.0203  0.3901  0.1743
18971TIP3    H178404   6.792   1.011  17.321 -1.2050 -0.1279  0.3018
18971TIP3    H278405   6.744   0.948  17.192 -0.5108 -1.2466  0.5838
18972TIP3   OH278406   4.108   5.681  13.911 -0.2949 -0.1307  0.0365
18972TIP3    H178407   4.116   5.733  13.991  1.8263 -0.0483 -0.1882
18972TIP3    H278408   4.065   5.600  13.939  0.7610 -0.2564  1.3508
18973TIP3   OH278409   6.739   2.407   0.253 -0.5532  0.1865  0.0557
18973TIP3    H178410   6.806   2.455   0.302  0.5017 -2.8096  1.6402
18973TIP3    H278411   6.662   2.408   0.310 -1.0887  1.4215 -0.6617
18974TIP3   OH278412   0.259   0.752  16.826 -0.4247 -0.2283 -1.1537
18974TIP3    H178413   0.340   0.785  16.786 -0.4929 -0.4195 -1.4502
18974TIP3    H278414   0.227   0.826  16.878 -0.5875  0.1915 -1.8304
18975TIP3   OH278415   0.538   2.124  13.588  0.2499 -0.6258 -0.1304
18975TIP3    H178416   0.462   2.179  13.609 -0.5854 -1.4264 -0.9682
18975TIP3    H278417   0.499   2.042  13.556  1.4686 -1.6871  1.0683
18976TIP3   OH278418   5.051   1.148  16.380 -0.1169 -0.2285  0.5714
18976TIP3    H178419   4.991   1.089  16.427 -0.0591 -0.5348  0.2667
18976TIP3    H278420   5.005   1.169  16.299  0.0286 -0.1642  0.5043
18977TIP3   OH278421   5.094   1.725   1.500 -0.5733  0.2042  0.0646
18977TIP3    H178422   5.184   1.730   1.532 -0.6309 -3.1881  0.9564
18977TIP3    H278423   5.045   1.784   1.556  0.9776  1.6152 -0.0359
18978TIP3   OH278424   6.141   0.099   2.111 -0.7640  0.2080 -0.0199
18978TIP3    H178425   6.202   0.134   2.045 -1.5013 -0.4817 -1.0799
18978TIP3    H278426   6.191   0.099   2.192  0.4574  0.2210 -0.7590
18979TIP3   OH278427   2.199   1.385   2.966 -0.0784  0.4424 -0.3723
18979TIP3    H178428   2.194   1.289   2.974 -0.9939  0.4790 -0.3812
18979TIP3    H278429   2.245   1.399   2.883  2.5851  0.0354  0.9919
18980TIP3   OH278430   6.190   6.779  15.473 -0.7742  0.2442  0.6668
18980TIP3    H178431   6.252   6.815  15.410 -2.0704  2.4967  0.6242
18980TIP3    H278432   6.205   6.829  15.553 -0.6005 -1.1352  1.5054
18981TIP3   OH278433   6.352   3.971  16.629 -0.8329  0.5185  0.2752
18981TIP3    H178434   6.386   4.059  16.645 -0.5695  0.7720 -1.5203
18981TIP3    H278435   6.428   3.914  16.640 -0.4935  0.7625 -0.7410
18982TIP3   OH278436   3.414   3.061  14.413  0.0406 -0.7163  0.7001
18982TIP3    H178437   3.417   2.969  14.385 -0.0607 -0.3204 -0.6157
18982TIP3    H278438   3.503   3.093  14.398  0.1769 -0.6885  1.5203
18983TIP3   OH278439   5.882   2.321  15.123 -0.0041 -0.2264  0.3785
18983TIP3    H178440   5.886   2.416  15.120  2.1639 -0.3216 -0.5949
18983TIP3    H278441   5.852   2.295  15.036 -1.4706 -0.4246  0.9218
18984TIP3   OH278442   6.436   2.947   0.198  0.1231  0.6013 -0.1461
18984TIP3    H178443   6.465   3.033   0.167 -0.6745  0.4767 -1.2752
18984TIP3    H278444   6.432   2.893   0.119  1.1805 -0.6517  0.6402
18985TIP3   OH278445   5.648   4.786   0.815  0.2099  0.2924 -0.3056
18985TIP3    H178446   5.718   4.851   0.809  1.2458 -0.6903  0.8618
18985TIP3    H278447   5.687   4.714   0.865 -1.2679 -0.7614 -0.6483
18986TIP3   OH278448   3.004   0.044   5.766  0.0621 -0.6452  0.1455
18986TIP3    H178449   3.010   0.004   5.679 -0.9982 -1.3884  0.3958
18986TIP3    H278450   3.068   0.114   5.765 -1.8516  1.1552 -2.2111
18987TIP3   OH278451   4.100   3.333  11.478 -0.2604 -0.2551 -0.0201
18987TIP3    H178452   4.019   3.322  11.428  0.0315 -2.7153 -0.0027
18987TIP3    H278453   4.170   3.327  11.413  0.0709 -2.3473  0.5030
18988TIP3   OH278454   0.798   5.495  11.543 -0.4160 -0.1821 -0.4126
18988TIP3    H178455   0.834   5.562  11.485 -1.3325  0.4517 -0.2413
18988TIP3    H278456   0.763   5.429  11.484  0.4743 -0.5186 -0.5817
18989TIP3   OH278457   3.501   6.432  14.675 -0.4723 -0.2308  0.4560
18989TIP3    H178458   3.434   6.461  14.613 -0.9728 -2.0967  0.0983
18989TIP3    H278459   3.484   6.482  14.754 -2.1346 -0.4881  0.2821
18990TIP3   OH278460   6.344   4.018   1.871  0.2551 -0.2373 -0.2343
18990TIP3    H178461   6.253   3.994   1.887  0.2941 -1.0331 -1.1456
18990TIP3    H278462   6.370   4.067   1.949 -0.5601 -1.1214  0.6039
18991TIP3   OH278463   5.899   5.538   3.363  0.8593 -0.1776  0.0110
18991TIP3    H178464   5.973   5.536   3.302 -0.8611  1.1338 -2.1914
18991TIP3    H278465   5.897   5.628   3.395 -0.0668 -0.0614 -0.3442
18992TIP3   OH278466   2.646   4.639  13.327 -0.0163  0.5893  0.6131
18992TIP3    H178467   2.663   4.730  13.302  0.2500  0.2577 -0.4585
18992TIP3    H278468   2.621   4.596  13.245 -2.6720  0.2711  1.5372
18993TIP3   OH278469   2.144   6.427   1.282  0.0645 -0.3179  1.0075
18993TIP3    H178470   2.113   6.451   1.195  1.7296 -0.3502  0.3823
18993TIP3    H278471   2.191   6.505   1.313  0.0557 -0.5447  1.6061
18994TIP3   OH278472   4.204   1.643   4.583  0.2726 -0.1581 -0.3287
18994TIP3    H178473   4.266   1.620   4.514 -0.6083  0.5622 -1.3824
18994TIP3    H278474   4.167   1.727   4.554 -0.1230  0.1317  1.0086
18995TIP3   OH278475   0.797   3.369   2.950  0.3449  0.3026 -0.1979
18995TIP3    H178476   0.791   3.378   2.855  1.2200 -2.6893 -0.5753
18995TIP3    H278477   0.735   3.434   2.984 -0.5758  0.8574 -2.8162
18996TIP3   OH278478   3.888   4.384  17.245  0.0236  0.3562 -0.4349
18996TIP3    H178479   3.883   4.347  17.156 -0.2380  2.6277 -1.4118
18996TIP3    H278480   3.797   4.391  17.273 -0.0089  1.3995 -0.7710
18997TIP3   OH278481   1.356   1.172   1.619  0.3847  0.0454 -0.5691
18997TIP3    H178482   1.445   1.199   1.598  0.3851  1.0012  0.6053
18997TIP3    H278483   1.358   1.154   1.713 -0.8526  0.8265 -0.3861
18998TIP3   OH278484   0.167   3.192  12.482 -0.1499 -0.0863  0.9898
18998TIP3    H178485   0.134   3.146  12.559 -1.6333 -2.0106 -0.7400
18998TIP3    H278486   0.223   3.128  12.439  1.8477  1.4748  1.2091
18999TIP3   OH278487   4.781   4.649  11.377  0.5508 -0.1712 -0.4766
18999TIP3    H178488   4.781   4.572  11.320 -1.5038  0.2102 -1.0315
18999TIP3    H278489   4.747   4.616  11.460  0.6670 -0.0856 -0.3969
19000TIP3   OH278490   0.442   2.752   5.666 -0.4339  0.0462  0.1758
19000TIP3    H178491   0.400   2.800   5.738  2.3600  0.6279  1.5050
19000TIP3    H278492   0.422   2.803   5.588 -0.0269  1.7503  1.1572
19001TIP3   OH278493   1.718   5.453  13.014  0.4741  0.3502  0.2129
19001TIP3    H178494   1.711   5.369  13.060  0.2716 -0.0217 -0.4966
19001TIP3    H278495   1.797   5.446  12.962 -1.0780 -0.5165 -2.1001
19002TIP3   OH278496   2.378   5.322  15.440  0.6181 -0.3663 -0.0763
19002TIP3    H178497   2.393   5.329  15.534  0.0706 -0.2997  0.0115
19002TIP3    H278498   2.317   5.393  15.420  0.4648 -0.5922 -0.4163
19003TIP3   OH278499   1.179   5.829   3.576  0.0845  0.2699  0.3947
19003TIP3    H178500   1.209   5.770   3.644  0.6025 -2.3417 -1.9899
19003TIP3    H278501   1.102   5.785   3.539 -0.7398  2.0836 -0.1034
19004TIP3   OH278502   4.645   0.162   3.044  0.0269  0.4500  0.0658
19004TIP3    H178503   4.623   0.070   3.029  1.5640  0.3231 -1.4745
19004TIP3    H278504   4.653   0.200   2.957  0.0705  1.8956  0.6803
19005TIP3   OH278505   0.524   0.787   4.137 -0.2004  0.3199  0.5358
19005TIP3    H178506   0.486   0.814   4.054 -1.3570 -0.1761  0.8878
19005TIP3    H278507   0.464   0.821   4.204  1.5152  2.0169  1.2552
19006TIP3   OH278508   2.382   2.395  13.619  0.0907 -0.2305  0.5236
19006TIP3    H178509   2.456   2.373  13.675 -0.0666 -1.0590  0.4070
19006TIP3    H278510   2.421   2.440  13.544  0.1975  1.9396  1.8214
19007TIP3   OH278511   4.408   3.174   6.261  0.0587 -0.1004 -0.2458
19007TIP3    H178512   4.455   3.113   6.319 -1.5114 -0.3717  0.7484
19007TIP3    H278513   4.326   3.191   6.305  0.3639  2.5733 -0.6548
19008TIP3   OH278514   3.951   1.012   4.327  0.0142 -0.2446 -0.3538
19008TIP3    H178515   3.898   1.067   4.270 -0.6777 -1.2583 -0.7079
19008TIP3    H278516   3.924   0.922   4.307  1.0533 -0.7200  0.2738
19009TIP3   OH278517   3.295   3.766   0.476  0.0959 -0.8390 -0.3526
19009TIP3    H178518   3.382   3.804   0.485 -0.5799  0.9800 -1.1325
19009TIP3    H278519   3.288   3.704   0.549  1.3772  0.3248  0.7956
19010TIP3   OH278520   5.403   2.774   6.289 -0.2764 -0.2509 -0.4968
19010TIP3    H178521   5.434   2.693   6.248 -0.3575 -0.7018  0.3114
19010TIP3    H278522   5.350   2.744   6.363 -2.6121  0.5304 -1.8379
19011TIP3   OH278523   6.702   0.173  14.508 -0.7539  0.6296  0.0531
19011TIP3    H178524   6.665   0.116  14.575  1.4811  0.3338  1.0858
19011TIP3    H278525   6.759   0.233  14.556 -0.0476  1.2001 -1.4644
19012TIP3   OH278526   1.937   2.587  11.722  0.3061  0.2424 -0.4028
19012TIP3    H178527   1.844   2.582  11.700 -0.0853  1.6405  0.7918
19012TIP3    H278528   1.974   2.645  11.656 -0.3222  2.2289  0.9316
19013TIP3   OH278529   2.585   3.189   2.683  0.0249 -0.7020 -0.3781
19013TIP3    H178530   2.655   3.131   2.714  1.8912  0.9709 -1.2824
19013TIP3    H278531   2.559   3.238   2.760  1.4892  0.2703 -0.4778
19014TIP3   OH278532   1.236   0.050   2.392 -0.3511 -0.7083 -0.3545
19014TIP3    H178533   1.229   0.054   2.297 -0.6155  0.9949 -0.2893
19014TIP3    H278534   1.181   0.123   2.423 -0.0130 -1.0428  1.0785
19015TIP3   OH278535   6.242   0.156   5.031  0.3041  0.0768  0.2703
19015TIP3    H178536   6.289   0.100   4.970 -0.9418 -0.7848  0.0964
19015TIP3    H278537   6.152   0.157   5.000 -0.3106 -0.2010  1.9556
19016TIP3   OH278538   2.407   4.421   0.843  0.0478  0.1443  0.0403
19016TIP3    H178539   2.486   4.371   0.826  0.3615  0.4990  0.4510
19016TIP3    H278540   2.374   4.444   0.756  0.4081  0.0227 -0.1295
19017TIP3   OH278541   3.349   1.113  11.830  0.1033 -0.1310  0.3049
19017TIP3    H178542   3.432   1.089  11.789 -0.2457 -0.4295 -0.2280
19017TIP3    H278543   3.335   1.046  11.897 -0.3966 -0.8781 -0.5404
19018TIP3   OH278544   1.880   2.380  16.558  0.4693  0.4632 -0.1927
19018TIP3    H178545   1.786   2.396  16.570  0.6387  0.6796  0.8669
19018TIP3    H278546   1.905   2.437  16.485 -0.2615  0.2500 -0.6161
19019TIP3   OH278547   3.367   0.471  14.979 -0.0572 -0.8459 -0.3640
19019TIP3    H178548   3.372   0.463  14.883 -1.7820  0.1488 -0.5616
19019TIP3    H278549   3.380   0.565  14.996  1.9512 -1.2651  0.5254
19020TIP3   OH278550   1.802   2.039   4.613 -0.3801  0.1661 -0.0983
19020TIP3    H178551   1.737   2.101   4.579 -1.2693 -0.6818  0.0229
19020TIP3    H278552   1.842   2.084   4.687 -2.9906 -0.4358  1.7851
19021TIP3   OH278553   2.053   3.304   1.954 -0.0504  0.0783  0.0146
19021TIP3    H178554   2.062   3.219   1.999  3.2936 -0.5510 -1.7100
19021TIP3    H278555   2.117   3.300   1.883  1.6751  4.8877  1.1640
19022TIP3   OH278556   0.172   1.303   0.958 -0.1251  0.5262 -0.3024
19022TIP3    H178557   0.251   1.313   1.011 -1.0881 -0.3893  1.3401
19022TIP3    H278558   0.156   1.390   0.922 -0.8018  1.7855  2.8660
19023TIP3   OH278559   2.849   6.649  13.014  0.3608  0.1099  0.4961
19023TIP3    H178560   2.936   6.655  13.055  0.7567  0.1089 -0.3173
19023TIP3    H278561   2.862   6.687  12.927 -0.8095  1.4553  0.9036
19024TIP3   OH278562   4.748   0.480   3.497 -0.0382 -0.7263  0.4629
19024TIP3    H178563   4.770   0.513   3.410  0.7999  2.1246  1.7058
19024TIP3    H278564   4.801   0.401   3.507  0.8797 -0.3274 -1.0650
19025TIP3   OH278565   4.012   1.337  11.572  0.4458 -0.0250 -0.9987
19025TIP3    H178566   4.064   1.274  11.622 -0.2207 -1.3895 -1.9702
19025TIP3    H278567   3.994   1.292  11.489  0.2903  1.6110 -1.8753
19026TIP3   OH278568   2.669   6.113  13.112  0.1763  0.6879 -0.5882
19026TIP3    H178569   2.618   6.142  13.036 -0.6399 -2.8123 -1.4473
19026TIP3    H278570   2.741   6.062  13.075  0.4925 -0.0024  0.9337
19027TIP3   OH278571   1.923   2.747  16.112 -0.4680 -0.0663 -0.4416
19027TIP3    H178572   1.910   2.808  16.039 -0.1845 -0.1710 -0.5846
19027TIP3    H278573   2.002   2.779  16.156 -0.0482 -0.5959 -0.7965
19028TIP3   OH278574   5.715   6.293  14.740  0.3047 -0.3439  0.0966
19028TIP3    H178575   5.778   6.282  14.669 -1.6032 -1.0824 -1.5368
19028TIP3    H278576   5.634   6.322  14.697 -0.1749  1.7211  2.2674
19029TIP3   OH278577   3.233   5.592   0.809 -0.2968  0.2197 -0.4388
19029TIP3    H178578   3.200   5.535   0.740  0.1710 -2.2981  1.3193
19029TIP3    H278579   3.160   5.651   0.829 -2.7117 -3.1595  1.2101
19030TIP3   OH278580   6.220   6.514   0.716  0.3772  0.0553 -0.0258
19030TIP3    H178581   6.265   6.431   0.706  3.5436  1.3257  2.7844
19030TIP3    H278582   6.266   6.574   0.657 -0.2110  0.4797 -0.0647
19031TIP3   OH278583   0.695   3.722  15.334  0.7673 -0.0920  0.2831
19031TIP3    H178584   0.694   3.760  15.422 -0.9172  1.1790 -0.2514
19031TIP3    H278585   0.755   3.777  15.284  0.7864 -0.0739  0.3266
19032TIP3   OH278586   1.128   5.403  13.444  0.1324  0.1864 -0.3365
19032TIP3    H178587   1.191   5.433  13.378  1.5242 -3.1880 -0.6955
19032TIP3    H278588   1.173   5.416  13.528  0.3541 -0.0035 -0.4232
19033TIP3   OH278589   1.820   0.337   2.913 -0.0805 -0.2219  0.2501
19033TIP3    H178590   1.751   0.318   2.850 -0.3077 -0.6865  0.6375
19033TIP3    H278591   1.786   0.409   2.966 -0.6560 -1.0762  1.0499
19034TIP3   OH278592   5.157   2.200   5.737  0.1352  0.0668 -0.1162
19034TIP3    H178593   5.095   2.216   5.666  0.2883 -0.2031 -0.3144
19034TIP3    H278594   5.121   2.247   5.812 -0.3409 -0.1440 -0.2107
19035TIP3   OH278595   4.240   1.950   1.604 -0.2843 -0.1114 -0.1551
19035TIP3    H178596   4.244   1.860   1.574  0.1822 -0.3402  0.5889
19035TIP3    H278597   4.223   2.001   1.525  0.3303 -0.7658 -0.7080
19036TIP3   OH278598   1.661   0.803   0.061  0.2902 -0.3698 -0.1247
19036TIP3    H178599   1.609   0.882   0.073  2.4410  1.1328 -0.3247
19036TIP3    H278600   1.624   0.739   0.122 -1.1823  0.9386  0.3704
19037TIP3   OH278601   6.588   3.376   3.807 -0.2758 -0.8181 -0.1779
19037TIP3    H178602   6.547   3.369   3.893  0.0191 -0.0991  0.0303
19037TIP3    H278603   6.585   3.470   3.787 -0.0524 -0.9418 -0.8039
19038TIP3   OH278604   5.832   2.802   0.638  0.2461 -0.3068  0.2918
19038TIP3    H178605   5.904   2.834   0.585  1.0383 -2.5815 -0.0493
19038TIP3    H278606   5.803   2.878   0.689  1.4132  1.1469 -1.2011
19039TIP3   OH278607   4.805   1.250  10.665  0.2938  0.0150 -0.2071
19039TIP3    H178608   4.725   1.205  10.692 -0.5773  1.5995 -0.0717
19039TIP3    H278609   4.805   1.244  10.569  0.0198 -0.0178 -0.2053
19040TIP3   OH278610   2.365   6.605  16.888  0.2479 -0.0715  0.0278
19040TIP3    H178611   2.317   6.681  16.921  1.8713  0.4114  1.3273
19040TIP3    H278612   2.303   6.532  16.897  0.4028  0.1421  3.6755
19041TIP3   OH278613   6.036   5.220   2.207  0.2685 -0.0182 -0.0156
19041TIP3    H178614   6.062   5.159   2.276 -0.5390 -2.2638 -1.6129
19041TIP3    H278615   5.950   5.252   2.234 -0.1046 -0.9899 -0.0081
19042TIP3   OH278616   6.240   3.255  13.201  0.1943 -0.1589 -0.4440
19042TIP3    H178617   6.316   3.291  13.154 -1.0168  1.6694 -1.0416
19042TIP3    H278618   6.198   3.330  13.241 -0.5167 -1.3419  1.0853
19043TIP3   OH278619   3.317   3.117   5.597 -0.1487 -0.0729 -0.3752
19043TIP3    H178620   3.256   3.189   5.616 -0.8032 -0.6778 -0.1549
19043TIP3    H278621   3.403   3.159   5.591 -0.7627  0.9972 -2.0925
19044TIP3   OH278622   0.924   6.172  11.508 -0.4477 -0.4278 -0.3064
19044TIP3    H178623   0.849   6.146  11.560  0.7308 -0.5193  1.3916
19044TIP3    H278624   0.999   6.130  11.550  1.1957  3.4597  0.9592
19045TIP3   OH278625   6.198   3.478  13.364 -0.3547 -0.3223  0.1704
19045TIP3    H178626   6.259   3.491  13.437 -0.9514  1.4566  0.3884
19045TIP3    H278627   6.135   3.549  13.373 -2.8473 -2.4723  0.3107
19046TIP3   OH278628   0.885   2.660   0.776  0.2920 -0.1249 -0.1010
19046TIP3    H178629   0.904   2.576   0.735  0.9334  0.1167 -0.3116
19046TIP3    H278630   0.967   2.684   0.820  0.2968  0.6564 -0.5249
19047TIP3   OH278631   1.519   5.331   4.407  0.0188 -0.0478 -0.2185
19047TIP3    H178632   1.592   5.283   4.368 -0.5420 -0.7306 -0.4277
19047TIP3    H278633   1.539   5.332   4.501 -1.1892 -2.8536  0.1234
19048TIP3   OH278634   2.389   5.192   0.405  0.4990 -0.4945  0.1967
19048TIP3    H178635   2.412   5.103   0.377  1.2141 -0.0972 -0.4816
19048TIP3    H278636   2.435   5.249   0.345  0.5201  0.3527  1.0076
19049TIP3   OH278637   0.167   6.618   4.692 -0.3269  0.4041  0.3806
19049TIP3    H178638   0.112   6.695   4.681 -0.7088 -0.0427 -0.9439
19049TIP3    H278639   0.127   6.551   4.636 -0.0097 -0.7549  1.5231
19050TIP3   OH278640   5.505   3.080   2.042  0.1450 -0.3146 -0.0870
19050TIP3    H178641   5.415   3.090   2.010  0.1156 -2.7445 -0.8161
19050TIP3    H278642   5.554   3.149   1.996 -1.3240  1.0156  0.2989
19051TIP3   OH278643   6.143   4.623   3.930 -0.4196  0.4661 -0.0676
19051TIP3    H178644   6.076   4.682   3.964 -0.6238  1.2838 -1.8287
19051TIP3    H278645   6.225   4.670   3.942 -0.1473 -0.4691  1.9425
19052TIP3   OH278646   3.747   5.894  11.622 -0.4583 -0.0990 -0.2614
19052TIP3    H178647   3.754   5.805  11.656 -3.0324 -0.3009 -0.1802
19052TIP3    H278648   3.828   5.937  11.650  0.7407 -2.3533 -0.1662
19053TIP3   OH278649   1.650   4.108  12.620  0.0114  0.7472 -0.1493
19053TIP3    H178650   1.666   4.126  12.527  1.6339  1.6075  0.2669
19053TIP3    H278651   1.669   4.192  12.663  0.8036 -0.0707  1.1124
19054TIP3   OH278652   3.684   0.093  11.367  0.1032  0.5009 -0.7328
19054TIP3    H178653   3.656   0.117  11.456  1.9442  1.9887 -0.5211
19054TIP3    H278654   3.749   0.024  11.381 -0.4959 -0.1163 -0.9938
19055TIP3   OH278655   0.307   1.241   6.067 -0.2553  0.2537 -0.3150
19055TIP3    H178656   0.252   1.217   5.992 -0.3544  1.0404 -0.5050
19055TIP3    H278657   0.244   1.263   6.136 -0.1655 -0.2123 -0.0820
19056TIP3   OH278658   4.695   0.455   2.895  0.4605  0.2266 -0.2355
19056TIP3    H178659   4.754   0.434   2.967  0.3271 -0.6002 -0.3584
19056TIP3    H278660   4.685   0.373   2.848  0.0585  0.6183 -0.8386
19057TIP3   OH278661   3.300   4.014  15.669  0.5510 -1.1756 -0.1464
19057TIP3    H178662   3.240   4.068  15.720 -0.3004 -0.8671 -1.4329
19057TIP3    H278663   3.387   4.045  15.694  0.1025 -0.0054  0.0172
19058TIP3   OH278664   3.313   4.404   2.605 -0.2978 -0.1389 -0.1287
19058TIP3    H178665   3.323   4.418   2.511  0.2136 -0.2323 -0.0872
19058TIP3    H278666   3.402   4.409   2.640 -0.3646 -1.1390  0.2084
19059TIP3   OH278667   4.281   5.101  11.796  0.2338  0.1317 -0.0825
19059TIP3    H178668   4.242   5.018  11.822  0.3331  0.2905  0.5925
19059TIP3    H278669   4.283   5.098  11.700 -2.1649  0.4647 -0.1630
19060TIP3   OH278670   4.960   1.918   3.461 -0.3763 -0.0250 -0.0672
19060TIP3    H178671   5.038   1.892   3.411 -0.4398 -0.2313 -0.0623
19060TIP3    H278672   4.965   2.013   3.466 -0.1238 -0.0372 -0.0677
19061TIP3   OH278673   3.350   5.420  10.875  0.3367 -0.6864  0.0248
19061TIP3    H178674   3.274   5.364  10.857  0.5871 -1.7982  2.2219
19061TIP3    H278675   3.426   5.367  10.851  0.4852 -0.2384 -0.5009
19062TIP3   OH278676   4.324   5.029   3.487 -1.0728  0.1719  0.0844
19062TIP3    H178677   4.367   5.104   3.527  0.4553  0.5830 -2.2704
19062TIP3    H278678   4.343   4.956   3.546 -1.3748  1.3248  1.6317
19063TIP3   OH278679   5.392   6.137   4.254 -0.1711  0.3633 -0.4617
19063TIP3    H178680   5.305   6.106   4.229 -0.1077 -0.9485  0.8753
19063TIP3    H278681   5.427   6.177   4.174 -1.8062  0.4863 -1.1422
19064TIP3   OH278682   3.599   2.050   2.160 -0.0063 -0.2208  0.4487
19064TIP3    H178683   3.688   2.081   2.171  0.1118 -0.4351  0.0979
19064TIP3    H278684   3.565   2.098   2.085 -0.6867  0.9582  1.4924
19065TIP3   OH278685   3.215   0.348  13.393  0.3987  0.4941  0.7022
19065TIP3    H178686   3.191   0.303  13.313  0.4729  2.2292 -0.3195
19065TIP3    H278687   3.193   0.440  13.377  1.2245  1.0024  2.3276
19066TIP3   OH278688   4.219   4.112  15.617 -0.2982  0.3822 -0.0175
19066TIP3    H178689   4.308   4.142  15.634  0.2682 -0.7419 -0.8474
19066TIP3    H278690   4.230   4.020  15.592 -1.7509  0.0731  0.4583
19067TIP3   OH278691   6.108   2.212   2.244  0.4549 -0.0872 -0.8341
19067TIP3    H178692   6.041   2.187   2.307  3.0825 -1.2382  1.6402
19067TIP3    H278693   6.136   2.299   2.273  0.9272 -0.1615 -1.0664
19068TIP3   OH278694   3.265   3.540  16.960  0.4307  0.0357  0.3558
19068TIP3    H178695   3.359   3.550  16.976  0.3324  1.1478  0.3230
19068TIP3    H278696   3.246   3.448  16.979  1.4127 -0.0454  0.9481
19069TIP3   OH278697   3.037   1.331   0.670  0.0192 -0.0245  0.0275
19069TIP3    H178698   2.945   1.323   0.644 -0.0470  0.4856  0.1073
19069TIP3    H278699   3.079   1.253   0.632 -0.1391  0.5413 -1.3534
19070TIP3   OH278700   2.848   5.014  13.508  0.3082  0.0157 -0.4427
19070TIP3    H178701   2.855   5.090  13.450  1.1371  1.0686  1.0164
19070TIP3    H278702   2.923   4.960  13.486  0.2166  0.0488 -0.8487
19071TIP3   OH278703   1.810   6.043  14.442 -0.1482  0.2467 -0.0014
19071TIP3    H178704   1.715   6.048  14.453  0.0419  0.3384  1.7178
19071TIP3    H278705   1.844   6.111  14.500  0.9423  0.6175 -1.0668
19072TIP3   OH278706   0.295   3.584  16.288 -0.0442  0.3030  0.1774
19072TIP3    H178707   0.259   3.496  16.301  2.2795 -0.4428  1.9602
19072TIP3    H278708   0.312   3.590  16.194  0.7662 -1.5824  0.1801
19073TIP3   OH278709   5.007   3.291   3.381  0.0105  0.6481 -0.7558
19073TIP3    H178710   4.953   3.221   3.419  0.4794  0.0631 -1.1739
19073TIP3    H278711   5.088   3.248   3.355 -0.2788  1.0388 -2.3936
19074TIP3   OH278712   2.862   6.735  12.746  0.1318 -0.4857 -0.2708
19074TIP3    H178713   2.780   6.777  12.719  1.1059  1.7010  0.0840
19074TIP3    H278714   2.930   6.789  12.707  1.4246 -2.0147 -0.1578
19075TIP3   OH278715   3.008   4.178  16.018  0.3881  0.4159 -0.7685
19075TIP3    H178716   3.057   4.227  16.083  0.7744  0.4373 -1.0758
19075TIP3    H278717   3.040   4.088  16.026  0.3708  0.4004 -0.8631
19076TIP3   OH278718   5.283   2.231   0.791 -0.0790 -0.6152  0.5784
19076TIP3    H178719   5.187   2.238   0.784 -0.0913  0.4541  1.7070
19076TIP3    H278720   5.306   2.287   0.865  1.5069 -0.2873 -0.1372
19077TIP3   OH278721   1.526   3.707  11.679  0.3309  0.0838  0.2361
19077TIP3    H178722   1.489   3.782  11.632 -1.7037 -1.1851 -0.2412
19077TIP3    H278723   1.457   3.679  11.739  1.3317 -0.9720  0.9231
19078TIP3   OH278724   4.426   0.050  11.102 -0.5119  0.2226 -0.1064
19078TIP3    H178725   4.378   0.063  11.184 -0.4858  0.5720 -0.1490
19078TIP3    H278726   4.443   0.138  11.069  0.1770  0.1074 -0.0797
19079TIP3   OH278727   6.253   4.718  11.727 -0.1794  0.1380  0.4702
19079TIP3    H178728   6.202   4.797  11.713 -1.0986 -0.6816 -0.9356
19079TIP3    H278729   6.213   4.653  11.669  2.5983 -0.4652 -0.8291
19080TIP3   OH278730   4.928   5.250   6.095 -0.1400  0.6121 -0.2027
19080TIP3    H178731   4.979   5.216   6.169 -0.1063  1.9996  0.4176
19080TIP3    H278732   4.984   5.316   6.055 -0.1375 -0.1550 -1.5224
19081TIP3   OH278733   6.513   5.286   2.684 -0.1505 -0.0258 -0.3597
19081TIP3    H178734   6.571   5.339   2.629 -1.1194  0.5981 -0.7904
19081TIP3    H278735   6.453   5.349   2.723 -0.6858 -0.7034 -0.0805
19082TIP3   OH278736   6.695   0.903  13.865  0.4128  0.5588  0.3896
19082TIP3    H178737   6.753   0.908  13.789 -0.0182 -0.8428 -0.0425
19082TIP3    H278738   6.743   0.946  13.935  2.6560 -1.9537  0.4694
19083TIP3   OH278739   2.689   4.556   1.112  0.7339  0.8185 -0.4421
19083TIP3    H178740   2.686   4.535   1.205 -3.1006 -1.1323 -0.9388
19083TIP3    H278741   2.650   4.643   1.105 -0.9941  0.0552 -0.4367
19084TIP3   OH278742   4.330   4.125  12.696  0.2439 -0.2614 -0.3552
19084TIP3    H178743   4.376   4.209  12.682  0.6040 -0.5342 -0.8475
19084TIP3    H278744   4.238   4.150  12.705  0.5165  0.3170  0.9101
19085TIP3   OH278745   1.229   1.218  13.903  0.0040 -0.0508  0.7272
19085TIP3    H178746   1.231   1.123  13.888 -1.4916  0.0543 -0.2039
19085TIP3    H278747   1.138   1.243  13.887  0.0224  1.3011  2.5386
19086TIP3   OH278748   0.180   3.199   6.757  0.1483 -0.4031  0.3587
19086TIP3    H178749   0.176   3.120   6.809 -1.6503  0.3753  1.4536
19086TIP3    H278750   0.273   3.217   6.746  0.5459 -1.8734  1.2917
19087TIP3   OH278751   6.002   3.367  15.308  0.7143 -0.5311  0.1197
19087TIP3    H178752   6.056   3.319  15.244 -0.2222 -1.6846  0.1851
19087TIP3    H278753   6.062   3.386  15.380  1.5003 -0.1909 -0.6106
19088TIP3   OH278754   3.254   3.046  12.793 -0.1764 -0.5134 -0.0583
19088TIP3    H178755   3.315   3.032  12.720 -0.6127 -1.4272 -0.2495
19088TIP3    H278756   3.197   2.970  12.791 -0.4252 -0.3573  1.0204
19089TIP3   OH278757   1.631   6.483  14.046 -0.5523 -0.5150  0.3083
19089TIP3    H178758   1.659   6.452  13.960 -0.4426 -0.2548  0.2477
19089TIP3    H278759   1.697   6.448  14.106 -0.1676 -0.0219  0.1832
19090TIP3   OH278760   6.121   0.000  14.474 -0.8863  0.0595  0.1943
19090TIP3    H178761   6.194   0.049  14.435 -1.2549 -0.1791 -0.7872
19090TIP3    H278762   6.134  -0.089  14.443 -0.5432 -0.3618  1.5218
19091TIP3   OH278763   4.196   1.790   5.239  0.0818  0.4055 -0.1077
19091TIP3    H178764   4.112   1.754   5.267  1.2534 -0.3023  2.5789
19091TIP3    H278765   4.242   1.715   5.200  0.4119  0.2544  0.5810
19092TIP3   OH278766   1.335   0.088  11.816 -0.1452  0.2840  0.4092
19092TIP3    H178767   1.255   0.036  11.813  0.8317 -1.3295  1.5735
19092TIP3    H278768   1.312   0.170  11.772 -1.7686 -1.0440 -1.3178
19093TIP3   OH278769   3.895   1.115   5.601 -0.1258 -0.1165 -0.2632
19093TIP3    H178770   3.894   1.206   5.572  1.7402  0.0261  0.0668
19093TIP3    H278771   3.844   1.115   5.682 -1.0810  0.4153 -0.8525
19094TIP3   OH278772   0.050   0.543  17.288 -0.7998  0.1708 -0.0354
19094TIP3    H178773   0.093   0.519  17.206  0.8220 -2.5694  1.5544
19094TIP3    H278774   0.098   0.620  17.319  0.6993 -0.7245 -0.0757
19095TIP3   OH278775   3.608   6.388  11.817 -0.5048 -0.0806 -0.3289
19095TIP3    H178776   3.606   6.427  11.730  1.2702  1.0918  0.1350
19095TIP3    H278777   3.653   6.453  11.872 -1.1278 -1.0289  1.3426
19096TIP3   OH278778   4.479   2.949  16.425 -0.1523 -0.0830 -0.1182
19096TIP3    H178779   4.478   3.007  16.501  2.8489  0.0163 -0.1019
19096TIP3    H278780   4.446   2.865  16.458  1.9539 -0.3015  1.5686
19097TIP3   OH278781   6.312   3.700   5.487  0.0017  0.2666  0.1997
19097TIP3    H178782   6.371   3.714   5.561  0.8155  2.4114 -0.7838
19097TIP3    H278783   6.352   3.750   5.415 -1.7062 -0.2889 -1.1802
19098TIP3   OH278784   0.748   4.961  11.972 -0.0809  0.3407 -0.1838
19098TIP3    H178785   0.742   4.932  12.063 -0.3570 -0.8731 -0.5876
19098TIP3    H278786   0.798   5.043  11.977  0.2251  0.0939  1.0137
19099TIP3   OH278787   5.358   6.577  11.899 -0.2533  0.0136 -0.2764
19099TIP3    H178788   5.272   6.613  11.920 -0.5700 -2.3050  2.7196
19099TIP3    H278789   5.340   6.506  11.838 -0.3608  0.1426 -0.3971
19100TIP3   OH278790   4.984   1.211  12.952 -0.3141 -0.8354  0.4398
19100TIP3    H178791   5.023   1.132  12.989 -0.6964 -1.1062  0.2578
19100TIP3    H278792   5.059   1.268  12.935 -0.0153 -1.2472  0.3577
19101TIP3   OH278793   6.275   0.090   1.837 -0.3202  0.1657 -0.4326
19101TIP3    H178794   6.285   0.005   1.794 -0.3909  0.1560 -0.4296
19101TIP3    H278795   6.214   0.138   1.781 -0.8507 -0.0486 -0.0465
19102TIP3   OH278796   6.036   2.753  15.377 -0.1525  0.1005  0.0469
19102TIP3    H178797   6.128   2.730  15.383  0.2560  2.1440  2.0956
19102TIP3    H278798   6.036   2.848  15.365 -1.9899  0.1508  0.3309
19103TIP3   OH278799   3.420   0.671  16.547  0.4267 -0.6497 -0.5055
19103TIP3    H178800   3.472   0.733  16.496 -1.4984  0.8975 -0.6312
19103TIP3    H278801   3.429   0.701  16.638 -0.4580 -0.2317 -0.5569
19104TIP3   OH278802   1.971   0.385  17.004  0.5095 -0.4311 -0.2344
19104TIP3    H178803   2.041   0.418  16.948  0.1915  0.4216 -0.1267
19104TIP3    H278804   1.966   0.446  17.077  1.5009 -2.0089  1.2040
19105TIP3   OH278805   4.747   1.719   0.958  0.8522  0.1757  0.2831
19105TIP3    H178806   4.753   1.695   0.865 -0.9312 -2.5810  0.8074
19105TIP3    H278807   4.659   1.691   0.984  0.8164  2.1939  2.4770
19106TIP3   OH278808   3.824   5.057  13.031 -0.0120 -0.2777  0.1596
19106TIP3    H178809   3.731   5.034  13.033  0.6317 -3.3442 -2.1761
19106TIP3    H278810   3.841   5.085  12.941  1.9330 -2.6448 -0.2675
19107TIP3   OH278811   4.172   4.141   3.028 -0.2797 -0.1035 -0.7674
19107TIP3    H178812   4.137   4.205   3.090  1.1963  0.8503 -0.8730
19107TIP3    H278813   4.265   4.135   3.051 -0.6421 -3.2273  0.0896
19108TIP3   OH278814   0.419   2.977  13.570  0.3378 -0.1369  0.3294
19108TIP3    H178815   0.421   3.059  13.621 -2.0246 -0.3130  0.7605
19108TIP3    H278816   0.478   2.993  13.497  1.4115  1.2445  1.4569
19109TIP3   OH278817   4.445   4.970   0.123  0.1300  0.4218  1.2887
19109TIP3    H178818   4.499   5.005   0.052  1.1875 -0.6589  1.5433
19109TIP3    H278819   4.434   4.877   0.101 -0.0627  0.2179  2.2216
19110TIP3   OH278820   5.652   6.097  10.705  0.7472 -0.5700  0.2679
19110TIP3    H178821   5.578   6.154  10.725  0.1927 -0.6872 -1.3865
19110TIP3    H278822   5.613   6.022  10.660  1.9816 -0.0866 -1.6760
19111TIP3   OH278823   3.052   5.487  11.114  0.4044  0.4079 -0.1928
19111TIP3    H178824   2.960   5.490  11.089  0.1183  0.1912  0.8255
19111TIP3    H278825   3.093   5.557  11.062 -0.2571  0.2580 -0.9254
19112TIP3   OH278826   1.651   6.739   2.951  0.0012 -0.0682  0.7364
19112TIP3    H178827   1.667   6.662   3.005 -0.4745 -0.1450  0.7698
19112TIP3    H278828   1.626   6.704   2.865  0.8758  0.0524  0.4274
19113TIP3   OH278829   6.318   1.728   2.999 -0.2076  0.2290  0.4449
19113TIP3    H178830   6.297   1.703   3.089  0.5162 -0.6563  0.3743
19113TIP3    H278831   6.250   1.791   2.975 -0.4993  0.3439  1.5519
19114TIP3   OH278832   1.484   1.952   2.410  0.2796 -0.6072 -0.5505
19114TIP3    H178833   1.575   1.936   2.384  0.6674 -1.6482  1.4095
19114TIP3    H278834   1.436   1.875   2.379 -0.0333  0.1323 -1.9552
19115TIP3   OH278835   4.678   2.505   2.695 -0.7205  0.0893  0.3513
19115TIP3    H178836   4.588   2.530   2.675 -0.7485 -2.1364 -2.6897
19115TIP3    H278837   4.724   2.514   2.611  1.5770 -0.1232  1.5493
19116TIP3   OH278838   1.332   1.764   0.665 -0.0171 -0.1150 -0.9925
19116TIP3    H178839   1.251   1.728   0.630  0.4260 -1.7043 -0.4597
19116TIP3    H278840   1.385   1.787   0.588 -0.2582 -0.7364 -1.3417
19117TIP3   OH278841   6.390   5.521  17.181  0.3726 -0.3389 -0.1034
19117TIP3    H178842   6.405   5.449  17.119  0.6142 -0.9489  0.6538
19117TIP3    H278843   6.324   5.486  17.242 -2.5082  1.4892 -2.0667
19118TIP3   OH278844   3.853   2.214   4.119 -0.0554  0.2270 -0.1772
19118TIP3    H178845   3.944   2.202   4.146 -0.5248 -0.7857  1.0212
19118TIP3    H278846   3.847   2.166   4.036  0.5135  0.3569 -0.2989
19119TIP3   OH278847   5.829   3.378  13.434  0.2264  0.4083 -0.1272
19119TIP3    H178848   5.879   3.366  13.354 -1.1257  0.5207 -0.9913
19119TIP3    H278849   5.887   3.347  13.503  1.0469 -0.5386 -1.2362
19120TIP3   OH278850   1.298   1.479  16.238 -0.2596 -0.2124 -0.4008
19120TIP3    H178851   1.303   1.561  16.288 -2.1773 -0.9315  1.0221
19120TIP3    H278852   1.328   1.503  16.151 -1.0121  2.0957 -0.0654
19121TIP3   OH278853   3.928   5.661   1.372  0.3976  0.4478  0.3175
19121TIP3    H178854   3.952   5.570   1.390 -0.1163 -0.1382 -1.8344
19121TIP3    H278855   3.942   5.671   1.278 -1.0141  2.1564  0.2764
19122TIP3   OH278856   3.830   1.176  15.343 -0.5669  0.1187  0.3942
19122TIP3    H178857   3.787   1.103  15.388 -1.6589  2.1280  2.7303
19122TIP3    H278858   3.884   1.218  15.410  2.8460 -0.6070 -1.8086
19123TIP3   OH278859   5.121   0.221   2.449  0.1082  0.2249  0.7417
19123TIP3    H178860   5.147   0.159   2.381  0.3654  1.2013 -0.0573
19123TIP3    H278861   5.046   0.268   2.412  0.1945  0.7078  1.1734
19124TIP3   OH278862   1.275   0.293   5.353  0.5589 -0.3046 -0.3159
19124TIP3    H178863   1.309   0.376   5.384  1.1585 -0.1838 -1.2746
19124TIP3    H278864   1.330   0.271   5.278 -0.0509 -1.2102 -0.5064
19125TIP3   OH278865   0.577   3.112  16.486 -0.3918 -0.4033 -0.7235
19125TIP3    H178866   0.569   3.158  16.403 -0.2915 -1.8730 -1.5641
19125TIP3    H278867   0.488   3.084  16.507 -0.9561  2.5647  1.2321
19126TIP3   OH278868   3.246   0.781   2.507 -0.2822  0.5030 -0.1499
19126TIP3    H178869   3.301   0.744   2.437 -0.6600  0.4893 -0.4416
19126TIP3    H278870   3.163   0.800   2.464 -0.6134  0.2252  0.3670
19127TIP3   OH278871   4.584   6.528  11.623  0.4184  0.7953  0.0673
19127TIP3    H178872   4.508   6.545  11.679 -0.6352 -1.2309 -0.6854
19127TIP3    H278873   4.571   6.587  11.548 -0.4512  0.4389 -0.0743
19128TIP3   OH278874   2.112   2.804  12.480 -0.0869 -0.0407  0.3785
19128TIP3    H178875   2.039   2.744  12.469 -0.1744  0.2262 -0.6283
19128TIP3    H278876   2.078   2.873  12.537 -0.5178 -0.1002  0.1992
19129TIP3   OH278877   3.073   2.410  12.976 -0.1406  0.2142  0.3061
19129TIP3    H178878   3.118   2.455  12.904  0.6046 -0.1645  0.5327
19129TIP3    H278879   3.031   2.335  12.934 -0.4150  0.4667  0.1256
19130TIP3   OH278880   0.771   0.611   2.704  0.1726 -0.0363  0.0013
19130TIP3    H178881   0.795   0.533   2.654 -1.6561 -0.6429  0.0175
19130TIP3    H278882   0.692   0.586   2.752  1.0391  1.0156  2.0578
19131TIP3   OH278883   3.476   4.036   2.155 -0.1889 -0.2608 -0.4032
19131TIP3    H178884   3.474   4.101   2.225 -0.5188 -0.7977  0.0873
19131TIP3    H278885   3.391   3.993   2.159  0.6987 -1.9986  0.4957
19132TIP3   OH278886   0.199   1.372   3.109 -0.1710 -0.0998  0.0906
19132TIP3    H178887   0.282   1.365   3.062 -0.2491 -0.6160  0.0270
19132TIP3    H278888   0.219   1.346   3.199 -0.2564 -0.2010  0.0806
19133TIP3   OH278889   6.492   0.791  12.312  0.4380 -0.2828  0.0529
19133TIP3    H178890   6.467   0.773  12.402 -0.1247 -0.7299 -0.1887
19133TIP3    H278891   6.472   0.883  12.299 -0.9190 -0.5853 -0.0809
19134TIP3   OH278892   3.162   5.336  15.228  0.1998  0.5292  0.1362
19134TIP3    H178893   3.249   5.298  15.213  0.1551 -0.1192  1.3966
19134TIP3    H278894   3.163   5.362  15.320 -1.1103  0.0342  0.3026
19135TIP3   OH278895   2.320   0.093  10.766  0.0485  0.2231  0.3087
19135TIP3    H178896   2.330   0.010  10.718 -1.8217  1.0821 -1.6770
19135TIP3    H278897   2.306   0.158  10.697  1.9747  2.2980  1.8159
19136TIP3   OH278898   3.291   5.886  12.553  0.0306 -0.3581 -0.3681
19136TIP3    H178899   3.298   5.797  12.588  0.9166 -0.1386  0.0236
19136TIP3    H278900   3.243   5.934  12.619  1.6131  0.0301  0.5362
19137TIP3   OH278901   1.488   5.605   6.215 -0.2421  0.3750 -0.5518
19137TIP3    H178902   1.494   5.697   6.188 -0.8826  0.9406  1.1362
19137TIP3    H278903   1.579   5.575   6.219 -0.1317  0.2280 -3.3635
19138TIP3   OH278904   2.991   4.768   3.640 -0.3755 -0.0095  0.0702
19138TIP3    H178905   2.922   4.834   3.650 -0.8317 -0.4063 -0.3818
19138TIP3    H278906   2.944   4.691   3.608  0.2024 -0.4499  0.2944
19139TIP3   OH278907   0.259   3.594  13.166 -0.6253  0.3367  0.1083
19139TIP3    H178908   0.350   3.620  13.180 -0.2222 -1.1368  0.2869
19139TIP3    H278909   0.221   3.666  13.115  0.7295  0.7994 -0.2653
19140TIP3   OH278910   6.171   0.655  17.124  0.0856 -0.3757 -0.0661
19140TIP3    H178911   6.080   0.625  17.119 -0.3914  1.0249 -0.1635
19140TIP3    H278912   6.191   0.657  17.218  0.1746 -1.1455 -0.0695
19141TIP3   OH278913   1.264   1.092  13.062 -0.2302  0.2377  0.5583
19141TIP3    H178914   1.339   1.033  13.066 -0.5251 -0.0865  1.2652
19141TIP3    H278915   1.223   1.085  13.147 -1.2209  0.2298  0.0819
19142TIP3   OH278916   0.195   0.775   0.060 -0.5886  0.1647 -0.0702
19142TIP3    H178917   0.131   0.819   0.003 -0.1192  0.0491 -0.6920
19142TIP3    H278918   0.187   0.820   0.144 -1.2569  0.3665 -0.2361
19143TIP3   OH278919   6.254   0.712   0.765 -0.2575  0.4596 -0.1801
19143TIP3    H178920   6.163   0.732   0.742 -0.6285  1.3183  1.9395
19143TIP3    H278921   6.264   0.744   0.854  2.3629  1.0739 -0.6508
19144TIP3   OH278922   1.404   0.639   2.756 -0.0930  0.5447 -0.1726
19144TIP3    H178923   1.496   0.614   2.762 -0.1564  0.4015  0.2155
19144TIP3    H278924   1.356   0.557   2.767 -0.2854  0.7335  0.4528
19145TIP3   OH278925   2.835   5.794   0.425 -0.1006  0.0452 -0.3406
19145TIP3    H178926   2.758   5.794   0.483  0.5446  2.7318  0.5914
19145TIP3    H278927   2.801   5.823   0.341 -0.1357  1.2013  0.0635
19146TIP3   OH278928   2.769   0.879   4.573 -0.3182 -0.0929 -0.1457
19146TIP3    H178929   2.832   0.950   4.557 -0.2196 -0.4934 -1.5770
19146TIP3    H278930   2.720   0.872   4.492 -2.7825  0.7481  1.2170
19147TIP3   OH278931   4.308   5.106   2.013 -0.3356  0.4476  0.2679
19147TIP3    H178932   4.276   5.086   2.101 -1.6971  1.2759 -0.0196
19147TIP3    H278933   4.237   5.078   1.956  0.6578 -0.3463 -0.6014
19148TIP3   OH278934   3.267   0.499   3.656  0.3107 -0.2167  0.2142
19148TIP3    H178935   3.345   0.482   3.708 -0.0992  0.2719  0.9919
19148TIP3    H278936   3.249   0.592   3.671 -0.9507 -0.5457  0.7544
19149TIP3   OH278937   0.501   1.652   6.869  0.1412  0.2557 -1.0816
19149TIP3    H178938   0.577   1.595   6.868  1.4251  1.8843 -3.2930
19149TIP3    H278939   0.427   1.595   6.846  0.6572 -1.3273  1.0747
19150TIP3   OH278940   6.400   1.102  16.728 -0.0240  0.4157 -0.1755
19150TIP3    H178941   6.488   1.135  16.747 -0.3825  1.5735 -0.4737
19150TIP3    H278942   6.349   1.124  16.806 -1.2016  4.0772 -1.8697
19151TIP3   OH278943   4.197   5.771  13.613 -0.6475  0.1955  0.1298
19151TIP3    H178944   4.220   5.750  13.704 -0.0989  0.0876 -0.0291
19151TIP3    H278945   4.204   5.866  13.608 -0.2396  0.1652  0.0881
19152TIP3   OH278946   4.923   0.103  11.101 -0.0999 -0.0179  0.0592
19152TIP3    H178947   4.871   0.151  11.036  1.0690  1.8500  0.4453
19152TIP3    H278948   4.962   0.031  11.052 -0.1373  0.7063 -1.0584
19153TIP3   OH278949   1.949   3.929   4.385 -0.7339  0.3264 -0.2252
19153TIP3    H178950   1.922   3.898   4.471  1.3030  1.7546  0.9740
19153TIP3    H278951   1.904   4.013   4.374 -1.4469 -0.1278 -0.8167
19154TIP3   OH278952   3.958   4.281  15.635 -0.5444 -0.1167  0.8492
19154TIP3    H178953   3.963   4.186  15.622  2.5404  0.0813  0.3066
19154TIP3    H278954   4.044   4.314  15.609 -2.0484  3.0326 -0.4372
19155TIP3   OH278955   6.605   5.770   1.754 -0.4742  0.1003 -0.5268
19155TIP3    H178956   6.511   5.786   1.764 -0.7736 -1.5602 -0.6779
19155TIP3    H278957   6.634   5.744   1.841 -0.2702  0.0215 -0.6190
19156TIP3   OH278958   6.385   2.162   1.635 -0.0207  0.0015  0.0771
19156TIP3    H178959   6.373   2.180   1.542  0.2286 -1.0893 -0.1709
19156TIP3    H278960   6.456   2.220   1.661  0.0130  0.2018 -0.4390
19157TIP3   OH278961   2.891   2.740  15.626 -0.5848 -0.5107 -0.4248
19157TIP3    H178962   2.904   2.834  15.626  0.4687 -0.6509  1.4886
19157TIP3    H278963   2.941   2.709  15.551 -2.1113  0.5787 -1.9452
19158TIP3   OH278964   3.719   1.417   2.438 -0.5643  0.0530 -0.0656
19158TIP3    H178965   3.726   1.338   2.492  0.2470 -0.1554 -0.4709
19158TIP3    H278966   3.789   1.408   2.373  0.7691  2.0116  1.0489
19159TIP3   OH278967   5.698   3.523   0.625  0.6703  0.3184  1.1282
19159TIP3    H178968   5.676   3.542   0.533 -0.3131 -1.1003  1.0473
19159TIP3    H278969   5.786   3.488   0.621 -0.6060 -2.9681  0.2761
19160TIP3   OH278970   6.692   3.094  15.510 -0.5547 -0.2398  0.0679
19160TIP3    H178971   6.723   3.182  15.489  0.2317  0.2681  3.1613
19160TIP3    H278972   6.771   3.041  15.513 -0.9997 -1.0116 -1.5078
19161TIP3   OH278973   3.130   1.772   2.040  0.4067 -0.1414 -0.0038
19161TIP3    H178974   3.135   1.865   2.022  1.5778  0.1168  1.5164
19161TIP3    H278975   3.051   1.762   2.094 -0.2950 -0.1862 -1.0337
19162TIP3   OH278976   0.654   6.140  16.955  0.2746 -0.4032  0.1271
19162TIP3    H178977   0.590   6.069  16.950 -0.4786  0.3041 -0.5460
19162TIP3    H278978   0.723   6.115  16.895 -0.8578  0.2775 -1.4892
19163TIP3   OH278979   0.620   5.007  11.162 -0.2402 -0.5224 -0.0233
19163TIP3    H178980   0.651   5.044  11.245  1.3351 -1.0422 -0.3688
19163TIP3    H278981   0.677   4.931  11.146  0.8365  0.7768 -2.6227
19164TIP3   OH278982   0.181   1.943   2.777  0.1348  0.0319 -0.8105
19164TIP3    H178983   0.169   2.025   2.729 -0.3605 -0.1300 -0.9693
19164TIP3    H278984   0.274   1.924   2.768  0.3071  0.7186 -0.5371
19165TIP3   OH278985   3.930   4.396   4.242 -0.5651 -0.8746  0.1281
19165TIP3    H178986   3.943   4.397   4.337  0.5416 -0.6652 -0.0169
19165TIP3    H278987   3.836   4.384   4.231 -0.8106 -0.0591  1.2521
19166TIP3   OH278988   4.601   1.296   1.543 -0.3875 -0.1152 -0.5333
19166TIP3    H178989   4.651   1.257   1.615 -0.9010  1.7978  0.9005
19166TIP3    H278990   4.546   1.225   1.510  0.0806 -1.0944  0.7732
19167TIP3   OH278991   1.013   1.367  12.220 -0.1304 -0.0941 -0.5351
19167TIP3    H178992   1.050   1.399  12.138 -0.1012 -0.3060 -0.6074
19167TIP3    H278993   0.938   1.313  12.193 -0.2416 -0.0021 -0.4123
19168TIP3   OH278994   0.066   1.757  13.548 -0.0366 -0.1250 -0.2447
19168TIP3    H178995  -0.012   1.804  13.517  0.1830  0.9238  0.7582
19168TIP3    H278996   0.128   1.826  13.570  0.0836 -0.8453  1.8100
19169TIP3   OH278997   4.486   4.059  15.139 -0.0368  0.0934 -1.3743
19169TIP3    H178998   4.563   4.113  15.158 -2.0695  2.5415  0.2672
19169TIP3    H278999   4.521   3.971  15.127  3.0235  1.1552 -0.7234
19170TIP3   OH279000   4.547   5.496  17.091 -0.0546 -0.1015 -0.4538
19170TIP3    H179001   4.509   5.582  17.075  1.4454  0.5986 -0.2367
19170TIP3    H279002   4.544   5.453  17.006 -0.0944  0.4319 -0.7197
19171TIP3   OH279003   4.162   3.197  11.781  0.3598 -0.1080 -0.3420
19171TIP3    H179004   4.214   3.258  11.833 -0.1099 -0.1896  0.2209
19171TIP3    H279005   4.226   3.156  11.721  0.8505  0.1679 -0.0049
19172TIP3   OH279006   0.544   4.533   3.314  0.1915  0.8147  0.2561
19172TIP3    H179007   0.611   4.533   3.382  0.5037 -0.2715 -0.0489
19172TIP3    H279008   0.486   4.606   3.337  1.3629  1.6492  0.6295
19173TIP3   OH279009   2.073   4.863  13.406 -0.4136  0.0998  0.1013
19173TIP3    H179010   2.023   4.806  13.464 -2.7868  1.0554 -0.9227
19173TIP3    H279011   2.060   4.951  13.442 -0.6209  0.5154 -0.9577
19174TIP3   OH279012   2.320   4.190   5.961  0.1727 -0.3631  0.2912
19174TIP3    H179013   2.328   4.113   5.906 -2.7450  0.4949 -1.4078
19174TIP3    H279014   2.271   4.253   5.908  0.4602  1.8149  2.5062
19175TIP3   OH279015   3.119   3.818  11.549  0.7558 -0.0320  0.1286
19175TIP3    H179016   3.092   3.750  11.611 -1.4646 -0.1796 -0.9300
19175TIP3    H279017   3.044   3.826  11.489  2.7005  0.3008 -2.3443
19176TIP3   OH279018   3.481   2.660   3.883  0.0309 -0.1084  0.5112
19176TIP3    H179019   3.508   2.723   3.950  1.8751 -2.3898  1.9910
19176TIP3    H279020   3.558   2.605   3.869 -1.2797 -1.5432 -1.3167
19177TIP3   OH279021   6.784   3.679  15.074 -0.6364  0.0882  0.2488
19177TIP3    H179022   6.869   3.641  15.093 -1.6185 -3.1048 -1.4284
19177TIP3    H279023   6.746   3.697  15.160  0.6774 -0.8493  1.0459
19178TIP3   OH279024   5.473   4.693  13.628 -0.1830  0.2145 -0.0198
19178TIP3    H179025   5.528   4.621  13.598 -0.7621  0.2407 -1.1757
19178TIP3    H279026   5.535   4.757  13.663  0.4513 -0.1549 -0.4531
19179TIP3   OH279027   2.085   5.687  12.658 -0.1161  0.7072 -0.5973
19179TIP3    H179028   2.096   5.772  12.701  0.6209  0.5711 -0.5061
19179TIP3    H279029   2.020   5.641  12.711  0.3717  0.7553  0.0381
19180TIP3   OH279030   2.747   0.418  12.706  0.2306 -0.0112  0.0135
19180TIP3    H179031   2.759   0.497  12.652  1.0370  0.1853  0.4676
19180TIP3    H279032   2.751   0.346  12.643 -1.2998  0.3452 -0.5068
19181TIP3   OH279033   1.037   5.754  12.901  0.5434 -0.6528 -0.6163
19181TIP3    H179034   1.074   5.808  12.831  1.9272 -0.1688  0.4784
19181TIP3    H279035   1.113   5.723  12.951 -0.4029 -1.3607  0.4114
19182TIP3   OH279036   6.734   3.481   5.465  0.1302 -0.2622  0.5111
19182TIP3    H179037   6.712   3.403   5.415  0.9094 -0.2881  0.2036
19182TIP3    H279038   6.828   3.476   5.478  0.1237  0.4102  0.8578
19183TIP3   OH279039   0.275   0.037  14.649  0.0815 -0.0074 -0.6374
19183TIP3    H179040   0.263   0.046  14.555  1.1406  0.3682 -0.7425
19183TIP3    H279041   0.338   0.105  14.672  1.9457 -1.8296 -0.1054
19184TIP3   OH279042   2.133   3.526  11.801 -0.4894  0.3263  0.0088
19184TIP3    H179043   2.084   3.472  11.738 -1.1986  0.0675  0.7689
19184TIP3    H279044   2.072   3.539  11.874  0.1644  1.0067  0.4441
19185TIP3   OH279045   3.022   6.726   4.155  0.6759 -0.4429  0.1779
19185TIP3    H179046   2.969   6.683   4.088  1.7085 -3.1696  1.0266
19185TIP3    H279047   2.968   6.723   4.234 -0.3345  2.3059 -0.3684
19186TIP3   OH279048   0.500   6.647  16.838 -0.7171 -0.1699  0.1516
19186TIP3    H179049   0.474   6.556  16.848  1.6646 -0.7318  1.4698
19186TIP3    H279050   0.521   6.676  16.927  1.2473  0.8029 -0.5984
19187TIP3   OH279051   4.333   4.197  11.101 -0.6229 -0.2405  0.2562
19187TIP3    H179052   4.343   4.223  11.193 -0.8716 -0.8369  0.4507
19187TIP3    H279053   4.249   4.153  11.097 -0.7843  0.1069 -0.3363
19188TIP3   OH279054   5.973   4.186  13.032 -0.4285 -0.0422 -0.1153
19188TIP3    H179055   6.041   4.148  12.976  0.2801 -0.2677  0.8604
19188TIP3    H279056   5.904   4.213  12.972 -0.1872 -1.3009 -0.9897
19189TIP3   OH279057   0.318   3.027  11.139  0.4931 -0.0768  1.1550
19189TIP3    H179058   0.354   3.026  11.051  1.0495 -1.8368  1.3776
19189TIP3    H279059   0.392   3.050  11.195  0.7917 -1.5636  1.3997
19190TIP3   OH279060   4.338   1.967  16.758  0.1060 -0.0954 -0.4733
19190TIP3    H179061   4.246   1.992  16.768 -0.4559 -2.3039  0.1005
19190TIP3    H279062   4.370   1.958  16.848  0.6866 -0.0045 -0.6728
19191TIP3   OH279063   4.193   3.885   6.820 -0.0316 -0.0972  0.3031
19191TIP3    H179064   4.125   3.938   6.861  0.9883  0.8210  0.8252
19191TIP3    H279065   4.177   3.894   6.726 -1.5780 -1.1563  0.4511
19192TIP3   OH279066   5.808   1.611   5.698 -0.4399 -0.1614  0.0406
19192TIP3    H179067   5.792   1.562   5.778  0.9596  1.5713  1.4142
19192TIP3    H279068   5.865   1.683   5.724 -2.0518  1.9543 -2.0051
19193TIP3   OH279069   4.720   1.054  16.765 -0.0098  0.6976 -0.0720
19193TIP3    H179070   4.691   1.109  16.692 -0.3494  0.7592  0.1064
19193TIP3    H279071   4.658   1.074  16.835 -1.3300 -1.3334 -0.6024
19194TIP3   OH279072   4.353   0.546  12.563  0.1887 -0.1706 -0.0728
19194TIP3    H179073   4.376   0.544  12.656 -0.5452 -1.2223  0.0928
19194TIP3    H279074   4.429   0.509  12.518  1.3528  2.1302 -0.0866
19195TIP3   OH279075   4.572   0.361  14.102 -0.0952 -0.0562  0.4228
19195TIP3    H179076   4.518   0.327  14.174 -0.6855 -0.7546 -0.3461
19195TIP3    H279077   4.565   0.295  14.033  1.7388 -0.1435  0.3067
19196TIP3   OH279078   3.417   5.192  15.185  0.0523 -0.3076  0.3110
19196TIP3    H179079   3.456   5.171  15.270 -0.0235 -1.8025  0.0005
19196TIP3    H279080   3.423   5.110  15.136  0.7846  0.7636 -1.4008
19197TIP3   OH279081   2.545   5.395   5.648  0.4086  0.4591 -0.1607
19197TIP3    H179082   2.508   5.410   5.735 -0.1544  0.2560 -0.3672
19197TIP3    H279083   2.639   5.383   5.664  0.4465  1.3801  0.3127
19198TIP3   OH279084   0.362   3.308  11.169 -0.0040  0.0507 -0.1550
19198TIP3    H179085   0.389   3.259  11.247 -1.2108 -0.0327  0.2115
19198TIP3    H279086   0.442   3.313  11.116  1.2619  1.5732  1.8367
19199TIP3   OH279087   0.418   3.967   4.206  0.1411  0.1517 -0.5999
19199TIP3    H179088   0.357   4.035   4.178 -0.8961 -0.8919 -0.9034
19199TIP3    H279089   0.465   4.005   4.280 -1.4381  0.6748  0.1325
19200TIP3   OH279090   0.256   6.022   4.726  0.4230 -0.4977  0.3108
19200TIP3    H179091   0.351   6.031   4.733  0.4416 -1.0383  0.7765
19200TIP3    H279092   0.221   6.091   4.782  0.5322  0.4026 -0.7197
19201TIP3   OH279093   1.791   3.463   3.353  0.2118 -0.2666 -0.1533
19201TIP3    H179094   1.836   3.400   3.409  1.1982  1.8684  1.5011
19201TIP3    H279095   1.722   3.500   3.408  1.6707  2.4073 -0.0629
19202TIP3   OH279096   3.126   0.608  13.348 -0.0165  0.0009 -0.7373
19202TIP3    H179097   3.034   0.621  13.372  0.0738  2.0991 -1.4565
19202TIP3    H279098   3.135   0.651  13.263  1.6649 -0.0311 -0.5908
19203TIP3   OH279099   0.957   4.626  13.900 -0.2351  0.6892  0.0686
19203TIP3    H179100   0.943   4.534  13.923 -0.1780  0.4886 -0.6784
19203TIP3    H279101   1.046   4.645  13.931 -0.1604  0.4270  0.0177
19204TIP3   OH279102   2.480   5.215  11.335 -0.2911  0.4428  0.4460
19204TIP3    H179103   2.458   5.252  11.250  0.5803 -2.6830 -1.2205
19204TIP3    H279104   2.399   5.174  11.365 -0.2855  0.5043  0.5443
19205TIP3   OH279105   1.846   0.979   4.393  0.3547  0.0792  0.4465
19205TIP3    H179106   1.772   1.006   4.338 -0.1127 -0.1289  0.9673
19205TIP3    H279107   1.868   0.891   4.363 -0.9923 -0.7198  1.6944
19206TIP3   OH279108   4.849   3.463   2.987 -0.0044 -0.0970 -0.5822
19206TIP3    H179109   4.868   3.391   2.927 -0.7274 -0.9271  0.1888
19206TIP3    H279110   4.769   3.502   2.952 -0.5095 -0.6753 -0.0637
19207TIP3   OH279111   2.316   5.664   3.829 -0.2685  0.2888 -0.7955
19207TIP3    H179112   2.364   5.730   3.780  1.3774 -0.8130 -0.7083
19207TIP3    H279113   2.260   5.714   3.889  0.6920  1.5965 -0.9698
19208TIP3   OH279114   6.557   1.901  16.652 -0.1577  0.0583 -0.0495
19208TIP3    H179115   6.480   1.956  16.639  0.4800  0.5000 -2.0496
19208TIP3    H279116   6.583   1.874  16.564 -0.5978 -3.6926  0.8556
19209TIP3   OH279117   4.626   3.851   3.691  0.0205 -0.0899 -0.1489
19209TIP3    H179118   4.559   3.881   3.752 -0.0896  1.7801 -1.1341
19209TIP3    H279119   4.697   3.915   3.701 -0.8922  1.5787 -3.5168
19210TIP3   OH279120   6.515   2.962   0.706  0.1994  0.3418  0.1507
19210TIP3    H179121   6.447   3.015   0.665  0.6271  2.2386  1.8068
19210TIP3    H279122   6.588   2.964   0.644 -0.6446 -0.3113 -0.8712
19211TIP3   OH279123   1.889   0.704   3.823  0.5060  0.6656 -0.0894
19211TIP3    H179124   1.944   0.781   3.834  2.4405 -0.4649 -1.5956
19211TIP3    H279125   1.913   0.646   3.894 -0.0609  0.9298  0.3200
19212TIP3   OH279126   3.248   1.034   2.254 -0.5780  0.1327  0.3876
19212TIP3    H179127   3.230   1.010   2.345 -0.0884  0.4663  0.5736
19212TIP3    H279128   3.276   1.125   2.258 -0.0877  0.0042 -0.0409
19213TIP3   OH279129   4.516   4.110  11.568  0.2717 -0.5120  0.2697
19213TIP3    H179130   4.563   4.181  11.613 -1.9279  0.3478  1.3077
19213TIP3    H279131   4.537   4.031  11.617  1.0848 -0.2379  0.3655
19214TIP3   OH279132   6.664   6.200  12.924 -0.1369  0.9089 -0.0417
19214TIP3    H179133   6.737   6.139  12.916  0.0849  0.8451  2.0115
19214TIP3    H279134   6.702   6.276  12.969 -0.9838  1.5152 -0.3290
19215TIP3   OH279135   2.061   6.428   4.418 -0.1574 -0.0411 -0.4750
19215TIP3    H179136   2.096   6.425   4.507 -0.1135  1.1471 -0.4476
19215TIP3    H279137   2.135   6.403   4.362  0.9631  3.0731 -0.4701
19216TIP3   OH279138   1.650   0.545  11.703  0.0537 -0.2186  0.4167
19216TIP3    H179139   1.723   0.588  11.747  3.1092 -2.4316 -2.2337
19216TIP3    H279140   1.666   0.452  11.714 -0.7622 -0.7881 -2.6009
19217TIP3   OH279141   3.631   5.510  15.485 -0.2463  0.1617 -0.4649
19217TIP3    H179142   3.636   5.604  15.501 -0.8245  0.3199 -1.1975
19217TIP3    H279143   3.656   5.500  15.393 -0.9841 -0.3039 -0.6238
19218TIP3   OH279144   2.902   2.597   2.999  0.1359 -0.6611 -0.7337
19218TIP3    H179145   2.826   2.583   2.942 -0.2310  1.0858 -0.6955
19218TIP3    H279146   2.870   2.653   3.069  1.0858 -1.1965  0.1370
19219TIP3   OH279147   3.769   1.138  14.871 -0.2712 -0.1163  0.1887
19219TIP3    H179148   3.776   1.157  14.778 -0.6497  0.0115  0.1833
19219TIP3    H279149   3.846   1.178  14.910  0.8395 -1.7492 -0.3145
19220TIP3   OH279150   5.003   1.320  16.880 -0.1389 -0.0062  0.2727
19220TIP3    H179151   5.064   1.386  16.912 -0.1909  0.5026 -0.6764
19220TIP3    H279152   4.960   1.287  16.960  1.3368 -0.3507  0.9377
19221TIP3   OH279153   0.006   4.484  16.053  0.0315  0.7193  0.1363
19221TIP3    H179154   0.050   4.400  16.042  0.2514  0.9300 -0.6824
19221TIP3    H279155  -0.087   4.462  16.048  0.0438  0.3121  1.5879
19222TIP3   OH279156   4.969   3.272  12.055  0.0870  1.1480 -0.0470
19222TIP3    H179157   4.888   3.267  12.106 -0.2114 -0.1666 -0.6319
19222TIP3    H279158   5.030   3.216  12.103  0.5141  1.7770  0.1425
19223TIP3   OH279159   2.351   4.201  16.472  0.4130 -0.5356  0.1087
19223TIP3    H179160   2.316   4.243  16.550  0.4245 -0.4018  0.0428
19223TIP3    H279161   2.439   4.236  16.462  0.3062 -0.3278 -0.1294
19224TIP3   OH279162   0.842   0.342  11.668  0.9722 -0.3255 -0.4882
19224TIP3    H179163   0.879   0.360  11.754 -0.1103 -1.7210  0.2817
19224TIP3    H279164   0.781   0.414  11.652 -0.2232 -1.0365  0.7472
19225TIP3   OH279165   6.349   0.036  13.192 -0.5816  0.2362 -0.2854
19225TIP3    H179166   6.354   0.105  13.258  0.6058  0.6264 -0.7597
19225TIP3    H279167   6.271  -0.014  13.215  0.5793 -0.5013  2.2521
19226TIP3   OH279168   1.432   0.442   2.110  0.5739 -0.2733 -0.1034
19226TIP3    H179169   1.498   0.498   2.149  0.6361  0.0851 -0.7154
19226TIP3    H279170   1.443   0.357   2.153 -0.4629  0.5617  1.8450
19227TIP3   OH279171   2.767   5.443   6.673 -0.2946 -0.0623  0.6520
19227TIP3    H179172   2.855   5.481   6.660 -0.3173  0.1142  1.0178
19227TIP3    H279173   2.770   5.361   6.625 -1.0236  1.5274 -2.2317
19228TIP3   OH279174   6.640   2.318   3.596  0.3637 -0.1086  0.1852
19228TIP3    H179175   6.551   2.285   3.610  1.0670 -1.5691  1.4151
19228TIP3    H279176   6.657   2.302   3.503 -0.2129 -0.9808  0.2226
19229TIP3   OH279177   0.987   2.986   4.218 -0.5299 -0.6261  0.1550
19229TIP3    H179178   1.038   3.065   4.202 -1.0997  0.2701  2.5674
19229TIP3    H279179   1.025   2.920   4.160  0.4307  1.2191 -1.3413
19230TIP3   OH279180   4.041   2.458  14.107 -0.0155 -0.3325  0.0871
19230TIP3    H179181   4.117   2.481  14.054 -1.5077  0.4544 -1.7640
19230TIP3    H279182   4.056   2.366  14.131  2.2339  0.2538  1.0434
19231TIP3   OH279183   2.184   4.025   3.677  0.2099 -0.0841  0.5089
19231TIP3    H179184   2.183   4.117   3.653  2.1965  0.2045  1.4179
19231TIP3    H279185   2.258   4.016   3.737  0.6187 -2.4382 -0.2794
19232TIP3   OH279186   4.120   5.370  13.747 -0.4660  0.1851 -0.2223
19232TIP3    H179187   4.093   5.380  13.656  0.5994 -0.3129 -0.6105
19232TIP3    H279188   4.039   5.364  13.797 -1.0521  0.0875 -1.1872
19233TIP3   OH279189   1.574   5.185  11.805  0.2355 -0.4598 -0.0124
19233TIP3    H179190   1.526   5.105  11.829  1.3144 -0.5559  1.9116
19233TIP3    H279191   1.580   5.235  11.886  0.6979  0.9932 -0.9190
19234TIP3   OH279192   5.107   6.392   0.339 -0.2548  0.1386  0.0396
19234TIP3    H179193   5.108   6.344   0.422  0.3299 -0.3006 -0.2166
19234TIP3    H279194   5.196   6.382   0.305 -0.6565 -0.1933 -0.9244
19235TIP3   OH279195   2.664   4.336  14.563 -0.4589  0.1766  0.9268
19235TIP3    H179196   2.741   4.297  14.522 -0.9860  0.6411 -0.5388
19235TIP3    H279197   2.683   4.333  14.656  1.3357  0.2649  0.5937
19236TIP3   OH279198   2.394   2.292   4.432 -0.0877 -0.1496 -0.0217
19236TIP3    H179199   2.312   2.262   4.472 -0.0396  0.1551  0.3181
19236TIP3    H279200   2.414   2.227   4.365 -0.4039 -0.4339  0.1578
19237TIP3   OH279201   3.575   4.562   4.580  0.1027 -0.3242  0.0104
19237TIP3    H179202   3.550   4.493   4.641  1.2667 -0.2546  0.5755
19237TIP3    H279203   3.529   4.639   4.612  0.2858 -0.4113  0.4998
19238TIP3   OH279204   0.717   4.666  12.012  0.4119 -0.1096  0.8316
19238TIP3    H179205   0.697   4.759  12.009  1.6103  0.1165 -0.1469
19238TIP3    H279206   0.744   4.644  11.923 -0.0384 -1.4342  1.0158
19239TIP3   OH279207   1.262   3.406   4.921 -0.0690  0.6021  0.0749
19239TIP3    H179208   1.259   3.411   5.016  3.2176  0.1936  0.2832
19239TIP3    H279209   1.275   3.497   4.893 -2.1010  0.8663 -0.0895
19240TIP3   OH279210   0.414   3.015   4.880 -0.0300  0.6631  0.0977
19240TIP3    H179211   0.486   2.976   4.831  0.3509  2.2338 -0.6170
19240TIP3    H279212   0.455   3.057   4.955 -0.1962  1.5153 -0.2802
19241TIP3   OH279213   0.467   6.021  14.002 -0.2767  0.1096 -0.2653
19241TIP3    H179214   0.456   6.080  13.928 -0.0281 -0.3766 -0.6969
19241TIP3    H279215   0.454   6.076  14.079 -0.3359  0.6621 -0.6653
19242TIP3   OH279216   0.853   1.648  16.703  0.5579  0.2404 -0.0795
19242TIP3    H179217   0.845   1.740  16.679  1.3161 -0.0714 -1.5949
19242TIP3    H279218   0.763   1.614  16.701  0.4578  0.5537 -1.1766
19243TIP3   OH279219   3.877   5.175   5.016 -0.1014  0.1943 -0.5962
19243TIP3    H179220   3.877   5.080   5.020  0.5075  0.2752  1.8763
19243TIP3    H279221   3.968   5.200   5.033 -0.3048  1.2251 -0.9752
19244TIP3   OH279222   1.508   6.259  13.904  0.2397 -0.0874 -0.0286
19244TIP3    H179223   1.576   6.193  13.917  0.2556 -0.4068 -1.6003
19244TIP3    H279224   1.447   6.247  13.977  1.2293 -0.6066  0.7127
19245TIP3   OH279225   1.645   0.899   4.787 -0.0064  0.2142 -0.1094
19245TIP3    H179226   1.630   0.897   4.693 -0.4200 -0.8187 -0.0255
19245TIP3    H279227   1.738   0.919   4.796  0.5104 -1.8050 -0.7834
19246TIP3   OH279228   5.402   1.537   3.213 -0.3123  0.0530 -0.2247
19246TIP3    H179229   5.363   1.467   3.161 -2.7403  0.2574  1.2253
19246TIP3    H279230   5.405   1.612   3.154 -0.5351 -0.4538 -0.8890
19247TIP3   OH279231   2.306   1.525  10.963  0.3276  0.1425 -0.0258
19247TIP3    H179232   2.341   1.472  10.892 -0.7956  0.4285 -0.8014
19247TIP3    H279233   2.213   1.503  10.966  0.5420 -0.5998  2.0034
19248TIP3   OH279234   6.790   3.315  12.893 -0.3869 -0.1831  0.0287
19248TIP3    H179235   6.872   3.364  12.885 -0.9584  0.7524 -0.2027
19248TIP3    H279236   6.797   3.246  12.827 -0.8317  1.4207 -1.7479
19249TIP3   OH279237   1.615   5.634   5.543  0.1276 -0.0798  0.4171
19249TIP3    H179238   1.595   5.688   5.466 -1.0509 -1.5624 -0.3392
19249TIP3    H279239   1.582   5.685   5.617  1.0957  1.2704 -0.0507
19250TIP3   OH279240   4.156   6.572  12.980 -0.1156  0.1735  0.2686
19250TIP3    H179241   4.067   6.578  12.945 -0.8004  0.1171  1.9391
19250TIP3    H279242   4.203   6.519  12.916 -1.9310 -1.8940  0.5748
19251TIP3   OH279243   3.662   5.497  17.281  0.3367  0.0895  0.4552
19251TIP3    H179244   3.595   5.439  17.318  1.0621 -1.1425 -0.1266
19251TIP3    H279245   3.642   5.584  17.317 -1.8474 -0.1714 -0.0551
19252TIP3   OH279246   6.085   6.256  11.067 -0.2855  0.0380 -0.0157
19252TIP3    H179247   6.131   6.340  11.059  1.7775 -0.9255  1.1787
19252TIP3    H279248   6.124   6.216  11.145 -0.4819 -2.4962 -1.1929
19253TIP3   OH279249   3.896   6.744   4.744 -0.1606  0.1681 -0.4011
19253TIP3    H179250   3.828   6.735   4.678  0.0667 -0.8604 -0.4931
19253TIP3    H279251   3.972   6.700   4.707  0.8834  2.2211 -0.7409
19254TIP3   OH279252   3.268   6.522  17.193 -0.2809  0.0533  0.3670
19254TIP3    H179253   3.359   6.551  17.205 -0.6498  1.2444  0.3302
19254TIP3    H279254   3.261   6.503  17.100 -0.3777  1.0654  0.1612
19255TIP3   OH279255   6.696   2.213   2.417  0.4402 -0.0962  0.1362
19255TIP3    H179256   6.695   2.307   2.398 -1.5731 -0.2644 -0.6908
19255TIP3    H279257   6.614   2.197   2.462  1.0709 -1.3676  0.8490
19256TIP3   OH279258   2.671   2.635  10.430  0.3813 -0.5810 -0.0074
19256TIP3    H179259   2.629   2.627  10.515 -1.1942  0.7626 -0.6282
19256TIP3    H279260   2.747   2.691  10.446 -0.6484  0.7492  0.2803
19257TIP3   OH279261   6.363   1.897  11.195  0.4568 -0.1342 -0.1426
19257TIP3    H179262   6.348   1.804  11.181 -1.0335  0.1172 -0.2550
19257TIP3    H279263   6.446   1.915  11.150  0.0547 -1.1258 -1.3017
19258TIP3   OH279264   6.369   6.378   2.290  0.3072 -0.1437  0.2410
19258TIP3    H179265   6.391   6.295   2.248  1.8366  0.4337 -0.1119
19258TIP3    H279266   6.280   6.365   2.322  0.8488 -2.2485  1.0030
19259TIP3   OH279267   1.643   6.209  11.079 -0.4977  0.3130 -0.6805
19259TIP3    H179268   1.548   6.201  11.072 -0.7963  1.0627  1.9653
19259TIP3    H279269   1.659   6.303  11.088  0.4459  0.1421 -0.5227
19260TIP3   OH279270   3.891   0.847   1.712 -0.2679  0.3843  0.2378
19260TIP3    H179271   3.930   0.767   1.748 -0.6711 -0.4397 -1.1220
19260TIP3    H279272   3.959   0.883   1.656 -0.7404  0.0073 -0.5850
19261TIP3   OH279273   5.277   3.630   3.553 -0.4231 -0.1942 -0.8565
19261TIP3    H179274   5.261   3.575   3.629 -0.9514  1.0066 -0.0814
19261TIP3    H279275   5.216   3.598   3.486 -0.6235 -0.6342 -0.4620
19262TIP3   OH279276   3.538   2.745  12.772  0.0930  0.2539  0.2156
19262TIP3    H179277   3.543   2.747  12.677  0.9006  0.5829  0.2703
19262TIP3    H279278   3.589   2.820  12.801  0.2507 -0.1243  0.9275
19263TIP3   OH279279   1.483   1.516   4.655 -0.5990 -0.7553  0.4931
19263TIP3    H179280   1.407   1.535   4.600  0.4380  1.5283 -0.2278
19263TIP3    H279281   1.486   1.589   4.716  1.7310 -0.1529 -0.3034
19264TIP3   OH279282   5.310   6.029  14.228 -0.1340  0.4793  0.1617
19264TIP3    H179283   5.377   6.035  14.297 -0.9014 -2.1475  1.2097
19264TIP3    H279284   5.360   6.022  14.147  0.8991 -1.0874  0.9035
19265TIP3   OH279285   2.340   3.999   5.789  0.0715  0.0970  0.1536
19265TIP3    H179286   2.399   3.929   5.819  0.3538  0.7725  1.2077
19265TIP3    H279287   2.305   3.967   5.706  0.4653 -1.1474  0.4564
19266TIP3   OH279288   2.487   3.393  12.105  0.2024  0.2960  0.1700
19266TIP3    H179289   2.546   3.372  12.178 -1.0017 -1.1564  0.7461
19266TIP3    H279290   2.425   3.320  12.103 -0.5686  0.9850 -1.4887
19267TIP3   OH279291   5.396   5.866  16.353  0.4902  0.5909 -0.0409
19267TIP3    H179292   5.312   5.875  16.397  0.2564  0.4983 -0.4583
19267TIP3    H279293   5.451   5.934  16.392  1.1139 -1.2048  2.2803
19268TIP3   OH279294   4.405   2.173  17.037 -0.3954 -0.0095  0.0535
19268TIP3    H179295   4.454   2.203  17.113  1.4861  0.9108 -1.4604
19268TIP3    H279296   4.457   2.100  17.003 -0.9665 -0.1068 -0.6154
19269TIP3   OH279297   1.516   1.310  16.262  0.2834  0.0886 -0.5109
19269TIP3    H179298   1.436   1.363  16.263 -1.0919 -1.9277 -1.1738
19269TIP3    H279299   1.565   1.340  16.339 -0.7216  1.9025 -0.5390
19270TIP3   OH279300   4.740   4.128   5.858  0.3103  0.2828  0.0867
19270TIP3    H179301   4.815   4.168   5.901  1.1983 -0.4799 -0.7151
19270TIP3    H279302   4.674   4.118   5.926  0.7714  1.3901  0.6927
19271TIP3   OH279303   0.380   6.198   5.510  0.1417 -0.4407  0.3273
19271TIP3    H179304   0.304   6.240   5.468  1.1387  1.3196  0.2375
19271TIP3    H279305   0.419   6.145   5.441 -0.3622 -0.4777  0.0656
19272TIP3   OH279306   5.797   3.113   2.174  0.1342 -0.6370 -0.0613
19272TIP3    H179307   5.883   3.085   2.206  0.4630  0.4649  0.0640
19272TIP3    H279308   5.797   3.088   2.081  0.0062 -1.9571  0.2934
19273TIP3   OH279309   0.772   6.021  16.743 -0.5133 -0.1890  0.2132
19273TIP3    H179310   0.755   6.045  16.652 -0.0211 -1.2773 -0.1659
19273TIP3    H279311   0.830   5.945  16.738  1.8013  1.4097  1.4328
19274TIP3   OH279312   0.223   5.401   2.603  0.1323 -0.5586  0.4712
19274TIP3    H179313   0.294   5.462   2.582 -0.3125 -0.8284 -1.9646
19274TIP3    H279314   0.243   5.371   2.692  0.2818  3.1999  1.7812
19275TIP3   OH279315   6.071   6.087  13.682  0.0149  0.2643  0.3384
19275TIP3    H179316   6.133   6.148  13.641 -0.0162 -0.1916 -0.4008
19275TIP3    H279317   5.993   6.092  13.627  0.9010 -2.3531 -1.2953
19276TIP3   OH279318   5.437   0.387  11.465  0.3724  0.2065  0.3613
19276TIP3    H179319   5.471   0.390  11.376  0.1721  0.3751  0.2905
19276TIP3    H279320   5.454   0.474  11.500 -0.2603  0.3847  0.2243
19277TIP3   OH279321   4.726   5.587   2.418  0.8257  0.2951  0.1733
19277TIP3    H179322   4.766   5.540   2.345 -0.0998 -1.1649  0.6022
19277TIP3    H279323   4.756   5.541   2.496 -0.6882 -0.0488  0.5661
19278TIP3   OH279324   0.259   3.402  15.740  0.0620 -0.2473  0.6742
19278TIP3    H179325   0.317   3.339  15.783  0.1728  0.8621  2.1860
19278TIP3    H279326   0.272   3.484  15.788 -0.1283  0.9379 -1.2164
19279TIP3   OH279327   3.398   2.109  15.148 -0.0766  0.1622 -0.7635
19279TIP3    H179328   3.318   2.106  15.095  0.9452 -1.5267 -2.2411
19279TIP3    H279329   3.428   2.019  15.151  2.2686  0.9154 -0.9711
19280TIP3   OH279330   5.957   2.321  16.170 -0.1999  0.3399  0.2101
19280TIP3    H179331   5.907   2.402  16.176 -0.2176  0.4610 -1.4967
19280TIP3    H279332   5.904   2.263  16.115 -0.3304 -0.9598  1.6443
19281TIP3   OH279333   3.979   4.458   2.903 -0.5190  0.2560 -0.1382
19281TIP3    H179334   3.907   4.430   2.961  0.4055  1.9177  1.8549
19281TIP3    H279335   4.047   4.489   2.962  0.9671  0.8311 -2.0965
19282TIP3   OH279336   0.521   0.234  13.410  0.6291  0.0839  0.1384
19282TIP3    H179337   0.527   0.142  13.384 -0.2941 -0.2378  1.0349
19282TIP3    H279338   0.565   0.238  13.495  0.7940  0.4973  0.0328
19283TIP3   OH279339   3.378   1.249  16.359 -0.4923  0.5659  0.5081
19283TIP3    H179340   3.382   1.273  16.452  0.1344 -0.4022  0.7366
19283TIP3    H279341   3.360   1.155  16.359 -0.7587  0.6156 -0.3552
19284TIP3   OH279342   4.424   4.659  16.020 -0.6493  0.0489 -0.5238
19284TIP3    H179343   4.366   4.660  16.096 -1.0337 -0.9204 -0.7939
19284TIP3    H279344   4.366   4.679  15.946 -0.8702 -1.9963 -0.9326
19285TIP3   OH279345   3.639   4.841   3.253 -0.1208 -0.4207 -0.0394
19285TIP3    H179346   3.625   4.760   3.204 -0.9875 -0.6737  0.5923
19285TIP3    H279347   3.583   4.905   3.210  2.2891  0.4720 -1.9629
19286TIP3   OH279348   6.291   5.447  12.146 -0.5832 -0.5510 -0.3677
19286TIP3    H179349   6.227   5.441  12.218 -0.4227 -0.7873 -0.2457
19286TIP3    H279350   6.355   5.380  12.165 -0.4036 -0.4475 -0.6029
19287TIP3   OH279351   2.233   3.333  15.318  0.0910  0.2499  0.3857
19287TIP3    H179352   2.325   3.350  15.295 -0.1669 -0.2123 -1.0448
19287TIP3    H279353   2.189   3.416  15.302  0.4098  0.7208  1.9151
19288TIP3   OH279354   2.841   4.293   1.908 -0.4558  0.5777 -0.3848
19288TIP3    H179355   2.873   4.250   1.987  0.3264  3.1226  0.7289
19288TIP3    H279356   2.759   4.336   1.935  0.1858  2.0693 -0.7338
19289TIP3   OH279357   6.083   3.983  12.909 -0.0210 -0.0965  0.3037
19289TIP3    H179358   6.137   3.946  12.979  0.5518  0.1637  0.0041
19289TIP3    H279359   5.999   3.938  12.917 -0.0698  0.1672  1.3636
19290TIP3   OH279360   0.988   6.639  15.794 -0.3494 -0.0831 -0.2689
19290TIP3    H179361   0.932   6.692  15.737  0.2115 -1.3710 -2.0563
19290TIP3    H279362   0.947   6.645  15.881 -1.0512  2.1361 -0.7394
19291TIP3   OH279363   6.600   3.952  12.163  0.4449  0.0216 -0.1837
19291TIP3    H179364   6.574   3.862  12.144 -0.7774  0.0368  1.3540
19291TIP3    H279365   6.670   3.970  12.100  1.7895 -2.5371  0.4736
19292TIP3   OH279366   4.491   0.499   4.979 -0.1953 -0.7746 -0.2859
19292TIP3    H179367   4.432   0.575   4.988 -0.0559 -0.4856 -1.6898
19292TIP3    H279368   4.443   0.439   4.922  1.1570 -0.2173 -2.0518
19293TIP3   OH279369   6.692   0.144   1.643  0.3049 -0.0829  0.6155
19293TIP3    H179370   6.657   0.169   1.557  0.1380 -0.7194  0.4968
19293TIP3    H279371   6.770   0.199   1.654 -0.2803  0.7795  0.5329
19294TIP3   OH279372   0.939   3.219  13.036 -0.0876  0.2809 -0.3673
19294TIP3    H179373   0.915   3.304  13.073  0.2828  0.3555 -0.3023
19294TIP3    H279374   0.958   3.236  12.944  1.6352  0.5579  0.0379
19295TIP3   OH279375   2.608   1.206   4.676 -0.3175 -0.3981  0.3781
19295TIP3    H179376   2.669   1.221   4.604  0.7092 -0.2064  1.2602
19295TIP3    H279377   2.539   1.151   4.639 -2.2505  3.4025 -1.9787
19296TIP3   OH279378   0.446   0.711  12.580  0.4471  1.0452  0.7820
19296TIP3    H179379   0.384   0.649  12.618  0.9460  1.4425  2.3089
19296TIP3    H279380   0.395   0.762  12.518 -0.0629 -0.6164 -0.1890
19297TIP3   OH279381   5.950   1.065  12.411 -0.4215  0.0068 -0.7455
19297TIP3    H179382   5.942   1.153  12.375 -2.0583  0.0224 -0.3732
19297TIP3    H279383   6.008   1.075  12.487 -1.8766  1.0689  0.2559
19298TIP3   OH279384   2.381   2.710   5.003 -0.1411  0.4744  0.2944
19298TIP3    H179385   2.369   2.702   5.097 -0.1190  1.1260  0.3550
19298TIP3    H279386   2.450   2.776   4.993 -0.1558  0.4199 -0.1759
19299TIP3   OH279387   4.536   1.083   0.492  0.4447 -0.1291 -0.2745
19299TIP3    H179388   4.591   1.017   0.448  0.7679  0.4280 -0.7102
19299TIP3    H279389   4.511   1.041   0.574  1.4474 -0.4289 -0.1049
19300TIP3   OH279390   6.111   2.005  14.365  0.2499 -0.1604  0.6084
19300TIP3    H179391   6.067   1.922  14.385 -1.2245  0.0684 -1.4399
19300TIP3    H279392   6.167   1.984  14.290 -1.0101  0.9051 -0.6730
19301TIP3   OH279393   0.381   5.129  14.228  0.2329  0.3058  0.5229
19301TIP3    H179394   0.363   5.045  14.269  0.5729 -0.4061 -0.7603
19301TIP3    H279395   0.307   5.184  14.253 -0.9034 -0.9210 -0.1075
19302TIP3   OH279396   0.319   0.264   5.692 -0.6199  0.6142  0.0756
19302TIP3    H179397   0.371   0.338   5.723  0.0600 -0.2496  1.0509
19302TIP3    H279398   0.333   0.196   5.758 -1.9470 -0.0830 -0.3369
19303TIP3   OH279399   4.165   3.656   1.677 -0.5753  0.1088 -0.5090
19303TIP3    H179400   4.156   3.748   1.654  0.0997  0.4676  0.6512
19303TIP3    H279401   4.110   3.645   1.755  1.6364  0.2313  1.1324
19304TIP3   OH279402   0.586   4.725   5.641 -0.2897 -0.1655  0.9917
19304TIP3    H179403   0.616   4.657   5.701 -0.5468  0.5116  1.9047
19304TIP3    H279404   0.539   4.678   5.573  1.2253 -1.0680  0.5463
19305TIP3   OH279405   5.194   1.116  11.757 -0.0468 -0.3693  0.5954
19305TIP3    H179406   5.278   1.156  11.736 -0.4002  0.0128 -0.1204
19305TIP3    H279407   5.181   1.051  11.688 -0.7510  0.1966  0.1851
19306TIP3   OH279408   2.861   2.327   3.957 -0.1367  0.3657 -0.1579
19306TIP3    H179409   2.939   2.350   3.907 -0.1818  2.8346  0.8424
19306TIP3    H279410   2.841   2.405   4.008 -1.6059 -1.1983  1.7604
19307TIP3   OH279411   3.113   0.824  12.373 -0.5343 -0.1304  0.5044
19307TIP3    H179412   3.071   0.906  12.346 -0.3862  0.4914  2.0998
19307TIP3    H279413   3.201   0.850  12.401  1.1818 -1.5097 -3.3561
19308TIP3   OH279414   0.302   4.231   4.422 -0.3040  0.3000  0.1379
19308TIP3    H179415   0.376   4.170   4.414 -0.6682 -0.2181  0.6711
19308TIP3    H279416   0.323   4.302   4.362 -0.0513 -0.5354 -0.7820
19309TIP3   OH279417   0.091   3.326  14.051  0.1468 -0.5262 -0.1715
19309TIP3    H179418   0.033   3.257  14.084 -1.9548  0.1826 -2.2582
19309TIP3    H279419   0.139   3.284  13.979  0.4518 -0.4395 -0.0158
19310TIP3   OH279420   4.959   5.975  12.770 -0.5597  0.2094  0.4288
19310TIP3    H179421   4.904   5.951  12.845  1.3362  0.3869  1.9147
19310TIP3    H279422   4.922   5.926  12.696 -3.1036  0.8410  1.2422
19311TIP3   OH279423   5.767   4.625  16.281 -0.2474 -0.0051 -0.1278
19311TIP3    H179424   5.733   4.537  16.296 -0.9132  0.1918 -0.4798
19311TIP3    H279425   5.707   4.664  16.218 -1.0793  1.3899  1.4795
19312TIP3   OH279426   5.660   3.850  14.511  0.3203  0.0741 -0.1460
19312TIP3    H179427   5.664   3.907  14.587  0.5481  1.6173 -1.2726
19312TIP3    H279428   5.746   3.860  14.469 -0.5487  0.9809 -1.7863
19313TIP3   OH279429   3.059   2.224   1.614  0.5023  0.5250  0.5137
19313TIP3    H179430   3.152   2.248   1.609  0.1073  1.8188 -1.1127
19313TIP3    H279431   3.015   2.305   1.643 -0.2021  0.1319  0.5575
19314TIP3   OH279432   0.751   3.336   0.549 -0.3062  0.3630  0.0002
19314TIP3    H179433   0.719   3.250   0.577 -2.5991  0.4338 -2.2243
19314TIP3    H279434   0.828   3.317   0.495  0.0855 -0.1955  0.7536
19315TIP3   OH279435   3.290   0.025  15.058 -0.1128 -0.0257 -0.2683
19315TIP3    H179436   3.280   0.020  14.963 -0.0763 -0.2415 -0.2618
19315TIP3    H279437   3.366  -0.030  15.077 -0.6601 -0.7045 -0.0262
19316TIP3   OH279438   0.809   4.862  14.423  0.4105  0.5533  0.0535
19316TIP3    H179439   0.841   4.880  14.335 -0.1493  1.0351 -0.0561
19316TIP3    H279440   0.879   4.892  14.481  0.0262  1.9190 -0.1738
19317TIP3   OH279441   5.863   3.163  17.179 -0.3225 -0.0391  0.3422
19317TIP3    H179442   5.955   3.140  17.185 -0.5390 -0.9135  0.4319
19317TIP3    H279443   5.851   3.193  17.089  0.1846  0.7217  0.5213
19318TIP3   OH279444   5.027   4.942   1.430 -0.0919  0.3971  0.4382
19318TIP3    H179445   5.054   5.028   1.464  0.7639 -0.0235  0.8519
19318TIP3    H279446   5.035   4.951   1.335  3.6669 -0.3447  0.5779
19319TIP3   OH279447   3.111   4.762  14.964 -0.0533  0.3028 -0.5838
19319TIP3    H179448   3.154   4.676  14.964 -1.5028 -0.4963  2.3073
19319TIP3    H279449   3.022   4.745  14.935 -0.3007  0.8552 -0.1581
19320TIP3   OH279450   3.998   4.723   1.811  0.0937 -0.3348 -0.3397
19320TIP3    H179451   3.947   4.698   1.888 -0.1060 -0.8289 -0.6345
19320TIP3    H279452   4.070   4.661   1.808 -0.5459 -1.0436 -1.2168
19321TIP3   OH279453   2.133   3.590   4.020  0.1620 -0.3802 -0.4622
19321TIP3    H179454   2.143   3.660   4.085  0.3057  0.0602 -0.9561
19321TIP3    H279455   2.215   3.592   3.970  0.0981 -0.7917 -0.5878
19322TIP3   OH279456   2.778   6.257   0.908  0.2611 -0.8935 -0.5165
19322TIP3    H179457   2.821   6.172   0.898 -0.8534 -1.3929 -1.1465
19322TIP3    H279458   2.686   6.241   0.886  0.0422  0.4824 -0.6907
19323TIP3   OH279459   0.509   4.801  13.893  0.2787  0.2036  0.2459
19323TIP3    H179460   0.549   4.805  13.806  0.3292  0.2624  0.2721
19323TIP3    H279461   0.581   4.777  13.951  0.0412 -0.7736  0.1436
19324TIP3   OH279462   4.653   4.124  12.118 -0.3783  0.1348 -0.6656
19324TIP3    H179463   4.688   4.046  12.076  0.9419  0.7512 -0.7471
19324TIP3    H279464   4.730   4.168  12.155 -0.9555  1.9647 -1.5963
19325TIP3   OH279465   5.268   5.521  11.119 -0.4193 -0.1153 -0.1082
19325TIP3    H179466   5.285   5.590  11.184 -0.9511 -0.4567  0.3933
19325TIP3    H279467   5.271   5.567  11.035  1.1471  0.1735  0.0838
19326TIP3   OH279468   2.592   1.708   4.108 -0.2489  0.3072 -0.1811
19326TIP3    H179469   2.503   1.742   4.116 -0.6628 -0.4494 -1.5727
19326TIP3    H279470   2.641   1.779   4.065 -0.9219 -0.5008 -2.3258
19327TIP3   OH279471   2.269   1.907  14.682 -0.2161 -0.2343  0.0057
19327TIP3    H179472   2.343   1.876  14.734 -0.4191  1.4081  1.3002
19327TIP3    H279473   2.306   1.924  14.595  0.0883 -3.1395 -0.4890
19328TIP3   OH279474   3.141   1.803   0.346  0.1324 -0.0977 -0.4981
19328TIP3    H179475   3.128   1.725   0.293  2.0384  0.5505 -1.9878
19328TIP3    H279476   3.097   1.873   0.297  1.4590  0.4055 -1.0070
19329TIP3   OH279477   2.931   5.158  15.229  0.0271 -0.4217 -0.0426
19329TIP3    H179478   3.013   5.205  15.247  0.6530 -2.2157  2.0340
19329TIP3    H279479   2.943   5.073  15.271 -1.1291 -2.4371 -3.5451
19330TIP3   OH279480   0.969   3.209   1.730  0.3339 -0.1927 -0.0875
19330TIP3    H179481   1.042   3.192   1.789  0.8532  1.3417 -0.2733
19330TIP3    H279482   0.897   3.235   1.787  0.8116  1.2088 -0.1155
19331TIP3   OH279483   4.586   3.750   1.151 -0.5185 -0.3936  0.0908
19331TIP3    H179484   4.635   3.740   1.070 -0.4148 -0.7939  0.2017
19331TIP3    H279485   4.494   3.739   1.124 -0.4325 -1.2951  0.1485
19332TIP3   OH279486   0.982   6.360  15.809 -0.1938  0.5224  0.0475
19332TIP3    H179487   1.016   6.446  15.782  0.4503  0.1208 -0.4396
19332TIP3    H279488   1.044   6.331  15.875 -0.2112  0.2777 -0.0442
19333TIP3   OH279489   4.032   6.335   1.808  0.2984  0.2635  0.1240
19333TIP3    H179490   3.988   6.332   1.723  0.4990  1.3704 -0.0229
19333TIP3    H279491   3.962   6.352   1.871  0.3574  0.9512  0.0085
19334TIP3   OH279492   1.560   1.196  11.687  0.7393 -0.1722 -0.0447
19334TIP3    H179493   1.614   1.117  11.684  1.8031  0.5683 -0.5692
19334TIP3    H279494   1.508   1.192  11.606  0.4832 -0.5421  0.1350
19335TIP3   OH279495   0.772   4.228  17.061  0.1816  0.0243  0.3677
19335TIP3    H179496   0.733   4.186  16.985 -1.7549  1.2840  0.6103
19335TIP3    H279497   0.860   4.252  17.034 -0.3939  0.1970 -1.3773
19336TIP3   OH279498   6.268   5.972  11.276 -0.2323  0.0760  0.0300
19336TIP3    H179499   6.172   5.966  11.272 -0.2661 -0.1912  1.1127
19336TIP3    H279500   6.296   5.969  11.185 -1.3179  1.1636 -0.3512
19337TIP3   OH279501   6.268   0.784   4.713  0.4080 -0.1480 -0.1888
19337TIP3    H179502   6.293   0.776   4.805  0.8066 -0.3333 -0.3124
19337TIP3    H279503   6.351   0.783   4.665  0.1032 -2.1769 -0.7094
19338TIP3   OH279504   6.442   0.129   0.638 -0.2537 -0.4549 -0.6740
19338TIP3    H179505   6.453   0.068   0.711 -0.3272 -0.4737 -0.6791
19338TIP3    H279506   6.435   0.215   0.680  0.8982 -0.3331 -0.7223
19339TIP3   OH279507   2.244   0.119   3.496 -0.2116 -0.0416  0.2705
19339TIP3    H179508   2.338   0.131   3.484 -0.0280 -1.2753  0.4510
19339TIP3    H279509   2.236   0.080   3.583 -0.9193  0.4012  0.4066
19340TIP3   OH279510   1.998   6.800   4.200 -0.5802  0.1001  0.0897
19340TIP3    H179511   1.990   6.705   4.208 -0.1493  0.1999  1.9334
19340TIP3    H279512   1.915   6.835   4.233 -0.0032  0.4184  1.2433
19341TIP3   OH279513   4.333   3.492   1.066  0.4033 -0.3124 -0.3237
19341TIP3    H179514   4.255   3.472   1.013  0.8975  0.2477 -1.2740
19341TIP3    H279515   4.329   3.587   1.078 -0.8003 -0.6534  2.3906
19342TIP3   OH279516   1.498   3.804   1.834  0.6436  0.4584 -0.4299
19342TIP3    H179517   1.589   3.835   1.840  1.8595 -2.7258 -1.1964
19342TIP3    H279518   1.486   3.786   1.741 -0.2760 -0.5229 -0.1236
19343TIP3   OH279519   3.016   4.406  15.179 -0.0946  0.2758  0.3835
19343TIP3    H179520   2.926   4.410  15.212 -0.7623 -2.9653 -0.8212
19343TIP3    H279521   3.054   4.329  15.222  1.8425  1.0729  0.1808
19344TIP3   OH279522   3.721   1.510  17.023  0.0291 -0.4906  0.2530
19344TIP3    H179523   3.692   1.476  17.107  0.4750  1.9815  1.4177
19344TIP3    H279524   3.745   1.601  17.039  1.5017 -0.3711 -2.2343
19345TIP3   OH279525   1.263   0.741   0.104 -0.1905 -0.1304 -0.1703
19345TIP3    H179526   1.193   0.678   0.119  0.7475 -1.1839 -0.2006
19345TIP3    H279527   1.233   0.792   0.028 -2.0297  1.0472  1.2830
19346TIP3   OH279528   5.214   0.262  10.998  0.5216  0.5327  0.1143
19346TIP3    H179529   5.220   0.352  11.029  0.2902  0.3560  0.6768
19346TIP3    H279530   5.126   0.256  10.959  1.2216  1.0735 -1.6175
19347TIP3   OH279531   5.736   2.145  16.070  0.4116  0.0059  1.0018
19347TIP3    H179532   5.649   2.108  16.086  0.9531 -1.3763  0.8032
19347TIP3    H279533   5.721   2.213  16.005 -0.6110  0.2001  1.4234
19348TIP3   OH279534   3.580   3.224  15.349  0.2558  0.2799 -0.1540
19348TIP3    H179535   3.500   3.261  15.387 -0.0261 -0.1651 -0.3035
19348TIP3    H279536   3.567   3.129  15.355  1.1941  0.1950  0.6987
19349TIP3   OH279537   5.786   1.654   4.264  0.1987 -0.2290 -0.5200
19349TIP3    H179538   5.805   1.668   4.357 -0.0250 -2.3252 -0.1223
19349TIP3    H279539   5.708   1.706   4.247 -0.4931 -0.8056  0.7983
19350TIP3   OH279540   5.404   2.313  15.400  0.0680 -0.7599  0.8003
19350TIP3    H179541   5.385   2.407  15.404 -2.0272 -1.1374  0.2114
19350TIP3    H279542   5.401   2.291  15.307  0.7829 -1.3751  0.9139
19351TIP3   OH279543   1.091   2.710   6.305  0.0060  0.0244  0.2255
19351TIP3    H179544   1.176   2.685   6.340  0.9440 -0.2955 -2.1889
19351TIP3    H279545   1.087   2.805   6.317  0.8684  0.0915 -0.0208
19352TIP3   OH279546   0.531   2.267  11.553 -0.1771 -0.6957  0.4880
19352TIP3    H179547   0.560   2.251  11.464 -1.0835  0.0574  0.0458
19352TIP3    H279548   0.598   2.227  11.608  1.9261  1.3626 -0.4888
19353TIP3   OH279549   6.478   2.660  14.569  1.0069 -0.0381 -0.0630
19353TIP3    H179550   6.518   2.584  14.611  0.4842 -0.6850 -0.7130
19353TIP3    H279551   6.546   2.695  14.512  0.6613 -1.1473 -1.1837
19354TIP3   OH279552   2.671   3.281   4.012 -0.1938  0.0025  0.6050
19354TIP3    H179553   2.678   3.366   4.055  2.1342 -0.3143  0.9301
19354TIP3    H279554   2.605   3.233   4.063 -0.9454  1.3082  0.8814
19355TIP3   OH279555   5.016   6.316   1.644 -0.0975 -0.0296  0.3795
19355TIP3    H179556   5.033   6.230   1.681  0.9009 -0.3349 -0.7559
19355TIP3    H279557   4.930   6.308   1.603 -0.3235 -0.2688  0.8964
19356TIP3   OH279558   3.174   3.218   4.796  0.6569 -0.3773  0.4722
19356TIP3    H179559   3.159   3.276   4.721 -0.3691 -0.9643  0.2186
19356TIP3    H279560   3.182   3.277   4.871 -0.7208  0.0683  0.2681
19357TIP3   OH279561   5.168   5.915   5.776  0.1100 -0.1479  0.2121
19357TIP3    H179562   5.259   5.930   5.753  0.2538 -0.8090  0.3417
19357TIP3    H279563   5.143   5.991   5.829 -0.2541  1.4741 -2.1902
19358TIP3   OH279564   4.310   0.105   1.657  0.2039  0.0366  0.3574
19358TIP3    H179565   4.315   0.132   1.566  0.8640  3.6740  1.4028
19358TIP3    H279566   4.346   0.016   1.658  2.8481  1.0074 -2.4875
19359TIP3   OH279567   3.073   1.541   2.469  0.0414 -0.0940 -0.0741
19359TIP3    H179568   3.042   1.586   2.548  1.1754  0.3789  0.1109
19359TIP3    H279569   3.150   1.491   2.499 -0.7334 -1.5421 -0.4416
19360TIP3   OH279570   4.015   5.089  15.202 -0.2322 -0.1604 -0.0312
19360TIP3    H179571   3.987   5.145  15.275  0.5299  0.0655  0.0843
19360TIP3    H279572   4.091   5.132  15.165  0.4951 -1.2262  0.1882
19361TIP3   OH279573   3.705   0.842   3.248 -0.1427  0.0979 -0.0177
19361TIP3    H179574   3.766   0.769   3.233  0.9763  1.2329 -1.0228
19361TIP3    H279575   3.620   0.799   3.260  0.3632 -1.3346 -1.3859
19362TIP3   OH279576   2.440   0.005  13.445 -0.0723  0.5135 -0.8999
19362TIP3    H179577   2.359   0.013  13.395 -0.4830 -1.3875 -0.5669
19362TIP3    H279578   2.433   0.073  13.512 -1.9022 -0.3632 -0.1723
19363TIP3   OH279579   1.201   1.726  16.409  0.2942 -0.7319 -0.0694
19363TIP3    H179580   1.259   1.787  16.455 -0.9326 -0.4788  1.1770
19363TIP3    H279581   1.159   1.779  16.342  1.7736 -1.0047 -1.2447
19364TIP3   OH279582   4.177   2.511   0.185 -0.0589 -0.4898 -0.3303
19364TIP3    H179583   4.230   2.591   0.177 -2.3315  1.0212 -0.8681
19364TIP3    H279584   4.168   2.497   0.279 -1.9565  1.5297 -0.1657
19365TIP3   OH279585   3.932   0.711   3.600  0.3104  0.4085 -0.5074
19365TIP3    H179586   3.930   0.684   3.508 -2.0720  0.0932 -0.3838
19365TIP3    H279587   3.981   0.793   3.600 -0.6416  1.0015 -2.2131
19366TIP3   OH279588   3.741   3.749  12.274 -0.2687 -0.0017  0.0922
19366TIP3    H179589   3.724   3.712  12.187 -1.5932  0.7588  0.0081
19366TIP3    H279590   3.672   3.814  12.286 -1.8439 -2.0883  2.8901
19367TIP3   OH279591   1.617   3.178   1.429  0.4563  0.3597 -0.1980
19367TIP3    H179592   1.526   3.186   1.459  0.9464  0.0174  1.4239
19367TIP3    H279593   1.662   3.136   1.501  2.3326  2.2811 -0.2228
19368TIP3   OH279594   0.002   4.284  10.375  0.5024 -0.2822  0.1519
19368TIP3    H179595  -0.065   4.282  10.306 -1.8964  1.0129  2.3525
19368TIP3    H279596  -0.021   4.211  10.433  1.2842 -0.0902  0.7115
19369TIP3   OH279597   6.129   1.509   5.963 -0.2673 -0.5759 -0.3939
19369TIP3    H179598   6.212   1.554   5.978  0.8588 -2.2364 -1.3917
19369TIP3    H279599   6.086   1.509   6.048 -1.0091  3.6491 -0.6606
19370TIP3   OH279600   2.356   1.291   2.283 -0.2893  0.3532 -0.7850
19370TIP3    H179601   2.305   1.291   2.364  1.2355  0.1252  0.1881
19370TIP3    H279602   2.447   1.283   2.312  0.2624  0.1993 -2.5243
19371TIP3   OH279603   0.175   1.340   0.422 -0.2549  0.8123  0.1337
19371TIP3    H179604   0.214   1.413   0.372  0.8483 -0.2782 -0.6204
19371TIP3    H279605   0.133   1.286   0.355 -2.1782  1.3895  0.8245
19372TIP3   OH279606   5.588   5.072  16.789 -0.4658  0.1437 -0.3254
19372TIP3    H179607   5.500   5.110  16.795 -0.9813 -1.2063  0.9665
19372TIP3    H279608   5.593   5.039  16.700 -1.7007 -0.7453 -0.0839
19373TIP3   OH279609   3.115   2.164  12.687 -0.0242 -0.3589 -0.1660
19373TIP3    H179610   3.198   2.198  12.720 -0.1312 -0.9735  0.7331
19373TIP3    H279611   3.135   2.135  12.598  0.7249 -0.5330  0.0624
19374TIP3   OH279612   2.665   0.660   2.223  0.0808 -0.1226  0.0264
19374TIP3    H179613   2.596   0.594   2.219  0.1523 -0.3173  1.6852
19374TIP3    H279614   2.744   0.614   2.196 -0.0462 -0.4558  0.2249
19375TIP3   OH279615   1.074   5.514   1.416 -0.0809 -0.1235 -0.6244
19375TIP3    H179616   1.051   5.597   1.457 -0.0402 -0.6108  0.4136
19375TIP3    H279617   1.007   5.500   1.350  0.5703  1.2878 -1.5946
19376TIP3   OH279618   6.017   1.383  12.351 -0.6149 -0.2024  0.3969
19376TIP3    H179619   6.050   1.442  12.283 -0.6617 -0.7362 -0.0916
19376TIP3    H279620   6.087   1.382  12.417  0.2453 -1.1025 -0.5035
19377TIP3   OH279621   1.489   5.348   1.574 -0.4606 -0.1369  0.5586
19377TIP3    H179622   1.460   5.265   1.536 -0.3384 -0.0202  0.2008
19377TIP3    H279623   1.503   5.405   1.498 -1.1314  0.4045  0.8232
19378TIP3   OH279624   5.310   4.550   3.835  0.4484 -0.0119  0.0621
19378TIP3    H179625   5.342   4.627   3.787 -0.5687  0.1720 -0.3449
19378TIP3    H279626   5.388   4.510   3.871  0.9362  1.6549  0.9246
19379TIP3   OH279627   0.791   4.303   1.648 -0.8044  0.3662  0.8698
19379TIP3    H179628   0.794   4.325   1.741  0.2868 -0.0305  0.9383
19379TIP3    H279629   0.813   4.384   1.603  0.2416  0.1665  1.0160
19380TIP3   OH279630   6.280   5.085   5.247 -0.5024  0.0993 -0.0884
19380TIP3    H179631   6.365   5.113   5.281 -0.1805  0.8924 -1.5126
19380TIP3    H279632   6.222   5.090   5.323  0.3080  1.3611  0.4731
19381TIP3   OH279633   5.434   3.058  15.827  0.3781 -0.5435 -0.1111
19381TIP3    H179634   5.494   3.098  15.765 -0.0437 -2.3983 -1.7449
19381TIP3    H279635   5.419   2.970  15.794 -1.7405 -0.7686  1.3156
19382TIP3   OH279636   1.496   3.139   5.316  0.1774 -0.1774  0.2129
19382TIP3    H179637   1.412   3.184   5.309  0.0457 -0.4985 -0.2742
19382TIP3    H279638   1.479   3.052   5.281  1.0212  0.1565 -1.0501
19383TIP3   OH279639   0.512   2.983  11.394 -0.9457 -0.3755  0.7126
19383TIP3    H179640   0.477   2.913  11.450 -0.5184 -0.4167  0.9269
19383TIP3    H279641   0.599   2.953  11.369 -1.0953 -0.3095  0.1051
19384TIP3   OH279642   3.969   2.118  12.963 -0.2409 -0.1850 -0.3330
19384TIP3    H179643   4.049   2.129  12.910 -0.4136 -0.5610 -0.6752
19384TIP3    H279644   3.996   2.140  13.052  0.2029 -0.1429 -0.4768
19385TIP3   OH279645   5.940   3.130  16.904  0.3093  1.0100  0.3393
19385TIP3    H179646   6.035   3.131  16.909  0.3320 -1.2645  1.2059
19385TIP3    H279647   5.919   3.152  16.813  1.8193 -1.8541 -0.7584
19386TIP3   OH279648   5.859   6.774   1.524 -0.2513  0.0309 -0.1129
19386TIP3    H179649   5.948   6.784   1.557  0.8110  2.3731 -3.4960
19386TIP3    H279650   5.809   6.841   1.571  0.6283  1.4039 -1.1270
19387TIP3   OH279651   0.648   6.251  12.464  0.2442  0.0919 -0.5205
19387TIP3    H179652   0.659   6.170  12.415 -2.1248 -0.6545  0.1461
19387TIP3    H279653   0.664   6.226  12.555  0.1546  0.5148 -0.3871
19388TIP3   OH279654   3.003   3.238  11.881  0.8014  0.2119  0.2129
19388TIP3    H179655   2.982   3.152  11.845 -1.4682 -0.0704  2.0465
19388TIP3    H279656   2.979   3.300  11.812  0.7880 -0.5220 -0.4496
19389TIP3   OH279657   6.661   4.962  16.433  0.7289  0.3737 -0.2309
19389TIP3    H179658   6.591   5.021  16.404 -0.7086 -0.6397  1.0935
19389TIP3    H279659   6.647   4.882  16.381  1.1156  0.2951 -0.2086
19390TIP3   OH279660   2.937   6.298   1.395 -0.4057 -0.0516 -0.1864
19390TIP3    H179661   2.905   6.222   1.346 -3.3373  0.2557  1.1204
19390TIP3    H279662   2.953   6.265   1.483  2.3743 -0.0440 -0.6632
19391TIP3   OH279663   0.407   2.664  15.545  0.2534  0.4776 -0.5665
19391TIP3    H179664   0.417   2.724  15.471 -0.6399 -1.1152 -2.0021
19391TIP3    H279665   0.313   2.662  15.561  0.3500  0.0309 -0.0431
19392TIP3   OH279666   4.198   2.654  12.686  1.1479  0.2218  0.5204
19392TIP3    H179667   4.143   2.598  12.741  0.1960  0.6313 -0.0111
19392TIP3    H279668   4.169   2.743  12.705  0.3131  0.3247 -1.1834
19393TIP3   OH279669   2.363   5.625   0.403 -0.8964  0.6028  0.3288
19393TIP3    H179670   2.419   5.551   0.377 -1.0228 -0.5550  3.1603
19393TIP3    H279671   2.317   5.650   0.323  1.9672  0.0881 -1.5516
19394TIP3   OH279672   1.968   0.018  13.944 -0.0489 -0.4154  0.1607
19394TIP3    H179673   1.975   0.084  14.013  0.1896  0.6780 -0.9026
19394TIP3    H279674   1.945  -0.063  13.991  1.0684  0.0874  1.6369
19395TIP3   OH279675   3.999   2.891  14.224 -0.1611 -0.4814 -0.1589
19395TIP3    H179676   3.968   2.976  14.191  1.2137  0.8380  1.8530
19395TIP3    H279677   3.975   2.829  14.155 -0.3085  1.6806 -2.1206
19396TIP3   OH279678   6.501   5.033  11.779  0.6673 -0.5059  0.3888
19396TIP3    H179679   6.491   5.076  11.694 -0.5260 -2.3617 -0.4656
19396TIP3    H279680   6.443   5.081  11.838  0.3323 -0.1501 -0.2306
19397TIP3   OH279681   1.194   4.888   2.584  0.1361 -0.1948  0.2377
19397TIP3    H179682   1.271   4.853   2.538 -0.2716 -0.6747 -0.0826
19397TIP3    H279683   1.129   4.900   2.516  0.2654  1.1841  0.3580
19398TIP3   OH279684   6.622   4.523  13.128 -0.0426 -0.2667  0.2095
19398TIP3    H179685   6.676   4.462  13.179  0.7841  0.3353  0.0700
19398TIP3    H279686   6.590   4.586  13.193 -0.8028 -0.7818  0.3352
19399TIP3   OH279687   0.043   0.283  13.526  0.2387  0.2167  0.1514
19399TIP3    H179688   0.134   0.314  13.532  0.3562 -0.4260  2.4127
19399TIP3    H279689   0.007   0.300  13.613 -1.6891  0.0787 -0.6051
19400TIP3   OH279690   4.650   3.076  13.767 -0.9891 -0.2472  0.0502
19400TIP3    H179691   4.624   2.992  13.804  1.2652 -1.1156 -0.2566
19400TIP3    H279692   4.677   3.129  13.842  0.6375 -0.9288 -0.0409
19401TIP3   OH279693   4.836   2.542   1.152  0.4521 -0.5847 -0.4375
19401TIP3    H179694   4.913   2.490   1.175  0.4048 -0.1860  0.6329
19401TIP3    H279695   4.829   2.608   1.221  0.5282  0.8912 -1.7961
19402TIP3   OH279696   2.588   2.635  13.714 -0.6840  0.0284  0.1753
19402TIP3    H179697   2.544   2.718  13.697 -0.9662 -0.1213  0.1681
19402TIP3    H279698   2.517   2.571  13.722 -0.5535  0.0568  1.7122
19403TIP3   OH279699   1.009   2.107   1.051 -0.7094  0.8402 -0.5885
19403TIP3    H179700   0.945   2.153   1.104 -0.8433  1.5714 -1.3739
19403TIP3    H279701   0.960   2.074   0.976 -0.6173 -0.6016 -0.0224
19404TIP3   OH279702   4.991   1.065  10.974  0.3638  0.3878  0.4266
19404TIP3    H179703   4.998   1.144  10.921  2.3586  0.3781  0.6337
19404TIP3    H279704   5.054   1.078  11.045  1.6730 -1.9322 -0.2618
19405TIP3   OH279705   4.024   6.103   2.115  0.4303 -0.5731  0.5342
19405TIP3    H179706   3.940   6.102   2.070  0.5071  0.8837  0.3482
19405TIP3    H279707   4.033   6.192   2.148  2.1131 -0.5747  0.1501
19406TIP3   OH279708   1.857   0.409  12.978  0.3466  0.2532 -0.0158
19406TIP3    H179709   1.897   0.468  12.914  0.4152  0.4929  0.2454
19406TIP3    H279710   1.863   0.457  13.061 -0.8522  0.4788 -0.0400
19407TIP3   OH279711   5.797   5.088   4.046 -0.5183  0.0954 -0.5642
19407TIP3    H179712   5.844   5.082   4.130 -0.9064 -0.7944 -0.4141
19407TIP3    H279713   5.728   5.153   4.062  0.2471  0.9317 -0.5970
19408TIP3   OH279714   6.536   6.315   5.633 -0.3107 -0.0204 -0.0076
19408TIP3    H179715   6.441   6.306   5.638 -0.2952 -0.5017 -0.5176
19408TIP3    H279716   6.557   6.300   5.540  0.5233 -2.7459  0.5675
19409TIP3   OH279717   1.975   3.091   0.857 -0.0946  0.1973 -0.2233
19409TIP3    H179718   2.063   3.112   0.826  0.0400 -2.2604 -1.6227
19409TIP3    H279719   1.917   3.123   0.789 -0.1156 -0.5323 -0.5512
19410TIP3   OH279720   2.946   5.754  13.840  0.1074 -0.2063 -0.4632
19410TIP3    H179721   3.003   5.681  13.816 -0.7374 -1.1623  0.3616
19410TIP3    H279722   2.983   5.788  13.921  0.4200  0.1854 -0.7730
19411TIP3   OH279723   5.956   2.094  16.873  0.4286  0.4194 -0.0508
19411TIP3    H179724   5.883   2.046  16.834  1.1734 -0.3985 -0.4237
19411TIP3    H279725   5.976   2.162  16.809  0.5553  0.1162 -0.3318
19412TIP3   OH279726   6.089   3.728  11.491  0.2682 -0.3549  0.4061
19412TIP3    H179727   6.054   3.640  11.502  0.6819 -0.7557 -1.4223
19412TIP3    H279728   6.180   3.722  11.519  0.6334 -0.7890 -0.8753
19413TIP3   OH279729   1.450   5.852   3.529 -0.6524 -0.4179 -0.1730
19413TIP3    H179730   1.357   5.832   3.541 -0.3862 -0.6023  1.8052
19413TIP3    H279731   1.495   5.775   3.564  0.2592  0.1430 -0.0950
19414TIP3   OH279732   5.146   4.958   2.181 -0.4198  0.1880  0.8032
19414TIP3    H179733   5.191   5.042   2.185  0.5467 -0.2668 -0.1308
19414TIP3    H279734   5.161   4.918   2.266 -0.0032  0.5221  0.8847
19415TIP3   OH279735   4.510   4.131   2.531 -0.0835  0.2952  0.8366
19415TIP3    H179736   4.510   4.051   2.583  1.8989  0.7981  1.6604
19415TIP3    H279737   4.423   4.134   2.491 -0.7946 -1.3393  2.2126
19416TIP3   OH279738   2.534   2.543   5.618  0.1388  0.3531  0.6034
19416TIP3    H179739   2.561   2.454   5.595  0.9610  0.6834  0.2850
19416TIP3    H279740   2.511   2.537   5.711 -1.2734 -0.5269  0.2138
19417TIP3   OH279741   0.855   0.966   6.035  0.6438  0.0641  0.2572
19417TIP3    H179742   0.925   0.916   6.076  0.1185 -1.4192 -0.6232
19417TIP3    H279743   0.791   0.981   6.104  1.1634  0.1824  0.7095
19418TIP3   OH279744   0.071   5.211  11.836  0.5772 -0.2605 -0.5925
19418TIP3    H179745   0.048   5.302  11.855 -1.2755 -0.7605 -0.3017
19418TIP3    H279746   0.110   5.213  11.749  0.9724  0.8864 -0.3846
19419TIP3   OH279747   2.494   0.053  15.475 -0.1510  0.3868 -0.5657
19419TIP3    H179748   2.574   0.102  15.454  0.7749 -0.5831  0.5562
19419TIP3    H279749   2.526  -0.033  15.502 -1.5432  0.1729  0.4625
19420TIP3   OH279750   4.279   0.992  12.129  1.0351 -0.3644  0.3745
19420TIP3    H179751   4.275   1.066  12.190 -0.6962 -1.3634  1.5191
19420TIP3    H279752   4.333   1.024  12.057  0.8477  1.8034  1.1415
19421TIP3   OH279753   5.803   3.821  16.492 -0.5846 -0.1468 -0.4964
19421TIP3    H179754   5.744   3.895  16.479 -1.1449 -0.3251  1.0650
19421TIP3    H279755   5.879   3.859  16.536  0.2473 -0.0309 -1.9775
19422TIP3   OH279756   5.493   1.538  10.811  0.3394  0.3309 -0.1648
19422TIP3    H179757   5.487   1.634  10.812  0.5236  0.3401  0.5042
19422TIP3    H279758   5.403   1.508  10.805  0.1318  0.5294  1.7856
19423TIP3   OH279759   4.903   6.329  14.942 -0.9489  0.0427  0.2596
19423TIP3    H179760   4.992   6.364  14.932 -1.2231  0.3611 -1.2916
19423TIP3    H279761   4.907   6.275  15.021  1.0417 -1.2117 -0.6472
19424TIP3   OH279762   0.602   6.560  16.378 -0.5777  0.2184 -0.2238
19424TIP3    H179763   0.653   6.522  16.450  0.3853  2.1989  0.1931
19424TIP3    H279764   0.513   6.527  16.392 -0.1594 -0.3522  1.2097
19425TIP3   OH279765   3.883   4.245   5.949  0.6489 -0.5171 -0.0771
19425TIP3    H179766   3.806   4.237   6.006  0.2979 -1.7435 -0.7275
19425TIP3    H279767   3.880   4.169   5.892  1.9887 -0.2280 -0.5616
19426TIP3   OH279768   0.267   5.104   3.640 -0.0778 -0.3285 -0.0212
19426TIP3    H179769   0.324   5.061   3.704  0.4807  0.6890  0.1795
19426TIP3    H279770   0.327   5.152   3.583 -0.7145  0.5320  0.0210
19427TIP3   OH279771   6.524   4.652   5.025 -0.3534 -0.4954 -0.3137
19427TIP3    H179772   6.546   4.737   4.987  0.0341 -0.2026  0.5488
19427TIP3    H279773   6.451   4.670   5.084 -0.0417 -0.6965  0.1392
19428TIP3   OH279774   4.264   3.145  13.783 -0.3674  0.1331 -0.1233
19428TIP3    H179775   4.290   3.201  13.857  2.4386 -0.5354 -0.5632
19428TIP3    H279776   4.209   3.077  13.823 -1.1064  1.3335  0.9206
19429TIP3   OH279777   1.956   0.775   2.205  0.2052  0.0598 -0.2242
19429TIP3    H179778   1.939   0.860   2.164  2.3200  0.8008  0.3398
19429TIP3    H279779   1.991   0.798   2.292 -0.4361 -1.4161  0.4367
19430TIP3   OH279780   0.467   3.592  15.238  0.1711  0.1371  0.1895
19430TIP3    H179781   0.478   3.557  15.150 -0.4835 -0.9695  0.5368
19430TIP3    H279782   0.551   3.631  15.260  1.5638 -2.9949  0.5786
19431TIP3   OH279783   5.371   4.251   2.396  0.1173  0.6396 -0.1483
19431TIP3    H179784   5.286   4.264   2.354 -0.2141 -0.7872  0.0692
19431TIP3    H279785   5.353   4.195   2.471  0.9053  2.2191  1.2574
19432TIP3   OH279786   4.223   2.028  10.401 -0.4562  0.4221 -0.6251
19432TIP3    H179787   4.216   2.022  10.497  1.4818  1.2481 -0.4062
19432TIP3    H279788   4.199   1.941  10.370  1.6141 -0.7020  0.8069
19433TIP3   OH279789   5.299   1.132  12.722  0.4781  0.0253 -0.1441
19433TIP3    H179790   5.234   1.157  12.656  0.8725  1.4901 -0.0019
19433TIP3    H279791   5.323   1.042  12.698  0.3966  0.4206 -1.8314
19434TIP3   OH279792   6.542   4.643  16.321 -0.1925  0.5660 -0.1134
19434TIP3    H179793   6.530   4.569  16.261  0.3407  0.6114 -0.2816
19434TIP3    H279794   6.474   4.632  16.387  1.4051 -1.4447  1.2433
19435TIP3   OH279795   2.813   4.943  11.868 -0.2540 -0.3042 -0.0928
19435TIP3    H179796   2.885   4.995  11.902  0.5073 -0.1717 -1.8329
19435TIP3    H279797   2.855   4.873  11.818 -1.2983 -1.5746  0.7833
19436TIP3   OH279798   3.389   5.410  12.410 -0.5389  0.6750  0.6396
19436TIP3    H179799   3.385   5.446  12.321  0.4408  2.7372  1.4088
19436TIP3    H279800   3.298   5.388  12.431 -0.9673  1.4534 -0.3658
19437TIP3   OH279801   3.169   1.085  15.823  0.4646 -0.2700  0.1651
19437TIP3    H179802   3.107   1.032  15.772  0.9950 -1.1263  0.4093
19437TIP3    H279803   3.187   1.161  15.767 -1.4451  0.4211  0.4273
19438TIP3   OH279804   0.370   6.160  14.224 -0.5908  0.5218 -0.3363
19438TIP3    H179805   0.419   6.178  14.304 -0.0881 -2.4324  0.0807
19438TIP3    H279806   0.278   6.163  14.251 -0.3893 -3.5741  1.1824
19439TIP3   OH279807   4.892   4.542  16.973 -0.1435  0.2580 -0.3268
19439TIP3    H179808   4.886   4.449  16.992  0.8687  0.2718  0.1180
19439TIP3    H279809   4.966   4.549  16.912 -0.0772  0.7856 -0.1904
19440TIP3   OH279810   4.515   2.318  12.855 -0.0716 -0.3984  0.5182
19440TIP3    H179811   4.563   2.369  12.920  2.6025 -0.9024 -0.9881
19440TIP3    H279812   4.523   2.228  12.884  0.7026 -0.5768 -0.2338
19441TIP3   OH279813   5.594   5.872   0.408 -0.6079 -0.0352  0.0299
19441TIP3    H179814   5.642   5.888   0.489  0.4525 -0.2682 -0.5363
19441TIP3    H279815   5.541   5.795   0.427  1.8280 -1.9006 -0.3743
19442TIP3   OH279816   4.534   2.872  15.367  0.2415 -0.4080 -0.6466
19442TIP3    H179817   4.552   2.778  15.360 -1.2306 -0.5717 -2.9203
19442TIP3    H279818   4.443   2.880  15.340  0.0148  1.5612  0.6335
19443TIP3   OH279819   2.840   4.847  15.484  0.7340 -0.4680  0.1428
19443TIP3    H179820   2.775   4.796  15.531  0.9491 -0.8720  0.0060
19443TIP3    H279821   2.793   4.925  15.455 -0.1306 -1.5369 -1.3979
19444TIP3   OH279822   6.337   1.296   1.450  0.2199  0.6042  0.1235
19444TIP3    H179823   6.247   1.276   1.476  0.1831 -0.1318 -0.5416
19444TIP3    H279824   6.378   1.210   1.440  0.6328  0.9050 -0.8263
19445TIP3   OH279825   1.475   2.200   5.258  0.3778  0.5859 -0.8285
19445TIP3    H179826   1.486   2.131   5.323  0.5226 -0.9646 -2.4832
19445TIP3    H279827   1.563   2.235   5.246  0.3075  1.0710 -0.0055
19446TIP3   OH279828   0.274   6.680  17.110 -0.2680 -0.1703 -0.5580
19446TIP3    H179829   0.218   6.728  17.049 -0.6636 -0.9626 -0.8307
19446TIP3    H279830   0.278   6.735  17.188  0.3354  0.9099 -1.3288
19447TIP3   OH279831   4.117   4.963   4.206 -0.1422  0.3107 -0.2584
19447TIP3    H179832   4.133   5.038   4.263  0.0361 -0.1258  0.2642
19447TIP3    H279833   4.022   4.950   4.211 -0.1357  0.3147 -0.1189
19448TIP3   OH279834   2.755   5.208   1.291  0.8304 -0.2634 -0.2656
19448TIP3    H179835   2.786   5.171   1.374  1.8708  0.6218 -0.2557
19448TIP3    H279836   2.724   5.295   1.313  0.8268 -0.1379 -0.7583
19449TIP3   OH279837   1.222   6.737  13.449  0.2448 -0.4968 -0.1411
19449TIP3    H179838   1.239   6.655  13.495 -1.1920 -0.9319 -0.3590
19449TIP3    H279839   1.144   6.772  13.493 -0.3360 -0.2449 -1.3690
19450TIP3   OH279840   4.996   2.440  15.577  0.6562 -0.1094 -0.5104
19450TIP3    H179841   4.955   2.491  15.507 -0.6419  0.3486  0.5390
19450TIP3    H279842   4.933   2.370  15.595 -0.4208  1.4651  2.1416
19451TIP3   OH279843   1.134   2.900   1.650 -0.2776 -0.4711 -0.6119
19451TIP3    H179844   1.135   2.967   1.581 -1.3149  0.5456  0.3353
19451TIP3    H279845   1.055   2.920   1.701 -0.7488 -2.5974 -0.4788
19452TIP3   OH279846   3.333   4.629   1.710  0.1254 -0.1900  0.1835
19452TIP3    H179847   3.237   4.632   1.710  0.0722 -1.6592  1.0403
19452TIP3    H279848   3.358   4.678   1.631 -1.3093  0.4717  0.1207
19453TIP3   OH279849   3.592   1.852  12.411  0.4133  0.1348  1.0113
19453TIP3    H179850   3.559   1.830  12.498  1.6009 -1.5119  1.0842
19453TIP3    H279851   3.514   1.863  12.357 -0.3112  0.1249  2.0406
19454TIP3   OH279852   3.416   2.532   0.361  0.3135  0.2747  0.4268
19454TIP3    H179853   3.352   2.549   0.291 -0.8444 -1.5316  1.0092
19454TIP3    H279854   3.495   2.577   0.332  0.1665 -1.2540 -2.5365
19455TIP3   OH279855   1.946   4.864   4.333  0.0647  0.0361 -0.0536
19455TIP3    H179856   2.003   4.849   4.408 -0.3915 -0.5557  0.1692
19455TIP3    H279857   1.896   4.783   4.323  1.2969 -0.5252 -2.0010
19456TIP3   OH279858   0.438   0.332   4.820  0.0865  0.4222  0.3573
19456TIP3    H179859   0.358   0.377   4.791  0.0448  0.0493 -0.1113
19456TIP3    H279860   0.453   0.265   4.753  1.0488  0.7924  0.1932
19457TIP3   OH279861   0.529   5.395   6.193  0.1740  0.2488  0.0045
19457TIP3    H179862   0.541   5.304   6.220 -1.0231 -0.6678 -2.3284
19457TIP3    H279863   0.601   5.442   6.234  2.0918 -2.1469 -0.4596
19458TIP3   OH279864   6.294   0.909  17.042  0.3060  0.2257 -0.3354
19458TIP3    H179865   6.242   0.874  17.115 -0.6888  0.6442 -0.8327
19458TIP3    H279866   6.313   0.999  17.068  1.9212 -0.3342  0.4439
19459TIP3   OH279867   5.093   0.233   2.851  0.5423 -0.4125  0.8165
19459TIP3    H179868   5.154   0.171   2.810  0.3465 -0.2209  0.2305
19459TIP3    H279869   5.090   0.206   2.943 -0.1706 -1.8027  0.3996
19460TIP3   OH279870   5.798   5.469  11.655  0.4002  0.5835  0.0494
19460TIP3    H179871   5.855   5.457  11.731 -0.0946  0.2377  0.3790
19460TIP3    H279872   5.709   5.467  11.692  0.1394 -0.0622 -0.6012
19461TIP3   OH279873   5.635   4.154   2.395  0.1858 -0.2713  0.3860
19461TIP3    H179874   5.675   4.155   2.308  0.9264 -1.4620  0.6955
19461TIP3    H279875   5.561   4.214   2.388 -0.1287 -0.8171 -1.2380
19462TIP3   OH279876   5.965   4.193  13.312 -0.5589  0.5645  0.5086
19462TIP3    H179877   5.959   4.184  13.217  0.6092  0.8280  0.4018
19462TIP3    H279878   6.056   4.171  13.333 -0.9647 -0.1027  1.6384
19463TIP3   OH279879   4.452   2.413  12.147 -0.2419 -0.5333 -0.1339
19463TIP3    H179880   4.523   2.407  12.212  1.2642  3.1943 -1.2998
19463TIP3    H279881   4.489   2.375  12.067  0.2367  0.8696 -0.5818
19464TIP3   OH279882   3.216   2.749   0.474 -0.0951  0.1659  0.0541
19464TIP3    H179883   3.228   2.778   0.383 -1.0851  0.4212 -0.0035
19464TIP3    H279884   3.177   2.662   0.465  0.9843 -0.3324  0.2308
19465TIP3   OH279885   1.915   4.131   2.645  0.2040  0.0761 -0.5184
19465TIP3    H179886   2.004   4.161   2.630 -0.0700  0.7127 -0.9040
19465TIP3    H279887   1.902   4.062   2.580  0.5758 -0.3421 -0.1476
19466TIP3   OH279888   5.859   5.353   2.787 -0.1387  0.2103 -0.9390
19466TIP3    H179889   5.907   5.344   2.705 -1.0286 -1.5735 -1.2938
19466TIP3    H279890   5.862   5.265   2.826 -0.2466  0.8897  0.6444
19467TIP3   OH279891   3.263   5.122   5.877  0.3151  0.4404  0.6182
19467TIP3    H179892   3.224   5.039   5.849 -1.0142  1.7446 -1.5124
19467TIP3    H279893   3.351   5.121   5.839  0.0586  0.3034  0.0211
19468TIP3   OH279894   6.685   6.607  16.127 -0.1593 -0.0021  0.1908
19468TIP3    H179895   6.605   6.601  16.180 -0.3153  0.0143 -0.0427
19468TIP3    H279896   6.736   6.531  16.152 -0.3948 -0.1907  0.0966
19469TIP3   OH279897   5.366   6.341   0.294  1.1365  0.1293 -0.3282
19469TIP3    H179898   5.411   6.266   0.254  1.8565  1.2411 -1.6228
19469TIP3    H279899   5.431   6.381   0.351  0.9050  0.0781 -0.0252
19470TIP3   OH279900   0.339   5.896  13.179 -0.8585  0.7853 -0.3684
19470TIP3    H179901   0.319   5.990  13.189 -1.7495  0.6162 -0.5147
19470TIP3    H279902   0.254   5.853  13.189 -0.3245 -0.0738  0.5565
19471TIP3   OH279903   2.264   0.625  10.988  0.0204 -0.0640  0.5296
19471TIP3    H179904   2.258   0.586  10.901  1.0973 -2.3141  1.4060
19471TIP3    H279905   2.233   0.715  10.977  0.8907 -0.0655 -2.3228
19472TIP3   OH279906   2.159   2.098  12.697 -0.5839  0.1128 -0.3084
19472TIP3    H179907   2.238   2.123  12.745 -0.1947 -1.1578 -0.2706
19472TIP3    H279908   2.106   2.178  12.693  0.1515  0.6500  0.7431
19473TIP3   OH279909   3.123   2.299   2.422  0.0449 -0.1838 -0.3092
19473TIP3    H179910   3.198   2.357   2.433 -0.0129 -0.2013  0.2125
19473TIP3    H279911   3.138   2.229   2.486 -0.3074 -0.2985 -0.3503
19474TIP3   OH279912   4.644   4.356   6.170 -0.1410  0.0250 -0.6191
19474TIP3    H179913   4.729   4.372   6.128 -0.3604  0.9179 -0.7232
19474TIP3    H279914   4.620   4.268   6.142  0.7122 -0.2022 -0.6599
19475TIP3   OH279915   3.228   2.899  12.267  0.1428  0.5343  0.2543
19475TIP3    H179916   3.233   2.993  12.250 -2.6099  0.2353 -2.8731
19475TIP3    H279917   3.151   2.889  12.322  0.0997  0.0794  0.1135
19476TIP3   OH279918   0.120   1.563   0.944 -0.6523  0.5600 -0.3558
19476TIP3    H179919   0.101   1.572   1.038 -2.0947  2.0804 -0.7601
19476TIP3    H279920   0.198   1.617   0.930 -0.6990  0.6967 -0.0966
19477TIP3   OH279921   4.739   3.293   3.262  0.1288  0.3127  0.1582
19477TIP3    H179922   4.831   3.265   3.263 -0.0155 -0.1486  0.5138
19477TIP3    H279923   4.692   3.221   3.220 -0.1954  0.1544  0.7808
19478TIP3   OH279924   5.952   4.069  12.031 -0.2869  0.2530  0.3474
19478TIP3    H179925   5.929   4.037  12.119 -1.1089 -1.1572 -0.3613
19478TIP3    H279926   5.927   4.161  12.032 -1.1971  0.0167  1.2889
19479TIP3   OH279927   2.019   2.469  10.818  0.4703  0.1464  0.4566
19479TIP3    H179928   2.096   2.426  10.780  0.3461  1.9230 -1.9655
19479TIP3    H279929   2.056   2.535  10.877  0.8799  1.2643 -0.9956
19480TIP3   OH279930   5.226   1.369  12.948  0.1651 -0.0496 -0.6215
19480TIP3    H179931   5.263   1.388  12.861 -0.9760  0.9090 -0.9030
19480TIP3    H279932   5.300   1.336  12.998  0.6373 -1.5977 -2.2609
19481TIP3   OH279933   5.932   3.184  12.829  0.1547  0.5112  0.1840
19481TIP3    H179934   6.020   3.151  12.850 -0.0537  0.6626  1.3273
19481TIP3    H279935   5.949   3.268  12.787  0.5445  0.9827  1.2470
19482TIP3   OH279936   4.609   0.060   5.044  0.3021 -0.0720  0.1901
19482TIP3    H179937   4.597   0.002   4.969  1.1270  1.0445 -0.8095
19482TIP3    H279938   4.646   0.140   5.008  3.8661 -0.6991  2.1821
19483TIP3   OH279939   5.246   6.665   5.281 -0.2297 -0.5169  0.2202
19483TIP3    H179940   5.253   6.734   5.216  1.6333 -0.7024  0.1898
19483TIP3    H279941   5.161   6.624   5.264 -0.3300  0.2682 -1.2440
19484TIP3   OH279942   5.363   2.967  12.715  0.0334  0.0515 -0.4649
19484TIP3    H179943   5.333   2.931  12.632 -2.0138 -0.5254  0.4769
19484TIP3    H279944   5.410   2.895  12.757 -2.4276 -1.0130  0.5911
19485TIP3   OH279945   4.400   5.104   3.957 -0.1169 -0.1917  0.8145
19485TIP3    H179946   4.399   5.014   3.924 -2.1045 -0.2953  1.0843
19485TIP3    H279947   4.413   5.094   4.052  0.3119 -0.1646  0.7579
19486TIP3   OH279948   0.142   2.480   0.443 -0.5038 -0.1161  0.3762
19486TIP3    H179949   0.173   2.394   0.471  0.1221  0.5967  1.9228
19486TIP3    H279950   0.220   2.524   0.410 -0.5358  0.3662  0.9278
19487TIP3   OH279951   0.258   5.766   4.528  0.0727 -0.0355 -0.2856
19487TIP3    H179952   0.323   5.796   4.592  1.2179  0.2203 -1.5294
19487TIP3    H279953   0.176   5.762   4.577 -0.0542  4.6358  0.1548
19488TIP3   OH279954   4.724   1.132   2.045 -0.2222  0.3316  0.0576
19488TIP3    H179955   4.773   1.050   2.042 -0.6541  0.0835 -0.3395
19488TIP3    H279956   4.660   1.120   2.115  2.4486  1.9024  2.8567
19489TIP3   OH279957   6.214   0.830  13.886 -0.0949  0.4971  0.2757
19489TIP3    H179958   6.189   0.876  13.806  1.2553  2.1525  0.7880
19489TIP3    H279959   6.276   0.888  13.930  0.9055 -1.3583  1.4289
19490TIP3   OH279960   0.362   6.783  12.651 -0.0866  0.2986  0.8407
19490TIP3    H179961   0.337   6.870  12.682  2.4386  1.2682  0.2840
19490TIP3    H279962   0.423   6.800  12.578 -0.1813 -1.9248  0.2061
19491TIP3   OH279963   4.075   2.051  16.805 -0.2175 -0.4621 -0.2229
19491TIP3    H179964   4.004   1.992  16.780  0.1390 -1.1318  0.3382
19491TIP3    H279965   4.034   2.114  16.863 -0.3463 -0.8714  0.1300
19492TIP3   OH279966   6.103   2.452  13.007 -0.2934 -0.0358  0.1426
19492TIP3    H179967   6.039   2.523  13.009 -0.7193 -0.4167 -0.0985
19492TIP3    H279968   6.060   2.381  12.960 -0.1284 -0.7093  0.9929
19493TIP3   OH279969   6.465   2.383   6.041 -0.0869  0.0686 -0.0222
19493TIP3    H179970   6.542   2.370   6.097  1.9208  4.1532 -1.5625
19493TIP3    H279971   6.487   2.339   5.959 -0.3883 -0.7138  0.3160
19494TIP3   OH279972   6.374   4.753   5.326 -0.0344 -0.5016  0.5061
19494TIP3    H179973   6.456   4.804   5.319  0.1654 -0.8889 -0.0426
19494TIP3    H279974   6.399   4.674   5.374  0.2375 -1.2710 -0.8666
19495TIP3   OH279975   2.504   2.104  15.641  0.3551  0.4788 -0.7779
19495TIP3    H179976   2.412   2.125  15.650 -0.3024 -1.5812 -2.3174
19495TIP3    H279977   2.544   2.184  15.606 -0.8366  1.3547 -0.1717
19496TIP3   OH279978   3.042   0.899   1.405 -0.3486  0.5469  0.3024
19496TIP3    H179979   2.981   0.970   1.427  1.6544  2.4520 -0.1743
19496TIP3    H279980   3.042   0.897   1.309  0.7917  0.9428  0.2962
19497TIP3   OH279981   6.574   2.110   4.115  0.4220  0.5638  0.0753
19497TIP3    H179982   6.569   2.030   4.167  2.0496  0.7003  0.4668
19497TIP3    H279983   6.496   2.107   4.059  0.7135 -1.5321 -0.2468
19498TIP3   OH279984   4.887   4.969  13.277  0.0629  0.5253  0.0566
19498TIP3    H179985   4.799   5.006  13.273  0.2367  0.8814 -0.4269
19498TIP3    H279986   4.933   5.023  13.341  0.0392  0.5555  0.0481
19499TIP3   OH279987   3.816   4.116   4.178  0.0958 -0.5360 -0.4064
19499TIP3    H179988   3.791   4.118   4.086 -0.5994 -1.7760 -0.2542
19499TIP3    H279989   3.912   4.122   4.177 -0.0128  1.4258 -1.1122
19500TIP3   OH279990   5.010   4.074   4.857  0.1553  0.7054 -0.4680
19500TIP3    H179991   4.995   4.161   4.822 -0.5530  0.0796 -1.7328
19500TIP3    H279992   4.933   4.023   4.831  1.8603 -1.0501 -2.1855
19501TIP3   OH279993   5.915   3.556   6.579 -0.6324  0.1153 -0.7501
19501TIP3    H179994   5.985   3.602   6.624  0.1347  0.2906 -2.1023
19501TIP3    H279995   5.878   3.497   6.645 -1.1933  2.1620  0.8161
19502TIP3   OH279996   0.669   4.441  16.743 -0.4803  0.2419  0.1171
19502TIP3    H179997   0.744   4.472  16.794  0.5291 -2.0781  0.1374
19502TIP3    H279998   0.593   4.466  16.794  0.3068  2.1274  0.3932
19503TIP3   OH279999   6.114   5.466   5.281  0.4622  0.3132  0.0075
19503TIP3    H180000   6.043   5.404   5.297  0.4906  0.3801  0.4176
19503TIP3    H280001   6.072   5.552   5.282  0.5118  0.3376  0.0277
19504TIP3   OH280002   4.079   4.453   3.653  0.5064  0.2812  0.2670
19504TIP3    H180003   4.070   4.399   3.574  0.6546  0.2772  0.2517
19504TIP3    H280004   4.074   4.543   3.621 -1.9531  0.2864  0.5562
19505TIP3   OH280005   2.401   3.769   3.628 -0.4788  0.3650  0.3173
19505TIP3    H180006   2.384   3.846   3.682  0.2498  0.9134 -0.2417
19505TIP3    H280007   2.473   3.794   3.570 -2.0280  0.2081 -1.7538
19506TIP3   OH280008   5.000   2.858   2.232  0.0463  0.0392  0.0872
19506TIP3    H180009   4.946   2.789   2.271  0.8716  0.3832  1.8743
19506TIP3    H280010   4.944   2.936   2.234 -0.7952 -0.4947 -1.7029
19507TIP3   OH280011   6.357   2.261   3.629  0.4335  0.0781  0.5170
19507TIP3    H180012   6.296   2.188   3.643 -0.0200  0.4967  0.7263
19507TIP3    H280013   6.314   2.336   3.670  0.2654  0.7670 -0.9030
19508TIP3   OH280014   3.124   0.390   1.699  0.0375 -0.0886  0.3837
19508TIP3    H180015   3.086   0.356   1.618  0.7412  1.9043 -0.8018
19508TIP3    H280016   3.160   0.313   1.743 -1.0424 -1.2929 -0.8234
19509TIP3   OH280017   4.578   5.282  14.858  0.0589 -0.2897  0.1844
19509TIP3    H180018   4.527   5.221  14.911  2.2048 -1.7952  0.5708
19509TIP3    H280019   4.650   5.230  14.823 -1.2526  0.6190 -4.2697
19510TIP3   OH280020   4.918   0.675  15.651  0.1839  0.0470 -0.0045
19510TIP3    H180021   4.825   0.698  15.659  0.3436  0.3276  1.0500
19510TIP3    H280022   4.965   0.750  15.687  0.8216 -0.2127 -0.2823
19511TIP3   OH280023   4.126   2.479   1.371  0.7681  0.3501 -0.3849
19511TIP3    H180024   4.110   2.567   1.405 -2.5293 -0.3323  0.0148
19511TIP3    H280025   4.039   2.440   1.366  2.2046 -2.9460 -0.4330
19512TIP3   OH280026   6.392   0.464  12.755 -0.2134 -0.0304 -0.1065
19512TIP3    H180027   6.373   0.383  12.708 -0.0694 -1.1615  1.7394
19512TIP3    H280028   6.405   0.529  12.687 -2.0204 -1.1830 -1.5860
19513TIP3   OH280029   3.940   4.987  14.980 -0.9975 -0.0033  0.1036
19513TIP3    H180030   3.916   5.073  14.946 -2.6387 -0.1008  0.9869
19513TIP3    H280031   3.973   5.004  15.068 -1.8363 -0.3268  0.4860
19514TIP3   OH280032   0.898   4.003  17.201  0.0884 -0.3283  0.1541
19514TIP3    H180033   0.857   4.076  17.156  0.2435  0.1888  0.8523
19514TIP3    H280034   0.825   3.946  17.226 -0.2514  0.8195  1.8004
19515TIP3   OH280035   4.521   2.958  12.872 -0.3188 -0.2406 -0.0392
19515TIP3    H180036   4.605   2.996  12.896  0.2446 -1.4091 -0.1385
19515TIP3    H280037   4.509   2.983  12.780  0.2025 -0.5786 -0.2000
19516TIP3   OH280038   6.275   4.893  10.335 -0.3747 -0.2382  0.7523
19516TIP3    H180039   6.316   4.942  10.407  0.9345  1.6341 -1.2039
19516TIP3    H280040   6.347   4.850  10.290 -0.8463  0.7709 -1.0245
19517TIP3   OH280041   3.017   0.822  14.283  0.0952 -0.2714 -0.3804
19517TIP3    H180042   2.978   0.796  14.200  0.8463  0.9272 -1.1315
19517TIP3    H280043   3.111   0.831  14.263  0.1406  1.0023  0.3291
19518TIP3   OH280044   4.701   3.496   2.662  0.3530  0.2404 -0.7370
19518TIP3    H180045   4.660   3.571   2.618 -0.8908  0.6922  1.1230
19518TIP3    H280046   4.795   3.512   2.654  0.1577  0.4205 -3.0112
19519TIP3   OH280047   6.574   3.609   5.172  0.8283  0.0549  0.4028
19519TIP3    H180048   6.668   3.621   5.163  0.8414  0.5639  1.1799
19519TIP3    H280049   6.561   3.515   5.159  1.1384  0.3117 -2.1720
19520TIP3   OH280050   0.950   2.285  13.644  0.2264 -0.2791  0.1842
19520TIP3    H180051   0.889   2.219  13.676 -0.2808 -0.8871 -1.9044
19520TIP3    H280052   0.905   2.368  13.658 -0.1319 -0.5613  0.7173
19521TIP3   OH280053   1.933   6.400  17.252  0.8161 -0.0976  0.0809
19521TIP3    H180054   1.873   6.367  17.318 -0.3055  0.8098 -0.4506
19521TIP3    H280055   1.976   6.323  17.216  1.5482 -0.5779  1.9698
19522TIP3   OH280056   2.719   3.035  16.098  0.1879  0.3553 -0.3199
19522TIP3    H180057   2.803   2.992  16.115  0.5482  1.3715  0.4603
19522TIP3    H280058   2.656   2.962  16.090  1.1766 -0.4205 -1.1898
19523TIP3   OH280059   4.416   1.867   2.350  0.1477 -0.1113 -0.3737
19523TIP3    H180060   4.446   1.910   2.270  1.6789  0.0140  0.2583
19523TIP3    H280061   4.392   1.778   2.322 -2.2361  0.8483 -1.5215
19524TIP3   OH280062   3.018   4.169  13.153 -0.1275 -0.6045  0.0450
19524TIP3    H180063   2.973   4.253  13.161 -0.3413 -0.7444  0.3455
19524TIP3    H280064   3.070   4.162  13.233  0.4686 -0.4229 -0.3226
19525TIP3   OH280065   1.332   3.054   6.102 -0.3280  0.0412 -0.3705
19525TIP3    H180066   1.349   3.137   6.146  1.4099  0.2732 -1.4043
19525TIP3    H280067   1.368   2.988   6.161 -1.3988  0.0332  0.2900
19526TIP3   OH280068   0.451   3.411   3.142 -0.1322 -0.4941  0.2082
19526TIP3    H180069   0.493   3.338   3.096 -0.1067 -0.7001  0.5605
19526TIP3    H280070   0.470   3.395   3.234 -0.4090 -0.2178  0.3117
19527TIP3   OH280071   3.816   4.212  14.706 -0.1572 -0.5169  0.1636
19527TIP3    H180072   3.790   4.264  14.629  0.4010 -1.3157 -0.5741
19527TIP3    H280073   3.909   4.192  14.691  0.7861  1.8330  2.4874
19528TIP3   OH280074   1.704   2.657  15.810 -0.0269 -0.1532  0.2885
19528TIP3    H180075   1.666   2.692  15.730  1.4393  2.9455  0.8332
19528TIP3    H280076   1.645   2.686  15.880 -0.0098 -0.7424  0.5518
19529TIP3   OH280077   2.609   2.537  16.794 -0.6476  0.0625  0.0479
19529TIP3    H180078   2.598   2.446  16.821 -2.2856  0.3888  0.5009
19529TIP3    H280079   2.539   2.553  16.731  1.4851  0.1370 -2.3784
19530TIP3   OH280080   4.140   0.118   4.837 -0.4225 -0.4118 -0.1054
19530TIP3    H180081   4.156   0.158   4.923  1.1863 -2.0808  0.3949
19530TIP3    H280082   4.050   0.086   4.843 -0.2320 -0.7755  1.0773
19531TIP3   OH280083   1.765   6.727   0.083  0.0791  0.0394 -0.3063
19531TIP3    H180084   1.797   6.690   0.166  0.3040  0.8043 -0.0487
19531TIP3    H280085   1.727   6.652   0.037  0.6281 -0.5373  0.1627
19532TIP3   OH280086   0.259   5.437  12.177  0.0571 -0.1649 -0.4957
19532TIP3    H180087   0.266   5.532  12.176  1.2910 -0.2431 -0.3521
19532TIP3    H280088   0.306   5.409  12.098  3.9232 -0.8700  1.8913
19533TIP3   OH280089   6.356   1.217  16.300 -0.8758 -0.6515 -0.0570
19533TIP3    H180090   6.438   1.208  16.252 -0.4942 -0.9781  0.6427
19533TIP3    H280091   6.294   1.161  16.253 -0.4951 -0.9994 -0.1476
19534TIP3   OH280092   5.179   4.219   5.257  0.6429  0.1689 -0.3635
19534TIP3    H180093   5.140   4.140   5.294  0.9615  0.1033 -0.1661
19534TIP3    H280094   5.260   4.189   5.215  0.4151  0.2844 -0.8860
19535TIP3   OH280095   1.929   0.356  11.303 -0.0969 -0.0082  0.1501
19535TIP3    H180096   2.001   0.313  11.257  0.5059 -0.6682  1.6641
19535TIP3    H280097   1.896   0.288  11.362 -0.8222  0.8438  0.7245
19536TIP3   OH280098   0.874   3.566  12.063 -0.6400  0.1188  0.6181
19536TIP3    H180099   0.914   3.545  11.978 -1.4374 -0.2483  0.3291
19536TIP3    H280100   0.911   3.652  12.085 -1.4941  0.8773 -0.7955
19537TIP3   OH280101   6.041   0.472   0.628  0.1143  0.5773 -0.3481
19537TIP3    H180102   6.119   0.465   0.684 -0.4924 -0.5180  0.3579
19537TIP3    H280103   6.001   0.555   0.654  1.2897  1.3923 -1.0469
19538TIP3   OH280104   6.425   1.585  17.205 -0.1433  0.1934  0.0674
19538TIP3    H180105   6.476   1.534  17.143 -0.3930  1.9509 -1.6416
19538TIP3    H280106   6.400   1.523  17.273  1.7459 -1.3457 -0.5994
19539TIP3   OH280107   6.382   4.453  15.255  0.8266 -0.2450 -0.6490
19539TIP3    H180108   6.340   4.519  15.310  1.3050  0.4452 -1.1187
19539TIP3    H280109   6.475   4.461  15.274  0.6721 -2.7332  1.4591
19540TIP3   OH280110   3.933   0.344   4.454 -0.2870  0.1024  0.2148
19540TIP3    H180111   3.868   0.325   4.522  0.1544  0.7440  0.8214
19540TIP3    H280112   3.892   0.412   4.400 -0.4065 -0.0051  0.1691
19541TIP3   OH280113   1.047   2.954   6.952  0.1303  0.3119 -0.9892
19541TIP3    H180114   0.981   2.915   6.894 -1.4500  1.2842  0.1246
19541TIP3    H280115   1.049   3.046   6.928 -1.5021  0.9971  1.3687
19542TIP3   OH280116   4.401   6.120   5.515 -0.0814  0.1375 -0.3623
19542TIP3    H180117   4.379   6.037   5.556 -1.8577 -0.7447 -2.9335
19542TIP3    H280118   4.319   6.170   5.516  0.3513  0.8794 -0.9621
19543TIP3   OH280119   1.287   6.653  16.893  0.5569 -0.5778  0.0526
19543TIP3    H180120   1.268   6.721  16.829 -2.1799 -0.4537  0.9164
19543TIP3    H280121   1.272   6.571  16.847  1.9874 -0.5815 -0.4327
19544TIP3   OH280122   1.597   4.172   5.684  0.4903  0.1577 -0.0938
19544TIP3    H180123   1.593   4.151   5.778 -1.2391 -1.1389 -0.4224
19544TIP3    H280124   1.591   4.087   5.641  1.0659  0.7694 -1.3973
19545TIP3   OH280125   2.518   2.564   3.490 -0.6052 -0.0639 -0.1659
19545TIP3    H180126   2.573   2.504   3.540 -0.3846 -0.6016 -1.0331
19545TIP3    H280127   2.522   2.647   3.538 -0.6953 -0.6699  0.8924
19546TIP3   OH280128   2.446   5.808  16.989  0.1575 -0.2408 -0.2839
19546TIP3    H180129   2.448   5.832  17.081  0.9159 -1.2047 -0.0405
19546TIP3    H280130   2.395   5.877  16.947 -0.3332  0.1057  0.8783
19547TIP3   OH280131   1.434   1.638  10.863  0.0866  0.7845 -0.2915
19547TIP3    H180132   1.479   1.673  10.787 -0.2997  0.6783 -0.5695
19547TIP3    H280133   1.494   1.572  10.898 -0.6962 -0.7655 -1.8229
19548TIP3   OH280134   1.996   0.333   2.682  0.2394 -0.2017 -0.5660
19548TIP3    H180135   2.085   0.300   2.673  0.6330  0.0172  2.1036
19548TIP3    H280136   1.971   0.312   2.772 -2.1254  0.4240 -1.0274
19549TIP3   OH280137   1.760   4.404  10.797 -0.0554 -0.2044 -0.2022
19549TIP3    H180138   1.852   4.426  10.801  0.2171 -1.3177  0.0672
19549TIP3    H280139   1.716   4.483  10.767  1.2444 -0.3823 -2.6945
19550TIP3   OH280140   5.637   5.812   3.154  0.9767  0.0964  0.3502
19550TIP3    H180141   5.714   5.817   3.098  1.5962  1.2716  1.2904
19550TIP3    H280142   5.653   5.876   3.224 -0.4590 -0.2550  1.0297
19551TIP3   OH280143   4.730   6.332   5.282 -0.5155  0.0693  0.3353
19551TIP3    H180144   4.816   6.297   5.304 -0.3113  0.9276  0.9364
19551TIP3    H280145   4.747   6.422   5.253 -1.1768  0.1419  0.1547
19552TIP3   OH280146   4.304   0.455  11.831  0.5723 -0.3167  0.1924
19552TIP3    H180147   4.278   0.370  11.866  0.4132 -1.2277 -2.0688
19552TIP3    H280148   4.362   0.492  11.897 -1.0373 -1.2569  2.1606
19553TIP3   OH280149   5.923   6.747   5.167 -0.0116 -0.2989 -0.2180
19553TIP3    H180150   5.986   6.803   5.213 -0.3681 -0.4117  0.4013
19553TIP3    H280151   5.840   6.761   5.212 -0.5006  0.0546 -1.2046
19554TIP3   OH280152   4.130   6.394  16.832 -0.5499 -0.1762 -0.5118
19554TIP3    H180153   4.071   6.429  16.764 -0.8978 -0.8087 -0.5357
19554TIP3    H280154   4.209   6.447  16.824 -1.1433  0.7372 -0.4297
19555TIP3   OH280155   3.821   4.097  16.726 -0.0605 -0.5072 -0.4384
19555TIP3    H180156   3.799   4.066  16.813 -0.4921  0.4481 -0.1932
19555TIP3    H280157   3.915   4.085  16.718  0.0275 -0.2746  0.2894
19556TIP3   OH280158   0.863   0.044   6.407 -0.2940 -0.1948  0.7089
19556TIP3    H180159   0.846  -0.034   6.354  2.2138  0.3455 -0.9779
19556TIP3    H280160   0.911   0.012   6.483  3.1103 -0.0714 -1.2731
19557TIP3   OH280161   5.394   0.947  14.169  0.0398  0.2368  0.1799
19557TIP3    H180162   5.304   0.968  14.196  0.5415  1.1427  1.1434
19557TIP3    H280163   5.420   0.875  14.227  0.0691  0.1977  0.1189
19558TIP3   OH280164   3.695   1.380  13.218  0.3332  0.4104  0.1864
19558TIP3    H180165   3.740   1.352  13.297  0.0024  0.4865  0.4051
19558TIP3    H280166   3.729   1.468  13.200 -0.5503  0.9313  0.9976
19559TIP3   OH280167   5.862   3.655   6.157  0.0839  0.3543 -0.3262
19559TIP3    H180168   5.823   3.676   6.072  0.8937 -1.8385 -1.2793
19559TIP3    H280169   5.793   3.607   6.203  0.2756 -0.0565 -0.4661
19560TIP3   OH280170   3.939   4.642  13.689  0.1815  0.0794  0.2231
19560TIP3    H180171   3.954   4.554  13.655  1.5786  0.4842 -0.2424
19560TIP3    H280172   4.026   4.673  13.716 -0.6814  0.2318  3.0484
19561TIP3   OH280173   6.028   1.878  11.744 -0.1101 -0.0101 -0.2639
19561TIP3    H180174   6.060   1.830  11.820  0.3439  0.5455 -0.1011
19561TIP3    H280175   5.997   1.962  11.780 -0.1395  0.1475 -0.6574
19562TIP3   OH280176   5.406   3.937   4.176 -0.0179  0.0408  0.0986
19562TIP3    H180177   5.349   3.878   4.224 -0.6727  1.5931  1.2881
19562TIP3    H280178   5.347   4.007   4.146  0.8453  0.4278 -0.7154
19563TIP3   OH280179   4.126   2.534  16.430 -0.2328  0.5490 -0.3080
19563TIP3    H180180   4.164   2.447  16.414  0.2940  0.5739  0.7598
19563TIP3    H280181   4.081   2.525  16.513 -2.2780  0.6315 -1.3774
19564TIP3   OH280182   5.320   6.706   3.368  0.0429 -0.1458  0.4403
19564TIP3    H180183   5.408   6.685   3.337  0.6031 -0.7090  2.3135
19564TIP3    H280184   5.323   6.685   3.462 -2.0144  0.0663  0.5638
19565TIP3   OH280185   6.088   4.020   5.057 -0.7226 -0.5165  0.8357
19565TIP3    H180186   6.008   3.978   5.089 -0.7785 -0.4033  0.8425
19565TIP3    H280187   6.158   3.978   5.107 -0.6488 -1.6290 -0.1888
19566TIP3   OH280188   5.724   3.069  12.316  0.1693  0.2505 -0.0944
19566TIP3    H180189   5.674   3.027  12.246  0.5313 -0.9881  0.3791
19566TIP3    H280190   5.684   3.038  12.397 -2.2695  4.1221  0.3103
19567TIP3   OH280191   3.119   0.273   0.479 -0.0826  0.1555  0.3430
19567TIP3    H180192   3.156   0.354   0.444 -2.7525  1.3547  0.1904
19567TIP3    H280193   3.105   0.291   0.572  2.0477 -1.1943  0.9723
19568TIP3   OH280194   3.645   1.627  13.925  0.1351 -0.2134 -0.3077
19568TIP3    H180195   3.597   1.671  13.856  0.5876  0.7913  0.0013
19568TIP3    H280196   3.578   1.584  13.978 -0.2416 -0.6193 -1.1173
19569TIP3   OH280197   0.605   3.764   5.737 -0.2603  0.1804 -0.7162
19569TIP3    H180198   0.557   3.733   5.660 -1.8309 -1.4753  0.8649
19569TIP3    H280199   0.549   3.832   5.774 -0.1976 -0.0236 -0.2431
19570TIP3   OH280200   1.709   5.121   5.678 -0.8134 -0.3907 -0.3286
19570TIP3    H180201   1.641   5.082   5.734  0.9097 -1.8308  0.7918
19570TIP3    H280202   1.723   5.208   5.715 -1.6165 -0.3119 -0.1907
19571TIP3   OH280203   1.672   3.719  15.917 -0.1073  0.2994 -0.0127
19571TIP3    H180204   1.584   3.681  15.911  0.4025 -0.4840 -3.5317
19571TIP3    H280205   1.688   3.755  15.830  2.1768  2.4956  1.2574
19572TIP3   OH280206   4.191   2.895  15.564  0.3930 -0.2137 -0.1486
19572TIP3    H180207   4.102   2.863  15.580 -0.2201  0.9545 -1.1093
19572TIP3    H280208   4.242   2.817  15.543 -1.0575 -0.5974 -2.4204
19573TIP3   OH280209   6.525   3.267   3.161  0.7529  0.2992  0.1969
19573TIP3    H180210   6.593   3.211   3.198  0.9761 -0.4645 -1.2952
19573TIP3    H280211   6.505   3.227   3.076 -0.4622  1.3953 -0.0568
19574TIP3   OH280212   6.325   6.145  16.155 -0.4663  0.1994 -0.1173
19574TIP3    H180213   6.399   6.187  16.199 -1.1648  0.3735  0.8956
19574TIP3    H280214   6.295   6.078  16.216 -1.4277  0.4206 -0.3450
19575TIP3   OH280215   2.194   2.055   0.531 -0.0289  0.0799  0.4711
19575TIP3    H180216   2.259   2.044   0.462 -0.7094 -0.6439 -0.0704
19575TIP3    H280217   2.245   2.067   0.611  0.7662  0.0324 -0.0289
19576TIP3   OH280218   1.631   4.085   5.966  0.5021  0.5582 -0.0222
19576TIP3    H180219   1.715   4.083   5.920  0.7343 -1.5201  0.4397
19576TIP3    H280220   1.655   4.106   6.057  0.7452 -1.6908  0.4738
19577TIP3   OH280221   0.996   4.563  11.936  0.3337  0.1301  0.2413
19577TIP3    H180222   0.990   4.475  11.899  2.1073 -0.8943  2.2819
19577TIP3    H280223   0.917   4.572  11.989  1.4293 -1.3336  2.2061
19578TIP3   OH280224   4.784   6.569  12.198 -0.2134 -0.0886  0.4864
19578TIP3    H180225   4.831   6.570  12.282  1.4540 -0.2240 -0.4190
19578TIP3    H280226   4.852   6.551  12.133 -2.0628 -3.9144 -0.5525
19579TIP3   OH280227   4.371   2.891  17.092 -0.1803 -0.0324 -0.2116
19579TIP3    H180228   4.277   2.899  17.073 -0.1742 -0.5298 -0.4621
19579TIP3    H280229   4.394   2.803  17.060  0.2013 -0.2059  0.5262
19580TIP3   OH280230   6.609   4.730  16.030 -0.4910  0.6029  0.3559
19580TIP3    H180231   6.618   4.641  15.997  0.8316  0.5543  0.8034
19580TIP3    H280232   6.582   4.719  16.121 -2.4636  0.7056 -0.2041
19581TIP3   OH280233   5.956   4.371   6.143  0.1292  0.0852  0.1623
19581TIP3    H180234   5.910   4.413   6.071  2.5186  0.0724 -1.4448
19581TIP3    H280235   5.963   4.438   6.211 -0.1771  0.8022 -0.5151
19582TIP3   OH280236   4.343   5.408  13.891 -0.3014  0.0957 -0.2143
19582TIP3    H180237   4.352   5.314  13.872  1.3410  0.4265 -1.1101
19582TIP3    H280238   4.264   5.433  13.843  0.4029 -0.4066 -1.6856
19583TIP3   OH280239   4.228   3.406  16.326 -0.5123 -0.1788 -0.4024
19583TIP3    H180240   4.198   3.335  16.382 -0.6332  1.2288  1.3543
19583TIP3    H280241   4.306   3.440  16.370 -1.3787  1.8199 -0.3601
19584TIP3   OH280242   1.611   5.651   3.648 -0.0900 -0.1591 -0.1026
19584TIP3    H180243   1.594   5.607   3.565 -0.4833 -0.4775  0.1448
19584TIP3    H280244   1.600   5.582   3.714 -0.7778  0.3274  0.2950
19585TIP3   OH280245   6.535   5.536   0.936 -0.1245 -0.2084  0.0968
19585TIP3    H180246   6.581   5.576   1.010 -0.0322  0.7469 -0.4718
19585TIP3    H280247   6.603   5.524   0.869  0.2195 -2.9110  0.8735
19586TIP3   OH280248   5.672   0.769   0.754 -0.1885 -0.2318 -0.1430
19586TIP3    H180249   5.674   0.677   0.782 -1.5094 -0.1437  0.3213
19586TIP3    H280250   5.691   0.818   0.833 -0.6522 -0.0736 -0.1285
19587TIP3   OH280251   3.987   3.070   2.834  0.2547  0.3653  0.2341
19587TIP3    H180252   4.077   3.057   2.803  0.2805 -1.2472  0.8984
19587TIP3    H280253   3.979   3.011   2.909 -0.5838  2.3700  1.7528
19588TIP3   OH280254   3.137   1.964  17.111 -0.3141 -0.0064  0.1675
19588TIP3    H180255   3.126   2.021  17.187  1.1497  0.3863  0.0893
19588TIP3    H280256   3.056   1.912  17.108 -1.6702  2.0792  0.2132
19589TIP3   OH280257   6.686   5.806   3.805  0.2712 -0.2295  0.1094
19589TIP3    H180258   6.731   5.724   3.826 -0.9751 -0.3762  2.4074
19589TIP3    H280259   6.757   5.871   3.798  1.0584 -0.9673  1.0188
19590TIP3   OH280260   0.150   6.686  10.497  0.1741  0.1181 -0.1683
19590TIP3    H180261   0.138   6.743  10.421  0.5842 -0.5952 -0.7760
19590TIP3    H280262   0.223   6.725  10.545  0.5778  0.0054 -0.6821
19591TIP3   OH280263   5.551   3.733   3.600 -0.1756 -0.2566 -0.1220
19591TIP3    H180264   5.464   3.697   3.582 -0.5699  0.7203 -0.2151
19591TIP3    H280265   5.608   3.693   3.533 -0.4067 -1.4230  0.3664
19592TIP3   OH280266   5.068   2.198   4.286  0.2667  0.0354 -0.4574
19592TIP3    H180267   5.049   2.123   4.228 -0.2269  0.3976 -0.7628
19592TIP3    H280268   5.148   2.235   4.249  0.4849 -0.3100 -0.3377
19593TIP3   OH280269   0.423   2.069  14.938 -0.3237  0.4588  0.3291
19593TIP3    H180270   0.506   2.023  14.949  0.5652  1.4133 -1.9949
19593TIP3    H280271   0.365   2.005  14.898  0.4183  0.8193 -1.3854
19594TIP3   OH280272   2.186   0.214   2.905  0.2075 -0.4754 -0.0581
19594TIP3    H180273   2.121   0.144   2.911  0.0751 -0.4372 -0.9685
19594TIP3    H280274   2.189   0.251   2.993  0.8086 -2.0973  0.6178
19595TIP3   OH280275   2.915   4.985  10.667 -0.4457 -0.0801  0.3180
19595TIP3    H180276   2.960   4.969  10.750 -1.4494 -0.9320  0.7154
19595TIP3    H280277   2.971   4.943  10.602 -1.0267 -1.7745  0.8915
19596TIP3   OH280278   0.349   3.514   1.889 -0.0484 -0.0671  0.3861
19596TIP3    H180279   0.340   3.422   1.911 -0.5616  0.2212  1.3618
19596TIP3    H280280   0.440   3.536   1.912 -0.6597  0.3101  2.5264
19597TIP3   OH280281   4.917   4.380  16.703  0.2403 -0.0201 -0.5652
19597TIP3    H180282   4.841   4.400  16.649  0.0985 -1.2676 -0.8420
19597TIP3    H280283   4.950   4.466  16.730 -0.5663  0.5680 -1.3982
19598TIP3   OH280284   4.593   6.340   2.477 -0.8593  0.5244 -0.2396
19598TIP3    H180285   4.651   6.274   2.516  0.2439  0.2861 -2.2590
19598TIP3    H280286   4.643   6.422   2.483 -0.5298  0.4215 -1.4593
19599TIP3   OH280287   4.847   2.142  14.829 -0.4167  0.1112  0.2043
19599TIP3    H180288   4.765   2.163  14.874 -0.6742  2.0917 -1.1481
19599TIP3    H280289   4.904   2.218  14.845  0.5580 -0.4989 -0.2843
19600TIP3   OH280290   5.661   0.144  12.624  0.4916 -0.1945 -0.3877
19600TIP3    H180291   5.741   0.091  12.625  0.2296 -0.5963 -0.6321
19600TIP3    H280292   5.679   0.214  12.561  1.9014  1.6743  1.9826
19601TIP3   OH280293   6.406   2.465  15.628 -0.1540 -0.3063 -0.3347
19601TIP3    H180294   6.375   2.519  15.556 -2.3059 -1.5230 -0.3552
19601TIP3    H280295   6.391   2.518  15.706 -0.0601  0.0484 -0.5558
19602TIP3   OH280296   3.605   2.826   4.108  0.5975  0.4536  0.9206
19602TIP3    H180297   3.683   2.800   4.157  1.8650  1.2408 -0.6540
19602TIP3    H280298   3.622   2.915   4.078  0.4910 -0.4940 -2.1678
19603TIP3   OH280299   3.961   6.522   3.151 -0.5614  0.0246  0.2956
19603TIP3    H180300   4.033   6.491   3.206 -1.9956 -0.6637  1.8589
19603TIP3    H280301   3.986   6.498   3.062 -0.7531 -4.0742  1.2317
19604TIP3   OH280302   0.676   0.072  15.579  0.3567  0.4070 -0.2736
19604TIP3    H180303   0.750   0.129  15.597  0.0017  0.7058  0.2799
19604TIP3    H280304   0.615   0.090  15.651  0.8843 -1.7524  0.7468
19605TIP3   OH280305   3.493   2.938   2.503  0.4873 -0.2305  0.2240
19605TIP3    H180306   3.456   3.021   2.532 -1.0530 -0.5117 -0.8132
19605TIP3    H280307   3.538   2.959   2.421  0.5970 -0.3108  0.2637
19606TIP3   OH280308   6.590   0.613   1.797  0.3655 -0.0211 -0.1253
19606TIP3    H180309   6.512   0.611   1.852  1.4246 -3.5972  1.4145
19606TIP3    H280310   6.577   0.542   1.734  2.3159 -0.6479  0.1267
19607TIP3   OH280311   2.379   3.540  14.990  0.2715 -0.4356  0.6510
19607TIP3    H180312   2.349   3.625  15.022  0.3879 -0.6783  1.4145
19607TIP3    H280313   2.312   3.512  14.928  0.1273  0.1118  0.5597
19608TIP3   OH280314   0.649   5.782  13.510  0.3596 -0.1838  0.1594
19608TIP3    H180315   0.703   5.755  13.584  0.0933  0.7306  0.6973
19608TIP3    H280316   0.693   5.860  13.476 -0.2535  0.1775  0.1870
19609TIP3   OH280317   6.219   4.193  11.284 -0.1651  0.5010  0.0310
19609TIP3    H180318   6.245   4.221  11.372  1.2136 -1.4346  0.2668
19609TIP3    H280319   6.232   4.098  11.284 -2.6048  0.1005 -1.4516
19610TIP3   OH280320   3.285   1.964   3.413 -0.3361 -0.5761  0.1305
19610TIP3    H180321   3.272   1.966   3.508 -0.6648  0.2616  0.0751
19610TIP3    H280322   3.252   1.878   3.386 -0.2747 -0.8016  0.7719
19611TIP3   OH280323   2.302   2.051   3.284  0.0952 -0.0882 -0.1980
19611TIP3    H180324   2.280   2.143   3.272 -0.3722 -0.0558  0.8597
19611TIP3    H280325   2.378   2.037   3.228  0.5529  1.0996  0.1185
19612TIP3   OH280326   4.897   1.514  11.474  0.5961 -0.4478  0.0035
19612TIP3    H180327   4.848   1.485  11.397  0.7687  0.3829 -0.4323
19612TIP3    H280328   4.860   1.463  11.546 -0.5310 -0.2359 -0.4006
19613TIP3   OH280329   2.651   4.243  15.131 -0.1577  0.5019  0.2581
19613TIP3    H180330   2.711   4.306  15.169  0.0884  0.0178  0.6872
19613TIP3    H280331   2.593   4.218  15.204  0.9525 -1.1817  0.5882
19614TIP3   OH280332   3.355   1.859   1.029  0.3611 -0.4787  0.5779
19614TIP3    H180333   3.315   1.772   1.031  1.0913 -0.8120  0.9391
19614TIP3    H280334   3.393   1.870   1.116 -0.7863  0.7113  0.9521
19615TIP3   OH280335   0.867   2.938  16.464  0.3407  0.7212 -0.0557
19615TIP3    H180336   0.939   2.951  16.402  0.1041 -0.4546 -0.6041
19615TIP3    H280337   0.840   3.026  16.489  1.7811  1.1774 -0.0661
19616TIP3   OH280338   3.175   1.318  10.968  0.1024 -0.6052  0.2327
19616TIP3    H180339   3.180   1.281  11.056 -0.0189 -0.5566  0.2605
19616TIP3    H280340   3.101   1.379  10.972 -0.2713 -1.0367 -0.0660
19617TIP3   OH280341   6.785   1.397  15.920  0.1859 -0.6043 -0.4213
19617TIP3    H180342   6.755   1.346  15.845  1.5313 -1.7781 -0.1882
19617TIP3    H280343   6.854   1.343  15.959  0.6709  0.7710  0.6525
19618TIP3   OH280344   0.711   5.863   2.881  0.0988 -0.7735 -0.0724
19618TIP3    H180345   0.626   5.852   2.923 -0.8366 -0.5140 -1.8716
19618TIP3    H280346   0.718   5.957   2.865  0.8308 -0.7638  0.2632
19619TIP3   OH280347   2.536   3.606   1.074  0.4568 -0.1347  0.1795
19619TIP3    H180348   2.531   3.518   1.038  1.4864 -0.8036  1.6243
19619TIP3    H280349   2.445   3.635   1.080  0.1403 -0.9495 -0.6334
19620TIP3   OH280350   2.023   0.182   4.618 -0.0347 -0.0788 -0.6202
19620TIP3    H180351   1.948   0.129   4.590 -0.8612  0.6654  0.1482
19620TIP3    H280352   2.064   0.129   4.687  0.9195 -1.0697 -1.9194
19621TIP3   OH280353   1.777   4.722  15.617  0.0815 -0.2634 -0.4104
19621TIP3    H180354   1.788   4.799  15.561  0.3385 -1.1306 -1.5898
19621TIP3    H280355   1.825   4.742  15.697  1.2557  0.2587 -1.2437
19622TIP3   OH280356   1.991   5.179  16.947  0.2832 -0.0915 -0.5233
19622TIP3    H180357   2.080   5.213  16.953 -0.1961  0.7655  2.7732
19622TIP3    H280358   1.944   5.224  17.017 -2.1529 -2.2716 -0.7073
19623TIP3   OH280359   1.449   0.812   0.906 -0.0018  0.0490  0.6300
19623TIP3    H180360   1.396   0.797   0.828  0.8026 -2.0003  0.4247
19623TIP3    H280361   1.450   0.907   0.918  0.2213  0.4325 -2.1256
19624TIP3   OH280362   2.017   5.994   2.487 -0.1764 -0.0245 -0.3638
19624TIP3    H180363   2.014   5.900   2.505 -0.6575  0.4827  2.5242
19624TIP3    H280364   1.935   6.012   2.441 -0.9537 -0.7277  0.7279
19625TIP3   OH280365   3.691   0.659   0.704  0.3001 -0.0157 -0.2039
19625TIP3    H180366   3.766   0.716   0.688  1.4771 -1.5052 -0.1150
19625TIP3    H280367   3.705   0.626   0.793  0.6131 -1.8548 -0.9112
19626TIP3   OH280368   0.857   2.399  12.012 -0.2306 -0.2336  0.2000
19626TIP3    H180369   0.842   2.331  11.947  0.9225 -0.3489  0.0407
19626TIP3    H280370   0.848   2.481  11.963 -0.0736 -0.3054  0.0501
19627TIP3   OH280371   4.741   6.249  12.475 -0.0383 -0.4912  0.4597
19627TIP3    H180372   4.818   6.296  12.440 -0.6628 -0.1407 -0.4699
19627TIP3    H280373   4.741   6.165  12.429 -2.0757  0.7968 -2.0645
19628TIP3   OH280374   3.828   5.781  16.257 -0.2325 -0.5935  0.2370
19628TIP3    H180375   3.873   5.849  16.308 -0.7684  1.5662 -2.0699
19628TIP3    H280376   3.755   5.754  16.313 -0.7585  1.6568  0.6993
19629TIP3   OH280377   1.638   4.466  15.099  0.6019 -0.4497 -0.5287
19629TIP3    H180378   1.590   4.391  15.134 -0.2204  0.3873  0.1688
19629TIP3    H280379   1.569   4.528  15.073  1.2934  0.9859  0.9712
19630TIP3   OH280380   1.242   2.064   5.531  0.0634 -0.0547  0.2744
19630TIP3    H180381   1.229   2.158   5.520  1.6316  0.1082 -0.1629
19630TIP3    H280382   1.334   2.049   5.512 -0.3738 -1.8268 -0.5888
19631TIP3   OH280383   1.003   2.641  12.217  0.3020 -0.3977 -0.1540
19631TIP3    H180384   0.958   2.561  12.188 -0.2538 -0.1769  0.0833
19631TIP3    H280385   1.007   2.633  12.312 -0.3927  0.1752 -0.0654
19632TIP3   OH280386   4.737   3.848  12.656 -0.2800 -0.1507  0.0487
19632TIP3    H180387   4.822   3.882  12.682 -0.8400  1.8677 -0.6502
19632TIP3    H280388   4.733   3.861  12.561 -1.4195 -0.0852  0.0939
19633TIP3   OH280389   5.241   0.019   2.754  0.0898 -0.1491 -0.1176
19633TIP3    H180390   5.231  -0.075   2.738 -0.6188 -0.2575  0.9278
19633TIP3    H280391   5.328   0.027   2.795 -0.4819 -0.5338  1.1940
19634TIP3   OH280392   1.343   6.719   5.863 -0.2623  0.3222  0.2474
19634TIP3    H180393   1.297   6.784   5.809 -0.4541  0.3528  0.4461
19634TIP3    H280394   1.435   6.728   5.838 -0.1903  1.2002  0.8246
19635TIP3   OH280395   5.022   5.197  16.945  0.0880 -0.2716 -0.1824
19635TIP3    H180396   4.953   5.133  16.928  1.1647 -1.2649 -0.8279
19635TIP3    H280397   5.060   5.170  17.029 -0.7173  0.6609  0.5053
19636TIP3   OH280398   1.538   2.643   0.751  0.8383  0.3093  0.1296
19636TIP3    H180399   1.624   2.675   0.724  1.4825 -2.2975 -1.1168
19636TIP3    H280400   1.553   2.551   0.773 -1.3595  0.1995  1.3112
19637TIP3   OH280401   1.324   1.217   2.721 -0.3251 -0.6659 -0.7153
19637TIP3    H180402   1.346   1.252   2.808 -0.1992 -1.2045 -0.5324
19637TIP3    H280403   1.248   1.161   2.737  0.7392 -2.1224 -0.6748
19638TIP3   OH280404   3.659   2.736   2.374 -0.1604  0.4598 -0.5277
19638TIP3    H180405   3.681   2.828   2.363 -0.2212  0.5196 -0.1611
19638TIP3    H280406   3.631   2.707   2.287 -3.4923  1.6713  0.0445
19639TIP3   OH280407   4.252   2.739  14.205  0.2957  0.0287  0.1449
19639TIP3    H180408   4.225   2.831  14.201  2.0491  0.5808  0.3492
19639TIP3    H280409   4.299   2.732  14.289 -0.0506 -1.1194  0.2535
19640TIP3   OH280410   4.451   3.875  12.730  0.2351 -0.1176  0.9055
19640TIP3    H180411   4.423   3.965  12.712 -2.1515 -0.9356  0.3322
19640TIP3    H280412   4.541   3.871  12.698 -0.2395  1.5876 -0.7533
19641TIP3   OH280413   0.618   0.072  17.162 -0.0118  0.0041  0.4286
19641TIP3    H180414   0.592   0.089  17.252  1.9454 -0.9698  1.2082
19641TIP3    H280415   0.643  -0.021  17.161 -0.6114 -0.1601 -1.2531
19642TIP3   OH280416   2.257   5.581  14.465  0.2648 -0.3859 -0.0989
19642TIP3    H180417   2.189   5.554  14.403  0.8412 -0.8414 -0.5420
19642TIP3    H280418   2.312   5.503  14.475  0.8450  0.0457  0.0971
19643TIP3   OH280419   3.518   4.354   5.274  0.1569 -0.1780  0.1166
19643TIP3    H180420   3.501   4.441   5.309 -0.4885 -0.6223  0.9216
19643TIP3    H280421   3.432   4.321   5.248  0.2469 -1.0096  0.8459
19644TIP3   OH280422   5.553   1.262   0.235  0.0142  0.1128  0.4539
19644TIP3    H180423   5.538   1.346   0.277 -0.0972  0.6024 -0.5552
19644TIP3    H280424   5.648   1.254   0.230  0.0256  0.1308  0.6550
19645TIP3   OH280425   3.919   3.265  14.510  0.1170  0.1626  0.3436
19645TIP3    H180426   4.014   3.276  14.499 -0.1022  0.8015 -1.0749
19645TIP3    H280427   3.909   3.218  14.593  1.7936 -2.0602 -0.6681
19646TIP3   OH280428   6.060   0.654   4.987  0.3112 -0.1510 -0.1463
19646TIP3    H180429   6.080   0.605   5.067 -0.4527 -0.8877 -0.4022
19646TIP3    H280430   6.114   0.733   4.994 -1.5552  0.9975  2.2562
19647TIP3   OH280431   4.537   3.550  16.757  0.3093  0.3419 -0.8716
19647TIP3    H180432   4.466   3.522  16.815 -1.1841 -0.3226 -2.9489
19647TIP3    H280433   4.547   3.643  16.774  1.6859 -0.3428  2.2943
19648TIP3   OH280434   2.483   3.442  16.758  0.0961 -0.1235 -0.1487
19648TIP3    H180435   2.427   3.440  16.836 -1.2544 -0.2954 -1.1109
19648TIP3    H280436   2.547   3.512  16.777 -0.6430  0.3093  0.8212
19649TIP3   OH280437   1.967   2.051   1.170 -0.0352 -0.1976  0.2942
19649TIP3    H180438   1.989   2.127   1.115 -1.8635 -0.6902 -1.1818
19649TIP3    H280439   1.972   2.085   1.260 -3.2657  2.4414 -0.3909
19650TIP3   OH280440   4.618   1.768  13.744 -0.1990 -0.4906 -0.3723
19650TIP3    H180441   4.606   1.862  13.729 -0.3389 -0.3890  0.3929
19650TIP3    H280442   4.646   1.735  13.658 -3.2229 -0.3009 -1.4980
19651TIP3   OH280443   6.080   2.930  13.101  0.5934  0.2587 -0.3190
19651TIP3    H180444   6.151   2.984  13.136 -1.5777  3.7956 -1.1806
19651TIP3    H280445   6.103   2.917  13.008  2.1622 -2.1721  0.3532
19652TIP3   OH280446   1.170   1.783   2.157  0.5710 -0.2417 -0.0105
19652TIP3    H180447   1.147   1.695   2.187 -1.0155 -0.2752 -1.2822
19652TIP3    H280448   1.160   1.779   2.062 -1.0483  1.7285  0.0472
19653TIP3   OH280449   0.072   1.987   3.036 -0.2094 -0.4325 -0.4760
19653TIP3    H180450   0.126   1.954   2.964  3.3571 -0.7512  2.2332
19653TIP3    H280451   0.105   2.075   3.053  0.5241 -1.1867  2.2051
19654TIP3   OH280452   5.568   2.640  14.176 -0.9056 -0.1065  0.2772
19654TIP3    H180453   5.513   2.607  14.105  1.9048 -1.6397 -1.2621
19654TIP3    H280454   5.596   2.562  14.223  0.6997  0.5497  0.4488
19655TIP3   OH280455   2.953   0.607   3.716  0.2933  0.3201  0.0276
19655TIP3    H180456   2.882   0.553   3.682 -0.1571  0.4870  0.7097
19655TIP3    H280457   3.026   0.547   3.726 -0.2179 -0.1729  0.8153
19656TIP3   OH280458   0.020   5.780  16.575 -0.4949  0.6221 -0.1766
19656TIP3    H180459  -0.045   5.713  16.554  0.8638 -0.0435 -2.3651
19656TIP3    H280460   0.077   5.739  16.639 -1.9089  1.0535  1.4091
19657TIP3   OH280461   4.202   0.761  11.217 -0.5222  0.7199  0.2352
19657TIP3    H180462   4.244   0.834  11.261  0.1698  0.9599 -0.7824
19657TIP3    H280463   4.213   0.781  11.123 -2.3725  0.4742 -0.0440
19658TIP3   OH280464   2.015   0.769  14.230  0.3505 -0.4796  0.2730
19658TIP3    H180465   2.104   0.763  14.264 -0.3551 -3.0846  1.8101
19658TIP3    H280466   1.961   0.783  14.308 -0.6714  0.0299 -0.5263
19659TIP3   OH280467   2.362   5.116  13.190  0.0934  0.3635  0.0505
19659TIP3    H180468   2.367   5.192  13.249  0.6189  0.6002 -0.2932
19659TIP3    H280469   2.321   5.151  13.111 -0.3317  0.1160  0.1580
19660TIP3   OH280470   1.570   5.688   4.562 -0.5475  0.2725  0.1901
19660TIP3    H180471   1.528   5.774   4.572 -0.7289  0.3501 -1.1383
19660TIP3    H280472   1.585   5.658   4.652  0.7108  2.2740  0.6826
19661TIP3   OH280473   6.489   5.917   3.988 -0.0716 -0.1769 -0.5696
19661TIP3    H180474   6.512   5.888   4.076 -0.6715 -0.2387 -0.4377
19661TIP3    H280475   6.562   5.887   3.933  0.2361 -0.2509 -0.1196
19662TIP3   OH280476   4.810   5.930  15.067  0.3039  0.1048  0.4261
19662TIP3    H180477   4.818   5.982  14.986  0.4961  0.7011  0.8195
19662TIP3    H280478   4.895   5.941  15.110  0.3306 -0.5179  0.5261
19663TIP3   OH280479   4.829   2.412   3.188 -0.3141 -0.1827 -0.0552
19663TIP3    H180480   4.778   2.331   3.183 -0.7181  0.0603  0.1686
19663TIP3    H280481   4.781   2.468   3.249  0.7115 -0.3076  0.8884
19664TIP3   OH280482   4.292   1.680   0.010 -0.4057 -0.0828 -0.1179
19664TIP3    H180483   4.244   1.627   0.074 -1.2619 -0.4090 -1.0119
19664TIP3    H280484   4.346   1.738   0.063 -0.9890 -0.4433  0.9007
19665TIP3   OH280485   1.320   1.282   2.997 -0.3864  0.4720 -0.1368
19665TIP3    H180486   1.377   1.311   3.068 -1.0897  2.1353 -0.2287
19665TIP3    H280487   1.232   1.290   3.032 -0.5737 -2.2250  0.0470
19666TIP3   OH280488   5.117   3.779  14.036 -0.4433  0.1418  0.4930
19666TIP3    H180489   5.108   3.831  14.116 -0.8635  0.3902  0.2869
19666TIP3    H280490   5.132   3.843  13.967 -1.0562  0.0015  0.2249
19667TIP3   OH280491   2.487   4.553   6.427 -0.1793  0.2651 -0.6021
19667TIP3    H180492   2.540   4.488   6.381 -0.2122  0.3148 -0.7109
19667TIP3    H280493   2.514   4.637   6.391  0.5603  0.3948  0.2410
19668TIP3   OH280494   5.255   5.241  11.382 -0.1459  0.5489 -0.3005
19668TIP3    H180495   5.251   5.315  11.443  1.9488  2.1032 -1.9733
19668TIP3    H280496   5.169   5.240  11.340 -0.2537  1.9590 -0.1433
19669TIP3   OH280497   6.226   3.669  16.709 -0.5272  0.9100  0.7895
19669TIP3    H180498   6.295   3.660  16.775 -0.5709  1.7452  0.9559
19669TIP3    H280499   6.172   3.590  16.720  0.7368 -0.0358  0.2495
19670TIP3   OH280500   0.556   2.291  17.151 -0.2930 -0.8744 -0.7746
19670TIP3    H180501   0.522   2.292  17.061 -0.3195  0.2179 -0.7592
19670TIP3    H280502   0.606   2.372  17.158  0.5601 -1.4538 -0.1205
19671TIP3   OH280503   2.414   3.075  16.380  0.2784  0.1309 -0.4533
19671TIP3    H180504   2.409   3.126  16.461 -0.2725  0.0766 -0.4525
19671TIP3    H280505   2.507   3.061  16.366  0.3418 -0.3340  0.4656
19672TIP3   OH280506   0.381   4.582   6.162 -0.0976  0.8485 -0.5063
19672TIP3    H180507   0.463   4.603   6.208 -1.1351  2.6272  0.6264
19672TIP3    H280508   0.339   4.517   6.218 -0.4034  1.4751 -0.0015
19673TIP3   OH280509   3.246   2.304   6.085 -0.9251  0.7965 -0.3504
19673TIP3    H180510   3.222   2.261   6.167  0.1358  0.2782 -0.2981
19673TIP3    H280511   3.316   2.364   6.109 -1.3370  1.4277 -0.6979
19674TIP3   OH280512   6.711   5.733  13.957 -0.4897 -0.5093 -0.1064
19674TIP3    H180513   6.740   5.716  13.867  1.8926 -0.7539  0.6610
19674TIP3    H280514   6.621   5.763  13.948  0.3125  1.3337 -2.7511
19675TIP3   OH280515   4.449   3.101  13.098 -0.1789  0.4102  0.2669
19675TIP3    H180516   4.453   3.183  13.049 -2.4507 -0.3564 -1.3204
19675TIP3    H280517   4.480   3.035  13.036  1.5890  0.0581  1.5185
19676TIP3   OH280518   4.263   0.885   6.328  0.1032 -0.1652 -0.5095
19676TIP3    H180519   4.185   0.920   6.372  1.0618  1.1734  0.1897
19676TIP3    H280520   4.311   0.840   6.397  0.7506  0.4351 -0.5564
19677TIP3   OH280521   5.188   2.851  12.303  0.5658 -0.7443  0.0727
19677TIP3    H180522   5.207   2.840  12.396  2.4548 -1.8581 -0.4017
19677TIP3    H280523   5.198   2.763  12.266 -1.7197 -0.6115 -0.9409
19678TIP3   OH280524   6.735   2.404   2.783 -0.2818  0.2595  0.8306
19678TIP3    H180525   6.727   2.323   2.832 -1.4871  0.2271  0.5950
19678TIP3    H280526   6.645   2.426   2.758  0.1197  1.2472  0.2265
19679TIP3   OH280527   2.831   5.117   5.849  0.0954  0.4516  0.6146
19679TIP3    H180528   2.891   5.144   5.918  1.3776 -0.8458  0.0277
19679TIP3    H280529   2.833   5.190   5.786 -1.7118  2.0008  2.3065
19680TIP3   OH280530   3.745   1.840   4.670  0.5879 -0.2708 -0.4199
19680TIP3    H180531   3.760   1.934   4.685 -0.0979 -0.0273 -1.1704
19680TIP3    H280532   3.686   1.814   4.741 -0.2271  0.1647 -0.9260
19681TIP3   OH280533   0.571   1.440  15.990 -0.0165 -1.1058  0.1249
19681TIP3    H180534   0.637   1.480  15.934  0.1343 -0.6281  0.6367
19681TIP3    H280535   0.488   1.475  15.958  0.1804  0.4327  1.1966
19682TIP3   OH280536   6.512   0.824  16.852  0.2617  0.2612  0.1111
19682TIP3    H180537   6.517   0.891  16.784 -0.6768 -0.0976 -0.3267
19682TIP3    H280538   6.465   0.866  16.924 -1.0722 -0.1840 -0.4926
19683TIP3   OH280539   6.723   0.121   3.982 -1.0411  0.8238 -0.0531
19683TIP3    H180540   6.693   0.187   3.919 -1.2901 -1.2417 -2.1701
19683TIP3    H280541   6.814   0.106   3.959 -1.6323 -1.2483 -1.1298
19684TIP3   OH280542   3.378   6.122  11.426  0.1244 -0.0420  0.4083
19684TIP3    H180543   3.361   6.148  11.517 -1.0327  1.6346 -0.2624
19684TIP3    H280544   3.313   6.055  11.408  0.8635 -0.9490  1.0495
19685TIP3   OH280545   3.946   6.171  11.726  0.0448 -0.2611  0.5002
19685TIP3    H180546   3.873   6.178  11.787  0.4757 -0.5590  1.0539
19685TIP3    H280547   4.024   6.184  11.780  0.3498  1.4141 -0.3046
19686TIP3   OH280548   3.332   1.470  14.727 -0.7926  0.4960 -0.1238
19686TIP3    H180549   3.343   1.375  14.733  2.6419  0.8614  0.2826
19686TIP3    H280550   3.302   1.497  14.814  0.0114 -0.0177  0.3163
19687TIP3   OH280551   5.698   6.517  14.926  0.1924 -0.1598 -0.2658
19687TIP3    H180552   5.704   6.455  14.854  1.4298 -1.5342  0.9817
19687TIP3    H280553   5.717   6.602  14.887  0.8530 -0.8951 -1.5473
19688TIP3   OH280554   4.755   3.146  16.970 -0.4730 -0.3288 -0.0062
19688TIP3    H180555   4.668   3.171  16.938 -1.0025 -0.2861  1.4340
19688TIP3    H280556   4.738   3.087  17.043  0.6882  0.7070  1.1147
19689TIP3   OH280557   6.323   1.792   4.679  0.1684  0.1109 -0.5416
19689TIP3    H180558   6.233   1.798   4.711 -0.1704 -1.4712 -1.1672
19689TIP3    H280559   6.368   1.867   4.719 -0.8327 -0.4210  1.6597
19690TIP3   OH280560   2.254   1.769   2.695 -0.4621  0.1749  0.5547
19690TIP3    H180561   2.285   1.824   2.767  1.3266 -1.6853  1.2789
19690TIP3    H280562   2.160   1.758   2.712  0.1253 -1.0984  3.2727
19691TIP3   OH280563   3.611   4.169   4.960 -0.1902 -0.0142  0.2901
19691TIP3    H180564   3.659   4.090   4.985 -1.4379 -1.2471 -1.0724
19691TIP3    H280565   3.519   4.142   4.962 -0.5018  0.7319 -2.4271
19692TIP3   OH280566   6.138   3.123  15.455 -0.3851 -0.3600  0.3655
19692TIP3    H180567   6.077   3.090  15.388  0.5410  0.6942 -1.0097
19692TIP3    H280568   6.088   3.117  15.537 -1.4040 -2.0149 -0.3412
19693TIP3   OH280569   4.283   5.009  10.810  0.3010 -0.0630  0.1400
19693TIP3    H180570   4.305   5.070  10.740 -0.3455  0.4212  0.3591
19693TIP3    H280571   4.337   4.932  10.792  0.1126  0.0386 -0.9094
19694TIP3   OH280572   6.109   4.285  15.900  0.1145 -0.3579 -0.2326
19694TIP3    H180573   6.136   4.348  15.834 -0.6059 -1.0037 -1.1550
19694TIP3    H280574   6.123   4.200  15.858  2.5960 -0.8873  1.5511
19695TIP3   OH280575   0.758   2.035  13.095 -0.2307 -0.5037 -0.4358
19695TIP3    H180576   0.749   2.022  13.189 -1.3822 -0.3183 -0.5143
19695TIP3    H280577   0.675   2.073  13.068  0.0573 -0.6446 -1.5480
19696TIP3   OH280578   5.054   2.136  13.400 -0.2662  0.3292  0.6708
19696TIP3    H180579   5.075   2.045  13.418 -0.1073  0.1548 -0.3597
19696TIP3    H280580   5.002   2.165  13.475 -0.4480 -0.6481  0.9195
19697TIP3   OH280581   0.684   0.775   4.419  0.4062 -0.2497  0.2728
19697TIP3    H180582   0.609   0.806   4.367  0.6130 -0.6956 -0.2919
19697TIP3    H280583   0.689   0.837   4.492  1.5308  1.7515 -1.4602
19698TIP3   OH280584   6.275   0.684  15.718 -0.2030  0.1721  0.2970
19698TIP3    H180585   6.229   0.604  15.744 -0.7901  0.1675 -0.7154
19698TIP3    H280586   6.232   0.710  15.636  0.3101  1.2535  0.3679
19699TIP3   OH280587   3.487   3.395   6.558  0.0396  0.4982  0.0473
19699TIP3    H180588   3.415   3.339   6.587  0.3606 -0.2343 -0.5570
19699TIP3    H280589   3.471   3.479   6.602  0.2208 -0.4159  1.9176
19700TIP3   OH280590   3.419   1.675  17.091  0.1174  0.0184  0.1860
19700TIP3    H180591   3.372   1.594  17.111 -1.6283  1.1621  0.8031
19700TIP3    H280592   3.506   1.662  17.129 -0.0043 -1.7049 -0.0622
19701TIP3   OH280593   3.050   6.147  15.154 -0.2276  0.6019 -0.1567
19701TIP3    H180594   3.122   6.125  15.096 -0.5440  1.2645 -0.8103
19701TIP3    H280595   3.077   6.113  15.239  0.6197  0.3810 -0.5044
19702TIP3   OH280596   4.105   4.476  14.997  0.2644  0.3270  0.5761
19702TIP3    H180597   4.141   4.441  14.915 -0.2964  0.8249  0.1113
19702TIP3    H280598   4.116   4.571  14.990  1.5606  0.2647  1.7275
19703TIP3   OH280599   3.635   1.640   4.217  0.3478  0.1534  0.3296
19703TIP3    H180600   3.620   1.561   4.268 -1.1851  1.1359  1.4267
19703TIP3    H280601   3.552   1.687   4.217 -0.0353 -0.2701 -3.9609
19704TIP3   OH280602   4.776   0.083   2.355  0.1281  0.2870  0.0547
19704TIP3    H180603   4.744   0.076   2.265 -1.1532  0.4400  0.4974
19704TIP3    H280604   4.734   0.011   2.402  2.1754 -0.8930  0.1506
19705TIP3   OH280605   3.755   3.384   1.487  0.2717  0.1035  0.4695
19705TIP3    H180606   3.821   3.407   1.421  0.4679  3.2963  1.6917
19705TIP3    H280607   3.678   3.436   1.464 -0.9912 -1.7499  0.4784
19706TIP3   OH280608   2.399   3.411  15.842  0.1242 -0.0326 -0.3299
19706TIP3    H180609   2.449   3.469  15.785  1.1821  0.7190  1.2965
19706TIP3    H280610   2.311   3.410  15.805  0.5837  1.0879 -1.4931
19707TIP3   OH280611   0.757   0.765  13.847 -0.7630  0.3325  0.3744
19707TIP3    H180612   0.813   0.734  13.918 -0.6971 -0.6078 -0.0909
19707TIP3    H280613   0.673   0.722  13.862 -0.7492  0.1311 -0.1212
19708TIP3   OH280614   6.734   2.779   5.495  0.5138  0.4688  0.2971
19708TIP3    H180615   6.767   2.802   5.582  0.1928  2.9156 -0.1891
19708TIP3    H280616   6.650   2.736   5.511  1.6505 -1.4479  1.3003
19709TIP3   OH280617   3.419   4.223   5.954 -0.1922  0.1420  0.3320
19709TIP3    H180618   3.455   4.304   5.918 -0.8705 -0.3047 -1.3991
19709TIP3    H280619   3.403   4.167   5.878  0.8908 -1.8973  1.5328
19710TIP3   OH280620   1.400   5.671  12.801 -0.5073  0.5220 -0.3566
19710TIP3    H180621   1.352   5.641  12.723 -0.5857 -0.0477 -0.0910
19710TIP3    H280622   1.488   5.687  12.769  0.2152 -2.4556  0.0038
19711TIP3   OH280623   1.406   4.345  14.927  0.3457 -0.3719  0.4511
19711TIP3    H180624   1.455   4.377  14.852 -1.2376  0.3193 -0.3136
19711TIP3    H280625   1.448   4.262  14.951 -0.9968 -2.1212 -3.0416
19712TIP3   OH280626   5.696   5.520  16.655 -0.6372 -0.2796  0.1381
19712TIP3    H180627   5.689   5.497  16.748 -2.1197  1.2784  0.4473
19712TIP3    H280628   5.615   5.489  16.616 -0.6875  0.4086 -0.3223
19713TIP3   OH280629   6.526   3.816   2.810 -0.0472 -0.2890  0.1692
19713TIP3    H180630   6.572   3.817   2.726  1.4367  0.6483  0.9726
19713TIP3    H280631   6.539   3.904   2.846  2.7000 -1.7906  3.1352
19714TIP3   OH280632   3.483   2.956   3.760 -0.0687 -0.5815  0.1936
19714TIP3    H180633   3.390   2.936   3.768 -0.4115 -0.4304 -2.7891
19714TIP3    H280634   3.524   2.914   3.836 -2.4205 -1.5447  0.9598
19715TIP3   OH280635   1.945   4.646   2.168 -0.0768 -0.7077 -0.0468
19715TIP3    H180636   1.870   4.651   2.227 -1.0702  1.0581 -1.4303
19715TIP3    H280637   2.016   4.612   2.222 -0.9660  0.8814  2.1713
19716TIP3   OH280638   0.110   5.205  11.543  0.2673 -0.0956 -0.2578
19716TIP3    H180639   0.188   5.151  11.558  0.5704  0.1531 -0.9116
19716TIP3    H280640   0.144   5.285  11.502 -0.1323  0.7752  1.0893
19717TIP3   OH280641   4.031   5.757   2.350  0.4495 -0.4100  0.1927
19717TIP3    H180642   4.060   5.772   2.440  2.0045 -1.2478 -0.1535
19717TIP3    H280643   3.960   5.820   2.337 -1.9949 -2.4609  3.0377
19718TIP3   OH280644   1.645   3.406   4.149 -0.3869  0.6942 -0.2947
19718TIP3    H180645   1.698   3.400   4.229  0.3380 -2.6058 -0.9309
19718TIP3    H280646   1.570   3.460   4.174  0.1254  0.2070  2.4840
19719TIP3   OH280647   6.672   0.127   2.891  0.1114  0.7149 -0.4338
19719TIP3    H180648   6.703   0.123   2.982  1.7470  0.5453 -0.9810
19719TIP3    H280649   6.577   0.139   2.898  0.0653 -0.5377  1.2935
19720TIP3   OH280650   5.543   6.296  16.974  1.3200  0.2545  0.0317
19720TIP3    H180651   5.499   6.234  17.033  1.3464 -0.8841 -1.1059
19720TIP3    H280652   5.626   6.316  17.017  1.1061 -0.1651  0.6419
19721TIP3   OH280653   6.411   3.136   2.927 -0.4462 -0.2072  0.1797
19721TIP3    H180654   6.327   3.181   2.920  0.0407  0.5861 -0.6365
19721TIP3    H280655   6.474   3.195   2.885  0.0418 -2.1157 -1.8488
19722TIP3   OH280656   6.459   5.965  14.572  0.0172 -0.0189 -0.0992
19722TIP3    H180657   6.413   6.048  14.560 -0.0884  0.0265  0.6112
19722TIP3    H280658   6.550   5.985  14.550  0.1539  0.5024  0.8819
19723TIP3   OH280659   2.663   0.906   4.100  0.1483  0.7851  0.2894
19723TIP3    H180660   2.689   0.849   4.028  0.3347  1.0273  0.1627
19723TIP3    H280661   2.639   0.989   4.058 -3.9886 -0.3967  0.0445
19724TIP3   OH280662   6.409   4.215  12.278  0.1896 -0.9056  0.1119
19724TIP3    H180663   6.487   4.253  12.237  0.5857 -0.4006  1.3345
19724TIP3    H280664   6.339   4.234  12.215  0.2376  2.4492  0.9537
19725TIP3   OH280665   5.171   4.081  13.323 -0.3212  0.3118  0.5143
19725TIP3    H180666   5.208   4.142  13.259 -1.7096  1.0333  0.3640
19725TIP3    H280667   5.078   4.077  13.300 -0.1508 -2.3956  0.0983
19726TIP3   OH280668   4.954   4.161   3.034 -0.4896  0.0816 -0.2045
19726TIP3    H180669   5.000   4.101   2.974 -0.6200  0.0528 -0.2768
19726TIP3    H280670   4.862   4.153   3.009 -0.4098  0.9717 -0.8007
19727TIP3   OH280671   5.048   5.122  11.971 -0.4271  0.3305  0.3012
19727TIP3    H180672   5.071   5.151  12.059 -2.1040  0.7510  0.6249
19727TIP3    H280673   4.955   5.143  11.962 -0.0495  1.1923 -1.9307
19728TIP3   OH280674   5.611   4.350   0.450 -0.0876 -0.0262  0.0134
19728TIP3    H180675   5.638   4.275   0.503  0.0004  0.9196  1.3349
19728TIP3    H280676   5.542   4.316   0.393  0.6811 -1.3525 -0.1236
19729TIP3   OH280677   4.844   6.485   1.379 -0.4529 -0.0060 -0.0057
19729TIP3    H180678   4.825   6.440   1.297 -3.0088 -0.1783  0.6390
19729TIP3    H280679   4.812   6.425   1.447 -2.4267  2.0658  0.9424
19730TIP3   OH280680   5.109   3.074  17.284  0.3500 -0.0112  0.0294
19730TIP3    H180681   5.204   3.066  17.269  0.2024 -1.7870 -0.1126
19730TIP3    H280682   5.084   3.155  17.240  1.5485 -0.3353 -1.2787
19731TIP3   OH280683   4.659   6.795   6.343  0.4227  0.6488 -0.5397
19731TIP3    H180684   4.626   6.760   6.426 -0.9018  2.0112 -0.4581
19731TIP3    H280685   4.592   6.773   6.279  0.3329  1.6260 -0.7872
19732TIP3   OH280686   5.070   5.231   1.152  0.1877  0.2854  0.6539
19732TIP3    H180687   5.074   5.315   1.198 -1.4430 -0.6449  2.5233
19732TIP3    H280688   4.977   5.217   1.134  0.5195 -0.7769 -0.3368
19733TIP3   OH280689   5.619   3.778  12.155  0.1028 -0.0232  0.1677
19733TIP3    H180690   5.617   3.692  12.196  1.9171 -0.8241 -1.3380
19733TIP3    H280691   5.674   3.831  12.212 -1.1150  0.2057  1.1606
19734TIP3   OH280692   0.840   6.055   1.661  0.5192  0.1052  0.4752
19734TIP3    H180693   0.880   5.998   1.726 -0.6657 -0.9203  0.3148
19734TIP3    H280694   0.778   6.109   1.710 -1.2054 -1.4483  0.0602
19735TIP3   OH280695   2.945   4.943  10.928 -0.4135  0.0071  0.6996
19735TIP3    H180696   2.942   4.867  10.986  2.3492 -0.5790  0.1360
19735TIP3    H280697   2.986   5.011  10.981 -1.3842  0.6187  0.6687
19736TIP3   OH280698   6.594   4.170  14.893 -0.1894  0.4174  0.3416
19736TIP3    H180699   6.509   4.210  14.872 -0.2036 -0.4084 -1.2341
19736TIP3    H280700   6.651   4.198  14.821  0.8342  0.7927  1.2866
19737TIP3   OH280701   5.261   4.217  13.909  0.0736  0.3910 -0.2560
19737TIP3    H180702   5.254   4.310  13.933  2.1827  0.1227  1.6007
19737TIP3    H280703   5.300   4.218  13.822 -2.3728  1.2807 -1.3884
19738TIP3   OH280704   3.106   6.192   5.332 -0.4346  0.0141  0.4913
19738TIP3    H180705   3.112   6.235   5.246 -0.0341  0.6966  0.8572
19738TIP3    H280706   3.037   6.127   5.321 -1.0825  0.7814 -0.0527
19739TIP3   OH280707   0.409   5.498   5.595  0.0713 -0.5245 -0.7242
19739TIP3    H180708   0.382   5.466   5.509 -1.2517 -0.0950 -0.4795
19739TIP3    H280709   0.433   5.590   5.580  0.1009 -0.5261 -0.6864
19740TIP3   OH280710   3.949   6.014   4.297 -0.0704  0.9025  0.6888
19740TIP3    H180711   3.928   6.006   4.204  2.7429  0.8851  0.0166
19740TIP3    H280712   3.987   6.101   4.307  3.7107 -0.6498  0.9050
19741TIP3   OH280713   4.760   3.589  12.696 -0.4426 -0.7098  0.2120
19741TIP3    H180714   4.737   3.681  12.685  1.3586 -0.4322 -1.4820
19741TIP3    H280715   4.683   3.541  12.666 -0.7808  0.2295 -0.4459
19742TIP3   OH280716   3.957   6.777   1.843  0.3481  0.1494 -0.5497
19742TIP3    H180717   3.865   6.790   1.865  0.3012 -0.0061 -0.6511
19742TIP3    H280718   3.955   6.728   1.761  0.5218  0.1224 -0.5385
19743TIP3   OH280719   6.455   6.296   0.837  0.4177 -0.6321 -0.2205
19743TIP3    H180720   6.512   6.309   0.761  0.1341 -1.3511 -0.5549
19743TIP3    H280721   6.451   6.201   0.848  1.7393 -0.5055  1.6615
19744TIP3   OH280722   3.372   2.814   0.698  0.5813 -0.1847  0.1069
19744TIP3    H180723   3.319   2.792   0.621  1.9787  0.0566 -0.9543
19744TIP3    H280724   3.350   2.905   0.717  0.5889 -0.0928 -0.3135
19745TIP3   OH280725   3.716   5.166  15.293  0.2279 -0.1187 -1.0253
19745TIP3    H180726   3.736   5.073  15.306 -0.0409  0.2077  2.2183
19745TIP3    H280727   3.654   5.187  15.363  2.5555  3.1835  0.2034
19746TIP3   OH280728   2.318   0.833  13.117 -0.1606 -0.1324 -0.6447
19746TIP3    H180729   2.313   0.906  13.055  0.3490  0.2249 -0.2635
19746TIP3    H280730   2.349   0.759  13.064 -0.3414  0.0064 -0.9499
19747TIP3   OH280731   6.609   4.442   6.217  0.4094 -0.0539  0.2841
19747TIP3    H180732   6.651   4.371   6.266  1.0966  1.1345  1.4641
19747TIP3    H280733   6.528   4.403   6.184  1.0783 -1.5655  0.3731
19748TIP3   OH280734   0.100   3.069   2.757 -0.5113  0.0763  0.0415
19748TIP3    H180735   0.040   3.000   2.727 -2.6850  1.4637  1.0942
19748TIP3    H280736   0.171   3.068   2.693 -1.9595 -1.1722 -1.6024
19749TIP3   OH280737   0.085   3.419  11.846 -0.1522  0.0139 -0.0962
19749TIP3    H180738   0.053   3.329  11.858 -0.4847  0.3424  1.6970
19749TIP3    H280739   0.048   3.467  11.921  1.6314  1.2071  0.0394
19750TIP3   OH280740   6.634   1.949   1.859  0.1434 -0.4641  0.0887
19750TIP3    H180741   6.682   1.949   1.942 -0.5697 -2.8415  0.5235
19750TIP3    H280742   6.541   1.944   1.885 -0.1997  0.8083 -0.8258
19751TIP3   OH280743   0.600   6.188   2.346  0.4711  0.4193 -0.2367
19751TIP3    H180744   0.573   6.279   2.329  2.1512  0.5156 -2.6659
19751TIP3    H280745   0.536   6.135   2.298 -0.1755  0.3249  0.7174
19752TIP3   OH280746   0.328   6.006  15.873 -0.1356 -0.3148 -0.0022
19752TIP3    H180747   0.234   6.020  15.869 -0.0202  0.6816  0.5304
19752TIP3    H280748   0.353   6.036  15.961  0.6808 -0.5429 -0.1499
19753TIP3   OH280749   6.539   3.051  12.357 -0.0561 -0.3637  0.3322
19753TIP3    H180750   6.529   2.981  12.294 -0.0596 -0.9567  0.9862
19753TIP3    H280751   6.450   3.082  12.373  0.0612  0.6225 -0.8853
19754TIP3   OH280752   4.841   0.689  11.607 -0.4015  0.7395  0.1543
19754TIP3    H180753   4.776   0.636  11.651 -0.6569  1.9784  1.2958
19754TIP3    H280754   4.801   0.711  11.523 -1.3062  1.1835  0.6974
19755TIP3   OH280755   2.143   2.088   3.662  0.5600 -0.1121 -0.3364
19755TIP3    H180756   2.050   2.096   3.682  0.7500  0.5308  0.2923
19755TIP3    H280757   2.170   2.177   3.637  1.7886  0.4747  2.8682
19756TIP3   OH280758   5.589   6.189  12.720  0.2126 -0.6502  0.8427
19756TIP3    H180759   5.559   6.247  12.791  0.7137 -1.0492  1.3901
19756TIP3    H280760   5.562   6.102  12.748  0.2687 -0.7918  0.4547
19757TIP3   OH280761   2.581   0.887  13.152 -0.5162  0.4491 -0.2200
19757TIP3    H180762   2.487   0.875  13.143 -0.6620  1.0511  0.5081
19757TIP3    H280763   2.599   0.867  13.243 -0.0972  1.3675 -0.0958
19758TIP3   OH280764   4.617   4.601  13.168 -0.8812  0.2441  0.0913
19758TIP3    H180765   4.602   4.612  13.262  0.1223 -1.3343  0.4572
19758TIP3    H280766   4.557   4.663  13.127 -2.2370  0.0680  1.7356
19759TIP3   OH280767   4.977   2.589   0.929  0.3992 -1.1590  0.8796
19759TIP3    H180768   4.931   2.554   1.005  0.3881 -3.8680 -0.3344
19759TIP3    H280769   4.969   2.521   0.862  3.0766 -0.1583 -0.5489
19760TIP3   OH280770   0.200   2.196  15.075  0.4497 -1.0876 -0.2048
19760TIP3    H180771   0.288   2.164  15.054  0.7330 -0.7440  0.4273
19760TIP3    H280772   0.143   2.153  15.012  0.6682 -3.8047  1.3794
19761TIP3   OH280773   4.909   0.712   0.656 -0.0739  0.4609  0.0486
19761TIP3    H180774   4.988   0.660   0.645 -0.1238  0.6767 -1.3820
19761TIP3    H280775   4.941   0.801   0.670 -0.0458  0.4189  0.2514
19762TIP3   OH280776   3.882   1.298   4.586 -0.5629  0.0902  0.3867
19762TIP3    H180777   3.907   1.371   4.530  1.9282 -0.3313  0.9114
19762TIP3    H280778   3.793   1.275   4.557 -1.1384  2.8744 -0.2158
19763TIP3   OH280779   4.197   6.699   0.870 -0.2460 -0.2252  0.1352
19763TIP3    H180780   4.180   6.644   0.947 -1.8307  0.1348  0.0491
19763TIP3    H280781   4.235   6.639   0.806 -1.4772 -1.1035  0.2293
19764TIP3   OH280782   6.447   0.217   6.073 -0.4414 -0.4859  0.7023
19764TIP3    H180783   6.352   0.214   6.063 -0.6218  0.2564  2.0115
19764TIP3    H280784   6.466   0.153   6.142  0.0018 -0.6486  0.4273
19765TIP3   OH280785   6.229   6.332   5.660 -0.0635 -0.5491 -0.7249
19765TIP3    H180786   6.207   6.422   5.635 -0.9683 -0.4996  0.2042
19765TIP3    H280787   6.171   6.278   5.606 -1.3458 -0.4758  0.5597
19766TIP3   OH280788   0.890   5.510  13.340  0.3845  0.1017 -0.6687
19766TIP3    H180789   0.979   5.483  13.361  0.6808  2.2460  0.9361
19766TIP3    H280790   0.837   5.474  13.410  0.1896  0.0696 -0.8334
19767TIP3   OH280791   3.076   5.271   1.529 -0.0510  0.2842 -0.2705
19767TIP3    H180792   3.059   5.337   1.596 -0.9989  1.9211 -2.0820
19767TIP3    H280793   3.154   5.302   1.483  1.7138 -1.7870  1.2158
19768TIP3   OH280794   6.204   1.906   5.141  0.4969  0.0104 -0.0571
19768TIP3    H180795   6.182   1.981   5.196  0.9410  1.9248 -2.4140
19768TIP3    H280796   6.125   1.889   5.089  0.7278 -0.5451 -0.2360
19769TIP3   OH280797   5.020   4.048   3.663  0.2790  0.2263  0.1389
19769TIP3    H180798   5.053   3.958   3.672  0.3275  0.4063  1.9747
19769TIP3    H280799   4.944   4.051   3.721  0.0614  1.2584 -0.2034
19770TIP3   OH280800   1.823   4.552   4.014 -0.2176 -0.0621 -0.2588
19770TIP3    H180801   1.821   4.578   3.922  1.8270  1.3759  0.0886
19770TIP3    H280802   1.758   4.608   4.057 -0.4041  0.0017 -0.6244
19771TIP3   OH280803   1.721   2.162  13.335 -0.0480 -0.4127  0.0113
19771TIP3    H180804   1.724   2.075  13.375 -1.4207 -0.5382 -0.1546
19771TIP3    H280805   1.813   2.188  13.329  0.3120 -1.3702  1.1097
19772TIP3   OH280806   3.761   6.591   6.649 -0.0581  0.4799  0.5018
19772TIP3    H180807   3.726   6.516   6.602  0.3614 -0.4324  1.6186
19772TIP3    H280808   3.848   6.564   6.677 -0.1424  1.1390  1.4439
19773TIP3   OH280809   0.387   1.141   1.041  0.4972  0.0263 -0.4009
19773TIP3    H180810   0.411   1.215   1.097  0.5784 -0.2220 -0.1054
19773TIP3    H280811   0.345   1.079   1.100 -0.4227  0.2410 -0.8296
19774TIP3   OH280812   5.742   0.685   6.184 -0.5515  0.0775  0.6678
19774TIP3    H180813   5.797   0.713   6.257 -1.9253  1.8557  1.0311
19774TIP3    H280814   5.804   0.648   6.121  0.6879 -1.1473  2.5451
19775TIP3   OH280815   3.606   2.656   1.611 -0.2008 -0.0198  0.2754
19775TIP3    H180816   3.552   2.709   1.671 -2.5362 -1.4229 -0.5198
19775TIP3    H280817   3.686   2.708   1.600 -0.6628  1.3539  2.7892
19776TIP3   OH280818   6.365   6.685   3.795 -0.1880 -0.4906 -0.5525
19776TIP3    H180819   6.315   6.607   3.771 -0.0634 -0.1201 -2.0499
19776TIP3    H280820   6.449   6.651   3.825 -0.6528 -1.0068  0.2004
19777TIP3   OH280821   0.394   6.077   3.812 -0.4615 -0.1676 -0.4431
19777TIP3    H180822   0.416   6.067   3.720 -0.4917  1.2127 -0.6072
19777TIP3    H280823   0.342   5.999   3.833  0.2281 -0.8843 -1.3752
19778TIP3   OH280824   6.040   1.899  12.920 -0.0460 -0.3204  0.2595
19778TIP3    H180825   6.038   1.925  12.828 -0.7413  0.0878  0.3798
19778TIP3    H280826   5.953   1.863  12.936  0.4691 -1.4812  0.4488
19779TIP3   OH280827   2.312   6.029   4.269 -0.5033  0.0536  0.2068
19779TIP3    H180828   2.238   5.978   4.236  0.9066 -0.7026 -1.8850
19779TIP3    H280829   2.335   5.986   4.352 -2.4327  0.3525  0.9163
19780TIP3   OH280830   0.125   1.543   1.252  0.3879  0.0570 -0.1512
19780TIP3    H180831   0.074   1.469   1.284  0.0412 -0.4554 -1.8470
19780TIP3    H280832   0.209   1.535   1.298 -0.0945 -0.6539  0.6287
19781TIP3   OH280833   6.234   4.306   4.876 -0.2944 -0.0357 -0.0626
19781TIP3    H180834   6.143   4.285   4.895 -0.6672  1.1114 -0.5398
19781TIP3    H280835   6.279   4.300   4.961 -0.5588 -1.8201 -0.0369
19782TIP3   OH280836   1.120   4.021   0.391  0.0796  0.2921  0.0867
19782TIP3    H180837   1.134   3.935   0.352 -0.9496 -0.2710  0.9374
19782TIP3    H280838   1.181   4.079   0.344  1.3336 -1.0410  0.0221
19783TIP3   OH280839   0.395   5.672   0.402 -0.3387  0.2717 -0.1025
19783TIP3    H180840   0.333   5.601   0.418  1.1065 -0.8699  0.6261
19783TIP3    H280841   0.424   5.699   0.489 -0.2084  1.1656 -0.4149
19784TIP3   OH280842   4.251   2.887  12.885  0.3701 -0.5029  0.0359
19784TIP3    H180843   4.227   2.904  12.794  1.1499 -0.9381 -0.2610
19784TIP3    H280844   4.327   2.943  12.900 -0.7682  0.8253  0.9378
19785TIP3   OH280845   2.065   3.025   1.128  0.2714  0.6996 -0.1080
19785TIP3    H180846   2.038   3.044   1.038  1.3675  2.9094  0.0007
19785TIP3    H280847   2.014   3.086   1.182 -0.5248 -0.7407  0.8038
19786TIP3   OH280848   3.232   5.662   4.462 -0.2420  0.6058 -0.1016
19786TIP3    H180849   3.257   5.689   4.373  0.6449  0.4449  0.0981
19786TIP3    H280850   3.312   5.627   4.500 -1.1258 -1.2820  0.0488
19787TIP3   OH280851   2.467   2.317  14.872 -0.8680  0.2810  0.1283
19787TIP3    H180852   2.426   2.271  14.945 -0.1361  0.8914  0.9343
19787TIP3    H280853   2.530   2.376  14.913 -1.0650  1.2568 -0.9528
19788TIP3   OH280854   6.334   3.459   1.246  0.0002 -0.2317 -0.0026
19788TIP3    H180855   6.247   3.464   1.285 -0.0958 -1.8632  0.0221
19788TIP3    H280856   6.382   3.397   1.301  0.3870 -1.2682 -1.4864
19789TIP3   OH280857   0.193   5.132  16.718 -0.4598  0.0243 -0.7080
19789TIP3    H180858   0.277   5.132  16.673 -1.3628  0.3469 -2.4243
19789TIP3    H280859   0.199   5.203  16.782  0.6720 -0.1545 -0.6199
19790TIP3   OH280860   0.626   2.683  13.028 -0.2435 -0.4079  0.6563
19790TIP3    H180861   0.567   2.612  13.054 -1.8126  0.9259  0.8343
19790TIP3    H280862   0.624   2.744  13.102  1.7828 -0.5885  0.8844
19791TIP3   OH280863   5.561   3.187  15.603  0.3441 -0.2391  0.4561
19791TIP3    H180864   5.542   3.157  15.514 -0.0127 -3.4001  1.5539
19791TIP3    H280865   5.654   3.211  15.600  0.5306 -1.0570 -0.5862
19792TIP3   OH280866   2.500   2.755   2.464 -0.3804 -0.2030  0.8475
19792TIP3    H180867   2.569   2.691   2.482  1.4835  1.4681 -0.0853
19792TIP3    H280868   2.468   2.732   2.377  0.6912  0.4603  0.2688
19793TIP3   OH280869   2.852   0.130   2.387  0.2593  0.5071  0.1290
19793TIP3    H180870   2.840   0.035   2.381 -1.4578  0.6277  1.2995
19793TIP3    H280871   2.880   0.145   2.477  1.0724  1.0670 -0.2128
19794TIP3   OH280872   5.205   5.373  14.095 -0.3133  0.1715  0.3606
19794TIP3    H180873   5.190   5.295  14.043 -0.1340  0.2934  0.1274
19794TIP3    H280874   5.294   5.362  14.130  0.5639  1.3043 -1.4696
19795TIP3   OH280875   5.050   3.160   2.030  0.2107 -0.5303  0.6504
19795TIP3    H180876   5.111   3.087   2.022  0.2132 -0.2640 -2.1790
19795TIP3    H280877   4.970   3.121   2.064  0.3794 -1.7524 -0.3351
19796TIP3   OH280878   6.138   5.987  13.357  0.2276  0.8474  0.0462
19796TIP3    H180879   6.099   5.965  13.442  1.0928  1.1251  0.5242
19796TIP3    H280880   6.068   6.032  13.310 -0.6680 -0.4634  0.1068
19797TIP3   OH280881   3.837   6.347  15.676 -0.1304 -0.2670  0.0761
19797TIP3    H180882   3.890   6.323  15.600  1.2377  2.3922  0.1508
19797TIP3    H280883   3.845   6.272  15.735  2.7810 -0.3069 -0.3162
19798TIP3   OH280884   4.230   0.889  12.629 -0.6114 -0.6263  0.4457
19798TIP3    H180885   4.209   0.811  12.680  0.7906  0.2225  2.3679
19798TIP3    H280886   4.153   0.945  12.635 -1.5345 -1.7317 -0.7539
19799TIP3   OH280887   6.106   4.656   5.337 -0.2092 -0.8801  0.0313
19799TIP3    H180888   6.061   4.672   5.254 -0.4493 -0.1813  0.2967
19799TIP3    H280889   6.192   4.696   5.327  0.1096 -1.6171 -0.2229
19800TIP3   OH280890   0.163   6.617  12.785 -0.4234  0.1637  0.4661
19800TIP3    H180891   0.175   6.597  12.878 -1.7974 -0.4410  0.5269
19800TIP3    H280892   0.252   6.626  12.751  0.1242 -0.7920  1.5895
19801TIP3   OH280893   6.315   5.444  15.667  0.2559 -0.0732  0.4724
19801TIP3    H180894   6.356   5.454  15.581  1.7428 -2.8661  0.7872
19801TIP3    H280895   6.268   5.527  15.681  1.7111  1.2646 -2.0854
19802TIP3   OH280896   1.513   1.000   2.229  0.3428  0.1792 -0.5399
19802TIP3    H180897   1.498   0.952   2.147  0.6652  1.4400 -1.3594
19802TIP3    H280898   1.541   0.933   2.291 -1.4780 -1.0524 -1.0067
19803TIP3   OH280899   1.969   6.171  16.516  0.5809 -0.2582  0.5765
19803TIP3    H180900   2.005   6.255  16.488  1.0025 -0.5349  0.2842
19803TIP3    H280901   1.876   6.176  16.495  0.3409  0.6664  1.8356
19804TIP3   OH280902   5.853   3.854   2.454  0.5698 -0.5240 -0.0374
19804TIP3    H180903   5.807   3.804   2.386 -0.8134  1.6225 -0.7496
19804TIP3    H280904   5.823   3.816   2.537 -0.3810 -0.9542 -0.5710
19805TIP3   OH280905   2.403   6.038  12.456 -0.2562  0.2105 -0.3353
19805TIP3    H180906   2.372   6.124  12.430  0.5539  1.0881  1.5297
19805TIP3    H280907   2.484   6.026  12.406  1.0573  1.6946  1.3755
19806TIP3   OH280908   3.858   5.834   5.536 -0.3734 -0.5140 -0.5302
19806TIP3    H180909   3.817   5.825   5.450 -0.5922 -0.3292 -0.4459
19806TIP3    H280910   3.827   5.759   5.586 -4.0176  1.8445  0.9120
19807TIP3   OH280911   4.019   1.323  10.921 -0.5294 -0.0493  0.3645
19807TIP3    H180912   4.011   1.232  10.893  1.8018 -0.0527 -0.4453
19807TIP3    H280913   3.930   1.350  10.944 -1.4445 -2.1101 -0.6877
19808TIP3   OH280914   1.839   5.942   4.804  0.6722  0.3167 -0.0889
19808TIP3    H180915   1.867   6.030   4.826  0.4575 -0.0936  1.9376
19808TIP3    H280916   1.755   5.932   4.849  0.8248 -1.0191 -0.0861
19809TIP3   OH280917   5.860   4.022  13.991 -0.2572 -0.2845  0.6053
19809TIP3    H180918   5.902   4.046  14.073 -0.0651  2.1741 -0.1652
19809TIP3    H280919   5.923   4.050  13.923 -1.1684 -0.6588 -0.4069
19810TIP3   OH280920   0.281   4.885  12.592  0.0402  0.2446  0.1101
19810TIP3    H180921   0.251   4.799  12.564  0.8976 -0.2103  0.5759
19810TIP3    H280922   0.233   4.946  12.537  1.2939 -0.6021 -1.9935
19811TIP3   OH280923   3.119   3.632  14.516 -0.4587  0.4239 -0.3903
19811TIP3    H180924   3.043   3.600  14.565  0.1098  0.2333  0.3788
19811TIP3    H280925   3.190   3.635  14.580 -0.0367  1.4767 -0.8855
19812TIP3   OH280926   4.314   0.280  17.199  0.2788  0.2461  0.1800
19812TIP3    H180927   4.344   0.359  17.243 -0.2969  0.1805  0.6968
19812TIP3    H280928   4.388   0.220  17.203 -0.0349 -0.0373  1.7396
19813TIP3   OH280929   1.184   4.182  12.207  0.2214  0.2819 -0.0963
19813TIP3    H180930   1.240   4.234  12.264 -0.0561  1.0782 -0.5380
19813TIP3    H280931   1.113   4.153  12.264  0.1934  0.6799  0.0766
19814TIP3   OH280932   3.226   2.807   2.393  0.1737  0.1980  0.2852
19814TIP3    H180933   3.178   2.876   2.438 -0.0889  0.4156 -0.3319
19814TIP3    H280934   3.318   2.825   2.412  0.1533  1.1333 -0.4714
19815TIP3   OH280935   0.195   5.550   4.773 -0.3538  0.2602  0.8713
19815TIP3    H180936   0.142   5.525   4.698  3.1572  0.7692 -1.9420
19815TIP3    H280937   0.160   5.635   4.800 -1.5435  0.1657 -0.3477
19816TIP3   OH280938   3.083   5.204   0.445 -0.2430  0.0196  0.0928
19816TIP3    H180939   3.003   5.208   0.497 -0.5439 -0.5937 -0.3191
19816TIP3    H280940   3.137   5.138   0.490 -0.3887 -0.3059 -0.2044
19817TIP3   OH280941   4.777   5.591   0.217  0.6759  0.2954 -0.3279
19817TIP3    H180942   4.768   5.512   0.163 -1.3421 -0.5391  1.1856
19817TIP3    H280943   4.838   5.646   0.167  0.7169 -1.4326 -2.2968
19818TIP3   OH280944   3.283   3.634  14.026 -0.3395  0.0221 -0.7487
19818TIP3    H180945   3.270   3.588  14.109  1.0847  0.2128 -0.4139
19818TIP3    H280946   3.196   3.636  13.986 -0.6155 -1.9968 -0.2682
19819TIP3   OH280947   6.291   5.218   5.638  0.0087 -0.1356 -0.8700
19819TIP3    H180948   6.233   5.161   5.587  0.6252  0.0527 -1.7957
19819TIP3    H280949   6.378   5.202   5.601  0.7441 -1.2275  1.2018
19820TIP3   OH280950   3.385   0.162  15.481  0.5443 -0.1430 -0.4596
19820TIP3    H180951   3.480   0.166  15.471  0.6277 -0.8416  0.0301
19820TIP3    H280952   3.351   0.201  15.400  1.2387  1.2687 -0.0977
19821TIP3   OH280953   0.237   4.644  11.803 -0.2004  0.1171 -0.1387
19821TIP3    H180954   0.244   4.685  11.717 -0.4949  0.8294  0.1760
19821TIP3    H280955   0.158   4.681  11.840 -1.0776 -1.5679 -0.2917
19822TIP3   OH280956   1.997   4.637  17.070 -0.0727 -0.4786  0.0940
19822TIP3    H180957   1.920   4.640  17.012 -0.2355  1.8337  0.4005
19822TIP3    H280958   1.963   4.662  17.156  0.2960 -3.2709  1.1096
19823TIP3   OH280959   2.997   0.644   1.509  0.5302  0.0029 -0.2561
19823TIP3    H180960   3.036   0.646   1.596 -0.4762  1.3356  0.1870
19823TIP3    H280961   3.032   0.722   1.465 -0.7723  0.6216 -0.2166
19824TIP3   OH280962   1.918   0.604  10.579  0.2470  0.0993  0.0326
19824TIP3    H180963   1.901   0.605  10.485 -0.5889 -0.0949  0.1804
19824TIP3    H280964   1.925   0.512  10.601 -3.2738 -0.0368  0.8090
19825TIP3   OH280965   2.745   1.389   5.832 -0.2398  0.1297 -0.6884
19825TIP3    H180966   2.790   1.328   5.774 -0.4944 -1.2618  0.5399
19825TIP3    H280967   2.807   1.407   5.902 -0.8900 -0.3185  0.0163
19826TIP3   OH280968   3.069   0.539   4.101  0.1181 -0.1223  0.0293
19826TIP3    H180969   2.974   0.540   4.088  0.1410  1.5354 -0.1675
19826TIP3    H280970   3.090   0.448   4.123 -1.6515 -0.2930  1.0728
19827TIP3   OH280971   4.975   4.715   5.202 -0.5045  0.2152  0.5996
19827TIP3    H180972   5.028   4.637   5.187 -0.2385  0.0592  2.2951
19827TIP3    H280973   4.887   4.690   5.173  0.0750  0.1154 -1.1719
19828TIP3   OH280974   1.316   0.672   3.487  0.0369 -0.0307 -0.2350
19828TIP3    H180975   1.301   0.681   3.581 -1.0041 -0.1507 -0.3832
19828TIP3    H280976   1.327   0.578   3.473  2.3213  0.1712  0.0665
19829TIP3   OH280977   1.365   1.426  15.576 -0.4191  0.1790  0.0285
19829TIP3    H180978   1.323   1.469  15.650  0.1816 -0.1492  0.5680
19829TIP3    H280979   1.432   1.371  15.616  0.3368  0.4921 -0.7974
19830TIP3   OH280980   4.905   3.250   5.100  0.1210  0.8277  0.3724
19830TIP3    H180981   4.831   3.306   5.079 -0.0845 -0.2017 -1.7289
19830TIP3    H280982   4.865   3.167   5.129  0.4004 -0.0727 -1.7054
19831TIP3   OH280983   3.592   4.502  17.277  0.0186  0.4982 -0.7222
19831TIP3    H180984   3.520   4.483  17.217 -1.5798 -0.4236  1.4380
19831TIP3    H280985   3.590   4.431  17.340  2.5206  0.7446 -0.3183
19832TIP3   OH280986   5.258   1.066   0.581  0.0232 -1.0805 -0.3787
19832TIP3    H180987   5.299   1.153   0.576 -2.1656 -0.0101 -0.3247
19832TIP3    H280988   5.249   1.039   0.489  1.0000 -1.4062 -0.3837
19833TIP3   OH280989   6.305   1.398  10.704 -0.0800  0.4287  0.3651
19833TIP3    H180990   6.341   1.462  10.766  1.2075  0.4242 -0.3743
19833TIP3    H280991   6.245   1.448  10.649  0.0141  0.7505  0.5580
19834TIP3   OH280992   5.069   4.753   0.322 -0.0198 -0.0834  0.1556
19834TIP3    H180993   5.021   4.808   0.261 -0.4580  0.0258  0.6001
19834TIP3    H280994   5.070   4.802   0.404  2.7368  0.9326 -0.4112
19835TIP3   OH280995   1.308   5.386   3.767  0.0721 -0.5385 -0.2339
19835TIP3    H180996   1.299   5.378   3.672  1.1209  0.1611 -0.4085
19835TIP3    H280997   1.381   5.329   3.789 -1.0109 -1.7161  0.3419
19836TIP3   OH280998   1.338   0.324   4.346 -0.2718 -0.2919  0.0400
19836TIP3    H180999   1.334   0.245   4.400 -2.5879 -0.0066  0.3374
19836TIP3    H281000   1.402   0.380   4.389  0.3993 -1.4513  0.5786
19837TIP3   OH281001   3.983   6.572  16.391 -0.2989 -0.1294 -0.3304
19837TIP3    H181002   3.940   6.623  16.459 -0.0540 -1.9824  1.2453
19837TIP3    H281003   3.913   6.518  16.354 -0.2417  0.2043 -0.9359
19838TIP3   OH281004   2.426   1.801   0.142 -0.4347  0.0574 -0.7651
19838TIP3    H181005   2.510   1.837   0.113  0.5097 -2.7436 -1.6880
19838TIP3    H281006   2.366   1.821   0.070 -0.5037  1.7312 -0.2690
19839TIP3   OH281007   2.198   5.053  16.253 -0.0992 -0.1450 -0.1962
19839TIP3    H181008   2.135   5.123  16.270 -0.4178 -0.2049 -1.0967
19839TIP3    H281009   2.241   5.038  16.337  0.3160  1.4776 -0.0979
19840TIP3   OH281010   2.216   1.957  10.799 -0.6947  0.0036 -0.0943
19840TIP3    H181011   2.307   1.959  10.769 -0.5032  0.4943  0.5005
19840TIP3    H281012   2.168   2.008  10.733 -0.3650  0.6244  0.1382
19841TIP3   OH281013   1.660   1.950  15.187 -0.1495 -0.1804 -0.1634
19841TIP3    H181014   1.631   1.882  15.248  1.4453  0.5184  1.4129
19841TIP3    H281015   1.738   1.913  15.145  1.3192  1.0207  1.4312
19842TIP3   OH281016   3.950   4.869   3.732  0.1109 -0.0385 -0.4446
19842TIP3    H181017   3.880   4.813   3.767  1.7675 -2.0845 -0.3550
19842TIP3    H281018   4.012   4.809   3.693  2.4838  1.6597  0.5847
19843TIP3   OH281019   4.783   5.818  14.765 -0.6273 -0.9539 -0.4588
19843TIP3    H181020   4.759   5.904  14.729  0.9220 -0.5031 -0.4848
19843TIP3    H281021   4.870   5.801  14.729 -0.0541 -1.5915  1.1718
19844TIP3   OH281022   5.143   0.987  14.328 -0.2603  0.2456  0.0959
19844TIP3    H181023   5.060   0.964  14.285  0.6544 -2.5767 -0.2124
19844TIP3    H281024   5.131   0.958  14.419 -0.0799  1.0600  0.3868
19845TIP3   OH281025   2.606   0.569  16.653  0.4942  0.4580 -0.3076
19845TIP3    H181026   2.580   0.486  16.611  0.4190  0.4144 -0.1742
19845TIP3    H281027   2.544   0.633  16.619  1.2399  0.6729 -1.2774
19846TIP3   OH281028   1.501   5.306  13.294 -0.1797  0.3782  0.0355
19846TIP3    H181029   1.549   5.285  13.214 -0.5790 -0.1268 -0.0742
19846TIP3    H281030   1.564   5.353  13.348  0.6648 -0.9380  0.2066
19847TIP3   OH281031   4.857   6.552  13.215  0.1254 -0.2567 -0.4316
19847TIP3    H181032   4.891   6.482  13.271 -0.4899 -0.8444 -0.7933
19847TIP3    H281033   4.831   6.508  13.134 -2.0820  0.0858  0.0642
19848TIP3   OH281034   0.693   1.655  12.416 -0.0649 -0.0168  0.5583
19848TIP3    H181035   0.760   1.597  12.453  0.4246  0.7486  0.8728
19848TIP3    H281036   0.676   1.719  12.484 -0.5675  0.2524  0.1818
19849TIP3   OH281037   5.789   1.343   2.440  0.0513 -0.0920  0.8581
19849TIP3    H181038   5.697   1.331   2.464 -0.2083 -0.4971 -0.3293
19849TIP3    H281039   5.797   1.437   2.424 -0.0233  0.0256  1.4928
19850TIP3   OH281040   6.195   1.130   0.765 -0.2372 -0.2048  0.0820
19850TIP3    H181041   6.277   1.092   0.797 -1.4753 -1.6092  1.6512
19850TIP3    H281042   6.142   1.143   0.844 -1.3921  1.0209 -0.8796
19851TIP3   OH281043   1.641   6.099   1.778  0.7719 -0.3291  0.7250
19851TIP3    H181044   1.567   6.082   1.837 -0.0338  1.2439  0.1782
19851TIP3    H281045   1.631   6.191   1.753  0.5789 -1.2174 -2.6244
19852TIP3   OH281046   2.708   5.041   2.078 -0.1777 -0.3071  0.2302
19852TIP3    H181047   2.795   5.003   2.069  0.6214  1.7004 -1.0050
19852TIP3    H281048   2.706   5.075   2.168  0.4712 -0.0185  0.1410
19853TIP3   OH281049   0.102   0.141   6.448  0.4186 -0.0040  0.0584
19853TIP3    H181050   0.111   0.069   6.509  0.4746  0.6460  0.8200
19853TIP3    H281051   0.176   0.131   6.388  0.5136 -0.4758  0.2546
19854TIP3   OH281052   6.153   1.113   5.356  0.3119  0.0927  0.7639
19854TIP3    H181053   6.165   1.048   5.425  2.1736  0.1020  0.4698
19854TIP3    H281054   6.216   1.088   5.288  0.3110  1.5897  0.1887
19855TIP3   OH281055   5.545   4.091  11.518 -0.1550 -0.3617 -0.7999
19855TIP3    H181056   5.607   4.091  11.591 -0.5647 -0.5705 -0.4455
19855TIP3    H281057   5.540   4.183  11.491 -1.6638  0.1075  0.8984
19856TIP3   OH281058   4.802   5.155  14.312  0.1337  0.2475  0.6606
19856TIP3    H181059   4.713   5.124  14.330  0.1768 -1.2192 -1.4446
19856TIP3    H281060   4.854   5.125  14.386 -0.8583 -0.1809  1.1805
19857TIP3   OH281061   5.314   1.978   0.652 -0.0402  0.2468  0.0102
19857TIP3    H181062   5.339   2.054   0.705 -2.1128  1.8877 -1.2967
19857TIP3    H281063   5.344   1.999   0.564 -0.0542 -0.7593 -0.2404
19858TIP3   OH281064   5.692   2.778  13.479 -0.9135 -0.2506 -0.0300
19858TIP3    H181065   5.778   2.782  13.437 -0.6924  1.5871  0.5199
19858TIP3    H281066   5.659   2.868  13.473 -2.2385 -0.6625  0.9029
19859TIP3   OH281067   1.945   6.183   0.200  0.6791 -0.0893  0.1323
19859TIP3    H181068   1.884   6.120   0.237  0.3210 -0.2333 -0.7084
19859TIP3    H281069   1.958   6.247   0.270  1.2749 -1.2478  1.0947
19860TIP3   OH281070   0.313   0.240  15.040 -0.0514  0.0422 -0.5000
19860TIP3    H181071   0.278   0.197  15.118 -2.1884 -0.7599 -1.8579
19860TIP3    H281072   0.314   0.333  15.062 -0.7839 -0.1686  0.4457
19861TIP3   OH281073   0.589   0.789   5.929 -0.1354  0.0515 -0.2023
19861TIP3    H181074   0.671   0.766   5.886 -0.3009 -0.7433 -0.0922
19861TIP3    H281075   0.610   0.789   6.023 -0.6961 -1.9573 -0.0559
19862TIP3   OH281076   2.858   6.416   4.870 -0.4196 -0.1280  0.0032
19862TIP3    H181077   2.893   6.499   4.901 -0.9639 -0.1649  0.7360
19862TIP3    H281078   2.775   6.405   4.918 -0.5445 -0.8937 -0.3757
19863TIP3   OH281079   6.758   1.123  12.882 -0.3975  0.7356  0.4869
19863TIP3    H181080   6.745   1.119  12.977 -1.7015 -1.1089  0.2578
19863TIP3    H281081   6.793   1.037  12.859  3.3564  2.3586 -0.2683
19864TIP3   OH281082   3.772   0.994  16.441 -0.5705  0.3536 -0.0169
19864TIP3    H181083   3.734   1.051  16.374  0.3486  1.6304  0.5307
19864TIP3    H281084   3.727   0.910  16.429 -0.4502  0.5623 -2.2244
19865TIP3   OH281085   4.746   6.388   4.359 -0.0109  0.7786 -0.1656
19865TIP3    H181086   4.671   6.428   4.403  0.3788  0.6520  0.6248
19865TIP3    H281087   4.781   6.326   4.423  0.8250  0.9097 -0.4880
19866TIP3   OH281088   2.193   0.284  13.430 -0.9729  0.1099  0.0144
19866TIP3    H181089   2.172   0.294  13.337 -0.5467  0.9581 -0.0004
19866TIP3    H281090   2.113   0.250  13.470 -0.2316 -3.0981 -1.1592
19867TIP3   OH281091   4.139   2.527   4.767  0.2558 -0.1845 -0.2763
19867TIP3    H181092   4.178   2.547   4.682  1.7855  1.2124  0.7142
19867TIP3    H281093   4.169   2.438   4.786 -0.0876 -0.5032 -1.1890
19868TIP3   OH281094   4.071   0.446   3.706 -0.2824  0.6574 -0.3774
19868TIP3    H181095   4.033   0.392   3.637 -2.2642  0.7375  0.6201
19868TIP3    H281096   4.026   0.530   3.699  1.3665  1.5490 -0.6396
19869TIP3   OH281097   3.227   0.096   4.656  0.0390  0.1491  0.1181
19869TIP3    H181098   3.224   0.134   4.568 -1.4512  1.0861  0.5565
19869TIP3    H281099   3.285   0.154   4.705 -0.0176  0.2643  0.0499
19870TIP3   OH281100   2.904   3.743  15.348  0.6339 -0.0627 -0.2017
19870TIP3    H181101   2.956   3.816  15.381 -0.2389  0.2481  0.5120
19870TIP3    H281102   2.905   3.679  15.420 -0.7874  0.3679  0.2132
19871TIP3   OH281103   3.245   0.995  16.914  0.1408  0.0479  0.9885
19871TIP3    H181104   3.302   1.051  16.967 -0.2697  0.6322  0.8147
19871TIP3    H281105   3.196   0.943  16.978 -1.9724  2.3158  1.3071
19872TIP3   OH281106   6.619   1.170  16.492 -0.2023  0.3086 -0.5283
19872TIP3    H181107   6.616   1.087  16.539  0.6902 -0.0153 -1.0399
19872TIP3    H281108   6.703   1.208  16.516 -0.8647  1.3594  0.1869
19873TIP3   OH281109   4.562   4.949  13.387 -0.0623  0.2685  0.1939
19873TIP3    H181110   4.541   4.975  13.477  0.8452 -0.5753  0.6487
19873TIP3    H281111   4.552   4.854  13.386  0.5697  0.2016 -0.4290
19874TIP3   OH281112   5.722   5.615  14.716  0.5087 -0.4114  0.2415
19874TIP3    H181113   5.714   5.622  14.621  0.9594  1.5044  0.3315
19874TIP3    H281114   5.814   5.589  14.731  0.7627  0.4647  0.2053
19875TIP3   OH281115   2.215   3.481  12.132 -0.2266  0.2506 -0.3406
19875TIP3    H181116   2.278   3.553  12.127 -1.4685  1.2468 -2.8402
19875TIP3    H281117   2.138   3.520  12.174 -0.8372  0.3623 -1.5399
19876TIP3   OH281118   0.816   1.138   3.772 -0.0131 -0.4104 -0.2758
19876TIP3    H181119   0.878   1.071   3.800 -0.3016  0.0066  1.4160
19876TIP3    H281120   0.781   1.174   3.854  0.2982  1.9482 -1.1514
19877TIP3   OH281121   0.327   2.388  17.258  0.5313 -0.4123 -0.0474
19877TIP3    H181122   0.406   2.341  17.233  0.6310  1.1818 -2.8806
19877TIP3    H281123   0.355   2.479  17.270 -0.6419 -0.0548  0.0659
19878TIP3   OH281124   0.790   5.561  14.085 -0.3863 -0.2797  0.4582
19878TIP3    H181125   0.783   5.529  14.175 -1.6172 -0.8711  0.1713
19878TIP3    H281126   0.819   5.652  14.094  0.7049 -0.6973  1.3945
19879TIP3   OH281127   2.318   2.577   1.939 -0.2422  0.5357  0.0071
19879TIP3    H181128   2.336   2.503   1.997 -4.1939  0.2584  1.0438
19879TIP3    H281129   2.389   2.575   1.875  1.6307 -2.0179  2.0464
19880TIP3   OH281130   0.022   4.318   5.379  0.1442 -0.2152 -0.5248
19880TIP3    H181131  -0.023   4.353   5.457  0.2853 -2.4089  0.5693
19880TIP3    H281132  -0.045   4.318   5.311 -1.1069 -1.8861  0.6486
19881TIP3   OH281133   6.356   3.452  12.165 -0.5555 -0.5817 -0.8003
19881TIP3    H181134   6.262   3.434  12.162 -0.5418 -0.8044  0.0202
19881TIP3    H281135   6.382   3.429  12.254  0.6283 -2.2282 -1.5328
19882TIP3   OH281136   5.624   1.755  17.237  0.1423  0.4677 -0.4789
19882TIP3    H181137   5.611   1.726  17.327  0.5510 -0.3630 -0.6822
19882TIP3    H281138   5.661   1.679  17.192 -1.1387  0.4887 -1.6251
19883TIP3   OH281139   1.278   2.367   5.097  0.1172  0.0993  0.3540
19883TIP3    H181140   1.186   2.378   5.122  0.5392  1.7730  1.2561
19883TIP3    H281141   1.310   2.299   5.156 -0.7063 -1.0115 -0.4479
19884TIP3   OH281142   5.875   3.719   1.122 -0.4772  0.1618  0.1669
19884TIP3    H181143   5.941   3.787   1.139 -1.3494  1.1300 -0.2417
19884TIP3    H281144   5.878   3.707   1.027  0.2004 -0.9215  0.3196
19885TIP3   OH281145   6.557   5.946  11.371 -0.1636  0.9717 -0.7962
19885TIP3    H181146   6.543   5.862  11.415 -0.0993  2.3490  2.0135
19885TIP3    H281147   6.482   5.955  11.312  0.5770 -1.6731 -2.2079
19886TIP3   OH281148   2.868   3.062   3.769  0.0408 -0.2892 -0.5851
19886TIP3    H181149   2.855   3.109   3.686  2.2195  1.4991  0.0574
19886TIP3    H281150   2.901   2.976   3.743 -1.4151 -0.5586 -1.6440
19887TIP3   OH281151   6.783   1.481   5.396  0.1485  0.4274  0.3639
19887TIP3    H181152   6.791   1.428   5.316 -0.4252  1.2063 -0.2222
19887TIP3    H281153   6.694   1.516   5.391 -0.4448 -0.7611  2.1314
19888TIP3   OH281154   3.297   2.554   0.039  0.3245  0.4451 -0.3069
19888TIP3    H181155   3.279   2.645   0.019 -0.7100 -0.2865 -2.8431
19888TIP3    H281156   3.390   2.543   0.018  0.9815  1.3509  1.8985
19889TIP3   OH281157   1.767   2.997  16.485 -0.6841 -0.1981  0.0364
19889TIP3    H181158   1.749   3.085  16.452  2.4145  1.3380  2.2393
19889TIP3    H281159   1.829   2.960  16.422 -1.0861 -0.3949 -0.2498
19890TIP3   OH281160   2.479   5.633   5.132  0.1121  0.1031  0.6057
19890TIP3    H181161   2.470   5.544   5.167 -0.3857  0.1001  0.4745
19890TIP3    H281162   2.549   5.627   5.067 -0.1886 -0.2771  0.3178
19891TIP3   OH281163   3.938   0.186   1.576  0.5081 -0.0998  0.1897
19891TIP3    H181164   3.983   0.103   1.596  0.6803 -0.0864 -0.1251
19891TIP3    H281165   4.009   0.250   1.571  0.2803  0.2492  1.3477
19892TIP3   OH281166   1.060   4.380  12.513  0.0932 -0.1207  0.3922
19892TIP3    H181167   1.052   4.296  12.470 -1.0178  0.3490 -0.3455
19892TIP3    H281168   0.975   4.393  12.556  0.0491  0.8743  0.0189
19893TIP3   OH281169   4.504   0.795  16.876 -0.2619  0.0621  0.2630
19893TIP3    H181170   4.523   0.716  16.826 -0.2272 -0.3113  0.8704
19893TIP3    H281171   4.577   0.804  16.936  0.5782  1.4791 -0.9379
19894TIP3   OH281172   4.677   0.803  15.426 -0.6717  0.0256  0.1890
19894TIP3    H181173   4.647   0.858  15.498  0.1772 -1.1284  1.4450
19894TIP3    H281174   4.751   0.850  15.388 -1.9674  1.2902 -0.8181
19895TIP3   OH281175   0.995   2.491   5.130 -0.3645 -0.1242 -0.0960
19895TIP3    H181176   0.905   2.496   5.161 -0.6945  0.2185 -1.1040
19895TIP3    H281177   0.996   2.542   5.049  0.7061 -0.2275 -0.1581
19896TIP3   OH281178   5.302   1.630   2.361 -0.1456  0.1241 -0.0302
19896TIP3    H181179   5.367   1.680   2.410 -2.2513  1.1615  1.7349
19896TIP3    H281180   5.283   1.684   2.284  0.3130  0.3073 -0.0159
19897TIP3   OH281181   3.295   4.993  16.951  0.0284  0.1314 -0.5534
19897TIP3    H181182   3.261   5.039  16.875  1.3544 -0.0739 -1.2905
19897TIP3    H281183   3.240   5.022  17.024 -3.0158 -1.6885 -2.0077
19898TIP3   OH281184   4.335   5.014   4.940  0.4469  0.0563 -0.5296
19898TIP3    H181185   4.402   5.055   4.995  0.0884 -0.2663  0.1550
19898TIP3    H281186   4.324   4.927   4.978 -0.9202  0.3826 -0.1647
19899TIP3   OH281187   5.422   6.296   3.617  0.5901  0.2462  0.3088
19899TIP3    H181188   5.495   6.336   3.665 -0.0962  0.9294  0.7941
19899TIP3    H281189   5.344   6.319   3.668  0.0751 -0.8117  0.0054
19900TIP3   OH281190   2.291   2.415   5.831  0.3142 -0.0854 -0.3442
19900TIP3    H181191   2.298   2.338   5.774  0.7829 -2.2569  2.5305
19900TIP3    H281192   2.382   2.441   5.846  0.1877  0.5313 -0.6379
19901TIP3   OH281193   3.626   6.046   5.186  0.2733  0.2731  0.5713
19901TIP3    H181194   3.690   6.068   5.254 -0.6194  2.4109  0.7701
19901TIP3    H281195   3.546   6.090   5.213 -0.2340  0.7734 -1.5972
19902TIP3   OH281196   1.783   3.728   0.597 -0.2216 -0.1135 -0.3480
19902TIP3    H181197   1.769   3.735   0.503  1.2721  2.3366 -0.4435
19902TIP3    H281198   1.842   3.653   0.607  0.8641  0.5585 -1.5253
19903TIP3   OH281199   3.452   0.617  14.622 -0.2488  0.3990 -0.0086
19903TIP3    H181200   3.386   0.686  14.629 -0.2358  0.4110 -0.0054
19903TIP3    H281201   3.497   0.636  14.540 -0.4025  0.2569 -0.1243
19904TIP3   OH281202   3.537   0.615   4.686  0.6652  0.1053 -0.3405
19904TIP3    H181203   3.527   0.538   4.743  0.0135 -0.1956 -0.8508
19904TIP3    H281204   3.618   0.656   4.715  0.1323  0.1898  1.1068
19905TIP3   OH281205   1.853   4.283  12.998 -0.1404  0.0062 -0.0253
19905TIP3    H181206   1.860   4.362  13.052 -0.4132  0.4710 -0.6643
19905TIP3    H281207   1.794   4.307  12.927  0.8320 -0.3517 -0.9736
19906TIP3   OH281208   1.339   4.122  12.502 -0.1181  0.3839  0.2928
19906TIP3    H181209   1.430   4.140  12.525  0.2408  1.6432 -1.9608
19906TIP3    H281210   1.344   4.047  12.442 -0.4361  1.2257 -0.8008
19907TIP3   OH281211   2.430   0.716   0.361  0.1380 -0.2321 -0.4247
19907TIP3    H181212   2.480   0.637   0.342 -3.2415 -2.0281 -2.2977
19907TIP3    H281213   2.449   0.775   0.288 -0.4182 -0.8942 -1.1128
19908TIP3   OH281214   0.946   3.510  13.798  0.4020  0.2456 -0.2739
19908TIP3    H181215   0.852   3.492  13.800  0.7698 -1.8072 -0.6766
19908TIP3    H281216   0.951   3.603  13.775 -1.5561  0.8884  1.7173
19909TIP3   OH281217   1.126   1.139  14.513 -0.1271 -0.1809 -0.1834
19909TIP3    H181218   1.124   1.051  14.477 -0.8804  0.1167 -0.8711
19909TIP3    H281219   1.037   1.171  14.505 -0.0572  0.3121  0.9062
19910TIP3   OH281220   0.567   3.406   4.427  0.2429  0.3709 -0.1323
19910TIP3    H181221   0.545   3.432   4.517 -0.5086  0.2933 -0.2953
19910TIP3    H281222   0.500   3.446   4.373 -0.2586 -0.9325 -0.5028
19911TIP3   OH281223   6.712   1.724   3.399 -0.1316  0.1543 -0.1541
19911TIP3    H181224   6.710   1.806   3.350 -2.5012  1.0544  1.3470
19911TIP3    H281225   6.633   1.678   3.372 -0.4460 -0.2147  1.3578
19912TIP3   OH281226   4.960   0.447  16.181  0.1106  0.1708  0.2996
19912TIP3    H181227   4.932   0.453  16.272 -0.4043 -2.9188  0.3915
19912TIP3    H281228   5.029   0.380  16.181  1.5168  1.5638 -1.2652
19913TIP3   OH281229   0.447   5.257  15.905 -0.3232  0.0937 -0.0381
19913TIP3    H181230   0.493   5.188  15.954 -1.2447  0.0324  0.7562
19913TIP3    H281231   0.378   5.286  15.964 -2.5075 -1.1128 -1.9099
19914TIP3   OH281232   3.779   3.431   5.657  0.1211  0.1385  0.6034
19914TIP3    H181233   3.791   3.488   5.733 -3.1460 -0.0607  1.3384
19914TIP3    H281234   3.753   3.491   5.587  1.8838  0.1554 -0.0748
19915TIP3   OH281235   0.632   1.339   5.432  0.1753 -0.2904 -0.7354
19915TIP3    H181236   0.642   1.395   5.509  0.9301 -0.2351 -0.8702
19915TIP3    H281237   0.703   1.276   5.438 -0.4332 -0.9991 -0.7994
19916TIP3   OH281238   2.073   5.253  10.474 -0.2912  0.6265 -0.2852
19916TIP3    H181239   2.079   5.302  10.556  0.9475 -0.0070  0.0048
19916TIP3    H281240   2.023   5.175  10.496  0.0148  0.4719 -0.1360
19917TIP3   OH281241   3.243   2.348  13.507 -0.3865 -0.4769  0.0675
19917TIP3    H181242   3.326   2.384  13.538  0.8044 -3.1367  0.1736
19917TIP3    H281243   3.253   2.344  13.412 -0.4633 -0.6103  0.0653
19918TIP3   OH281244   3.003   0.035  16.466  0.2209 -0.3259  0.1969
19918TIP3    H181245   3.044   0.056  16.382  1.4456  0.9074  1.0755
19918TIP3    H281246   3.037   0.102  16.526 -0.0059 -1.6706  1.8530
19919TIP3   OH281247   2.684   5.710   1.195  0.4511 -0.3678  0.3520
19919TIP3    H181248   2.683   5.708   1.291 -0.7365  1.9206  0.4348
19919TIP3    H281249   2.592   5.704   1.170  0.6868 -0.0807 -0.5938
19920TIP3   OH281250   2.099   4.100  13.692  0.2552 -0.3089 -0.4397
19920TIP3    H181251   2.137   4.015  13.710  0.6174 -0.0765 -0.1022
19920TIP3    H281252   2.166   4.146  13.641 -0.4510 -0.6838 -1.7333
19921TIP3   OH281253   5.421   1.130   2.197 -0.0730  0.0468  0.8551
19921TIP3    H181254   5.447   1.040   2.178 -0.2650  0.2238 -0.2937
19921TIP3    H281255   5.445   1.179   2.118 -1.1286  0.7654  0.9728
19922TIP3   OH281256   3.363   3.677  15.358 -0.8764  0.5034 -0.0779
19922TIP3    H181257   3.383   3.720  15.441 -1.3186 -0.5220  0.5656
19922TIP3    H281258   3.449   3.662  15.319 -0.5914 -0.1480  0.7791
19923TIP3   OH281259   0.114   6.027  15.175  0.3350  0.6568 -0.3954
19923TIP3    H181260   0.045   6.082  15.139 -0.0286  1.5345  1.5498
19923TIP3    H281261   0.185   6.088  15.195  1.3248 -0.1106 -1.5435
19924TIP3   OH281262   6.387   0.275  17.165 -0.8994  0.4923 -0.1284
19924TIP3    H181263   6.429   0.189  17.164  0.3170  1.0668  0.1730
19924TIP3    H281264   6.391   0.302  17.257 -0.2749  1.3418 -0.3951
19925TIP3   OH281265   6.079   3.582   5.519  0.0939  0.0913  0.0743
19925TIP3    H181266   6.130   3.664   5.524  0.1056  0.0507  0.7603
19925TIP3    H281267   6.139   3.519   5.479  0.4872  0.1282  0.5864
19926TIP3   OH281268   3.353   4.641   6.534 -0.3268  0.1403  0.4712
19926TIP3    H181269   3.328   4.605   6.619  1.0467  4.3486  2.8135
19926TIP3    H281270   3.274   4.686   6.503  0.3555  2.2916  1.6858
19927TIP3   OH281271   3.885   0.397  16.117 -0.1532  0.0868  0.4149
19927TIP3    H181272   3.831   0.330  16.074  0.2376  0.6478 -0.9891
19927TIP3    H281273   3.936   0.435  16.046  2.1098 -0.4329  1.7324
19928TIP3   OH281274   3.603   5.676  12.816  0.3668 -0.3082  0.0368
19928TIP3    H181275   3.558   5.626  12.885  1.6452 -0.3367  0.8672
19928TIP3    H281276   3.556   5.654  12.736 -0.2630 -1.3838  0.6847
19929TIP3   OH281277   1.312   3.507   3.032 -0.5026 -0.1634  0.1031
19929TIP3    H181278   1.394   3.523   3.079 -1.0770  1.0085  0.7378
19929TIP3    H281279   1.339   3.472   2.948  0.7121  1.1503 -0.0838
19930TIP3   OH281280   4.889   3.673   2.554  0.2902  0.1848  0.3726
19930TIP3    H181281   4.935   3.719   2.484 -1.8468  2.3038  0.2981
19930TIP3    H281282   4.912   3.721   2.634 -0.5492  0.3432  0.5332
19931TIP3   OH281283   3.841   1.906  10.443  0.1260 -0.4709 -0.1119
19931TIP3    H181284   3.869   1.982  10.393  0.1757 -0.4111  0.0064
19931TIP3    H281285   3.759   1.934  10.485 -0.4615 -0.8563 -0.9746
19932TIP3   OH281286   5.776   2.387  13.043  0.0056  0.0532  1.0795
19932TIP3    H181287   5.742   2.373  13.131  2.1399 -0.9548  1.7842
19932TIP3    H281288   5.803   2.479  13.043 -0.3853  0.1709  1.3340
19933TIP3   OH281289   1.867   3.377  15.298  0.1129  0.4672 -0.3071
19933TIP3    H181290   1.934   3.426  15.345  0.7488 -0.8603  0.1853
19933TIP3    H281291   1.884   3.397  15.206  0.9231  0.4616 -0.1652
19934TIP3   OH281292   3.556   5.766   0.011 -0.4184 -0.5854  0.1007
19934TIP3    H181293   3.520   5.834  -0.046  2.1334  0.3825 -0.4244
19934TIP3    H281294   3.559   5.806   0.097 -1.0947 -0.8789  0.2705
19935TIP3   OH281295   1.215   3.753   4.057 -0.3586 -0.1126 -0.5574
19935TIP3    H181296   1.210   3.842   4.023 -2.2544 -0.3536 -0.9917
19935TIP3    H281297   1.276   3.708   3.998  0.4573  0.8367 -0.4484
19936TIP3   OH281298   2.391   6.580  12.832  0.0053 -0.4481 -0.5429
19936TIP3    H181299   2.337   6.501  12.827 -0.7798  0.1172 -1.1406
19936TIP3    H281300   2.377   6.623  12.748  0.5187  0.2664 -0.2613
19937TIP3   OH281301   3.060   3.637   2.763  0.3262 -0.3297 -0.1844
19937TIP3    H181302   3.065   3.656   2.856 -0.7055  1.3814 -0.4492
19937TIP3    H281303   3.143   3.669   2.727  0.3303 -0.1238  0.0107
19938TIP3   OH281304   0.481   4.834   0.688  0.7965 -0.3970 -0.2871
19938TIP3    H181305   0.576   4.846   0.691  0.6227  0.7369  0.9756
19938TIP3    H281306   0.452   4.891   0.616  0.9947 -0.2345 -0.2396
19939TIP3   OH281307   5.607   4.745   0.524 -0.1080 -0.0891 -0.1111
19939TIP3    H181308   5.549   4.812   0.490 -2.9812 -1.2882  2.1871
19939TIP3    H281309   5.611   4.763   0.618  0.6471 -1.9504  0.2351
19940TIP3   OH281310   3.990   6.673   0.658 -0.1863 -0.3533  0.2994
19940TIP3    H181311   3.999   6.578   0.668 -2.0149 -0.4602  1.1721
19940TIP3    H281312   3.976   6.705   0.747  0.4954  0.7443  0.0095
19941TIP3   OH281313   5.533   5.439  11.716  0.2393 -0.3186 -0.3146
19941TIP3    H181314   5.542   5.344  11.729 -1.2178 -0.2539  1.2953
19941TIP3    H281315   5.493   5.470  11.797 -0.1512  1.5556 -1.2183
19942TIP3   OH281316   3.184   5.413   5.379  0.5879 -0.1857 -0.1519
19942TIP3    H181317   3.235   5.354   5.324 -0.3152 -1.4679  0.3550
19942TIP3    H281318   3.184   5.372   5.465 -1.2939 -0.2348 -0.1348
19943TIP3   OH281319   1.465   4.247   3.811 -0.4752  0.0208 -0.0183
19943TIP3    H181320   1.432   4.327   3.853 -1.2220 -0.7990  0.9653
19943TIP3    H281321   1.540   4.277   3.759 -1.6177  1.5925 -0.8084
19944TIP3   OH281322   2.959   4.874   2.115 -0.1220 -0.3642  0.0227
19944TIP3    H181323   2.918   4.788   2.110 -0.1233 -0.4839  1.8003
19944TIP3    H281324   3.040   4.865   2.064 -0.9999 -0.8744 -1.3097
19945TIP3   OH281325   4.699   5.000  16.447 -0.0289  0.7310  0.3053
19945TIP3    H181326   4.735   5.068  16.503 -1.6705  1.4683  0.4981
19945TIP3    H281327   4.732   5.021  16.359 -1.8908  2.7815  0.0645
19946TIP3   OH281328   4.635   0.629  14.141  0.0004 -0.2731  0.0951
19946TIP3    H181329   4.565   0.668  14.089 -0.2160 -1.0420 -0.2023
19946TIP3    H281330   4.617   0.535  14.138  1.0392 -0.4741  0.0318
19947TIP3   OH281331   6.421   6.747  14.418  0.0477  0.4252  0.3306
19947TIP3    H181332   6.456   6.817  14.474  0.2224 -1.0770  2.1893
19947TIP3    H281333   6.484   6.740  14.346  1.1441  0.8107  1.2306
19948TIP3   OH281334   6.423   3.744  16.024  0.2169 -0.3922 -0.3444
19948TIP3    H181335   6.460   3.683  16.088 -0.0938  0.0417  0.2517
19948TIP3    H281336   6.468   3.723  15.942  1.9058  0.2439  0.4091
19949TIP3   OH281337   5.868   5.864  14.866  0.9299 -0.0817 -0.3361
19949TIP3    H181338   5.961   5.852  14.882  0.9609  1.3684  0.7159
19949TIP3    H281339   5.864   5.919  14.787  0.9729 -0.0289 -0.3016
19950TIP3   OH281340   3.005   1.437  17.112 -0.4518 -0.4508  0.1899
19950TIP3    H181341   3.012   1.453  17.018 -0.1458 -1.3217  0.0604
19950TIP3    H281342   2.957   1.354  17.118 -2.0454  0.5016  0.8442
19951TIP3   OH281343   1.361   4.133   2.799  0.0140 -0.2111 -0.1291
19951TIP3    H181344   1.280   4.138   2.849 -0.7835  1.3866 -1.5108
19951TIP3    H281345   1.430   4.130   2.864 -1.0958 -0.0824  1.0681
19952TIP3   OH281346   5.892   6.281   1.878 -0.5371  0.4035  0.3465
19952TIP3    H181347   5.942   6.206   1.845  1.6070  1.3369  1.3574
19952TIP3    H281348   5.922   6.355   1.825 -2.2753  0.6439 -0.3197
19953TIP3   OH281349   5.830   6.057  15.680 -0.3230 -0.5206 -0.4767
19953TIP3    H181350   5.827   6.118  15.607 -1.6931  1.6621  1.3175
19953TIP3    H281351   5.917   6.069  15.718 -0.1244 -0.6159 -0.9042
19954TIP3   OH281352   6.163   5.030   3.902 -0.3236  0.1563 -0.7070
19954TIP3    H181353   6.122   5.097   3.848  0.7403  2.1132  0.8675
19954TIP3    H281354   6.254   5.056   3.908 -0.2479 -0.4956  1.3421
19955TIP3   OH281355   2.614   3.399  12.346  1.1740  0.2494  0.0968
19955TIP3    H181356   2.691   3.451  12.369  1.1112  0.6794 -0.6672
19955TIP3    H281357   2.645   3.308  12.347  2.1394  0.5363 -1.9862
19956TIP3   OH281358   1.186   5.526  12.470  0.5179  0.2076 -0.2595
19956TIP3    H181359   1.114   5.582  12.441 -0.1624 -0.4566  0.1249
19956TIP3    H281360   1.263   5.563  12.428 -0.4947 -0.9947 -3.2701
19957TIP3   OH281361   6.477   2.752   5.087  0.4212 -0.3128  0.3582
19957TIP3    H181362   6.430   2.697   5.025  0.3499 -0.6351  0.6983
19957TIP3    H281363   6.409   2.809   5.125  0.7771  1.2921 -1.3327
19958TIP3   OH281364   0.931   6.253  11.930  0.3520  0.0678  0.2678
19958TIP3    H181365   1.017   6.267  11.892 -0.0741  0.1288 -0.6896
19958TIP3    H281366   0.881   6.331  11.907 -0.0767 -0.1319  0.4984
19959TIP3   OH281367   5.288   3.303   5.879 -0.3353 -0.4189  0.7701
19959TIP3    H181368   5.266   3.214   5.851  0.5637 -0.7000  0.9141
19959TIP3    H281369   5.291   3.297   5.975  0.7731 -0.5075  0.7440
19960TIP3   OH281370   0.593   6.689  14.541  0.5168 -0.3396 -0.0474
19960TIP3    H181371   0.508   6.649  14.558 -0.7064  2.2294  0.1101
19960TIP3    H281372   0.657   6.625  14.575 -1.2991 -2.4152 -0.4132
19961TIP3   OH281373   2.221   2.671  16.227  0.6304 -0.0140  0.2047
19961TIP3    H181374   2.225   2.660  16.132  2.6261 -0.3068  0.3097
19961TIP3    H281375   2.231   2.765  16.241  1.5060 -0.1012  0.1790
19962TIP3   OH281376   4.308   2.750   0.110 -0.1607 -0.1420 -0.1841
19962TIP3    H181377   4.236   2.750   0.047 -0.7078 -0.7044  0.4356
19962TIP3    H281378   4.332   2.842   0.119 -0.3310 -0.0168 -0.9206
19963TIP3   OH281379   6.471   1.051   1.445 -0.5200  0.3400  0.3071
19963TIP3    H181380   6.494   0.971   1.399  0.1692  0.5973  0.1931
19963TIP3    H281381   6.544   1.067   1.504 -1.2955  0.1375  1.3420
19964TIP3   OH281382   0.961   6.190   3.326 -0.0850 -0.1664  0.0308
19964TIP3    H181383   1.049   6.212   3.355  0.0258 -2.7375  1.8825
19964TIP3    H281384   0.909   6.269   3.343  1.0956  0.1256  2.4872
19965TIP3   OH281385   1.129   0.254   5.590 -0.1661  0.2969  1.2055
19965TIP3    H181386   1.170   0.241   5.676  1.3849  0.3101  0.4870
19965TIP3    H281387   1.201   0.245   5.528 -1.2018  0.7162 -0.0709
19966TIP3   OH281388   5.395   3.304  13.757  0.3963 -0.1284  0.1517
19966TIP3    H181389   5.345   3.261  13.687  1.7583  0.7127 -1.3892
19966TIP3    H281390   5.350   3.387  13.771 -0.8857 -1.0448  1.4978
19967TIP3   OH281391   1.127   6.012  12.329 -0.6689  0.5175 -0.4685
19967TIP3    H181392   1.222   6.009  12.341 -0.7446 -0.5320 -0.0540
19967TIP3    H281393   1.102   5.922  12.309 -1.5286  0.8604 -0.9751
19968TIP3   OH281394   5.813   2.979   3.813 -0.2926 -0.1499 -0.7230
19968TIP3    H181395   5.789   3.039   3.742 -0.1852  1.0130  0.2038
19968TIP3    H281396   5.852   2.904   3.769 -1.8640 -0.2473 -2.0154
19969TIP3   OH281397   4.350   5.163  10.586  0.3980 -0.6152  0.0923
19969TIP3    H181398   4.298   5.244  10.581  1.9186  0.2921 -1.8251
19969TIP3    H281399   4.439   5.192  10.568  1.2151 -2.5164  0.9956
19970TIP3   OH281400   0.247   1.490  12.508 -0.2395 -0.0452  0.3216
19970TIP3    H181401   0.163   1.502  12.464 -0.3791 -1.3854  0.1981
19970TIP3    H281402   0.225   1.477  12.600 -0.1201  0.2716  0.3959
19971TIP3   OH281403   4.852   1.530   2.287 -0.3665 -0.7181 -0.2303
19971TIP3    H181404   4.762   1.563   2.293 -0.1629 -0.4055  1.1787
19971TIP3    H281405   4.861   1.469   2.359  0.6887 -0.4177 -0.0954
19972TIP3   OH281406   0.777   6.307   5.623 -0.2009  0.4329 -0.8524
19972TIP3    H181407   0.797   6.215   5.638 -3.3714 -0.2979 -0.6586
19972TIP3    H281408   0.736   6.309   5.536  0.0804  1.6992 -0.9662
19973TIP3   OH281409   4.923   1.854   1.989 -0.1679  0.2731  0.2591
19973TIP3    H181410   4.941   1.768   2.027 -0.0774  0.6619  1.0977
19973TIP3    H281411   4.877   1.834   1.907 -1.4771 -0.5464  1.1671
19974TIP3   OH281412   6.468   3.195   4.185 -0.4364 -0.3786 -0.7614
19974TIP3    H181413   6.455   3.271   4.129  0.6617 -0.2301 -0.8194
19974TIP3    H281414   6.380   3.162   4.202 -0.9245  1.0253 -0.5624
19975TIP3   OH281415   1.233   5.462  11.123  0.3742 -0.5124 -0.5372
19975TIP3    H181416   1.198   5.435  11.039 -0.1699  0.5118 -0.6516
19975TIP3    H281417   1.255   5.381  11.168 -2.3515 -1.2005 -0.3754
19976TIP3   OH281418   1.247   3.690   3.475 -0.6941  0.4352  0.0409
19976TIP3    H181419   1.161   3.666   3.442 -0.3627  2.0357 -2.1197
19976TIP3    H281420   1.307   3.666   3.404  0.4421  0.9202  0.8200
19977TIP3   OH281421   6.120   1.643   0.491 -0.3510  0.1057 -0.2361
19977TIP3    H181422   6.150   1.612   0.406 -1.1657 -0.8243 -0.2070
19977TIP3    H281423   6.049   1.582   0.515 -0.2654  0.4684  1.0100
19978TIP3   OH281424   1.002   3.762  15.004  0.2644 -0.4565 -0.1027
19978TIP3    H181425   0.939   3.786  14.936  0.8859 -0.7014 -0.7766
19978TIP3    H281426   0.982   3.670  15.024 -0.8016  0.0148  1.0278
19979TIP3   OH281427   0.739   1.256   1.659  0.1365  0.2478 -0.1001
19979TIP3    H181428   0.826   1.281   1.691 -0.1464 -0.8693  1.5657
19979TIP3    H281429   0.756   1.210   1.577  1.1595 -0.3476  0.4326
19980TIP3   OH281430   6.632   2.152   4.625 -0.3778 -0.5837 -0.0989
19980TIP3    H181431   6.676   2.231   4.594 -0.7105  0.3839  1.8168
19980TIP3    H281432   6.694   2.113   4.687 -1.2711 -0.4376  0.8952
19981TIP3   OH281433   1.736   4.819  16.916 -0.6655 -0.1921 -0.7826
19981TIP3    H181434   1.783   4.743  16.882 -0.1625 -0.1022 -0.2911
19981TIP3    H281435   1.702   4.791  17.001  2.0270  1.0549  0.7477
19982TIP3   OH281436   6.610   0.505  12.385  0.3463  0.3923 -0.1204
19982TIP3    H181437   6.612   0.597  12.359 -1.4723  1.0406  1.9297
19982TIP3    H281438   6.521   0.491  12.417  1.1535 -1.5892  1.3141
19983TIP3   OH281439   3.746   0.590  11.851  0.0517  0.3022  0.2432
19983TIP3    H181440   3.708   0.507  11.822  0.1409  0.4779 -0.3743
19983TIP3    H281441   3.826   0.564  11.897  0.2882  0.0721 -0.2986
19984TIP3   OH281442   4.525   2.261   3.437 -0.4186 -0.6744 -0.2047
19984TIP3    H181443   4.549   2.169   3.434 -2.4883 -1.3383  1.8929
19984TIP3    H281444   4.440   2.263   3.482 -0.0087  2.3023  0.6067
19985TIP3   OH281445   4.917   1.694   4.341  0.1937 -0.5033 -0.2973
19985TIP3    H181446   4.949   1.778   4.375 -0.1612 -0.8440  0.8971
19985TIP3    H281447   4.989   1.633   4.355  0.2479 -0.5293 -0.6691
19986TIP3   OH281448   6.197   1.914  16.482  0.0386 -0.3122  0.3072
19986TIP3    H181449   6.159   1.983  16.427 -1.6813 -1.5834 -0.1097
19986TIP3    H281450   6.233   1.962  16.557  2.2770  1.4287 -1.7856
19987TIP3   OH281451   1.826   2.293   1.435 -0.7957  0.2352  0.0042
19987TIP3    H181452   1.857   2.372   1.391 -3.0764  0.1611 -1.7852
19987TIP3    H281453   1.731   2.302   1.439 -0.9682 -1.6669  1.2406
19988TIP3   OH281454   4.249   2.508   5.376  0.1614 -0.3420 -0.3284
19988TIP3    H181455   4.211   2.564   5.444 -0.1615 -0.3456 -0.5025
19988TIP3    H281456   4.302   2.567   5.322  1.0007 -0.4684  0.3534
19989TIP3   OH281457   2.725   2.775   5.947  0.6109  0.1758 -0.4729
19989TIP3    H181458   2.688   2.843   6.003 -2.0373 -1.1250 -0.5856
19989TIP3    H281459   2.736   2.699   6.004  2.6314  0.3363 -0.5821
19990TIP3   OH281460   2.334   6.088  15.147  0.2545  0.5738 -0.3216
19990TIP3    H181461   2.399   6.148  15.110  0.5698 -0.8271 -2.1109
19990TIP3    H281462   2.373   6.057  15.228  0.7244  1.6640 -0.1263
19991TIP3   OH281463   2.134   5.978   1.580  0.0107  0.1988 -0.6949
19991TIP3    H181464   2.170   6.044   1.640 -0.2641  0.3454 -0.6932
19991TIP3    H281465   2.195   5.978   1.506  1.5879 -1.5138  0.5344
19992TIP3   OH281466   2.041   4.659  11.853  0.1199 -0.4910 -0.0551
19992TIP3    H181467   2.004   4.717  11.920 -0.7602  0.0221 -0.9699
19992TIP3    H281468   1.986   4.673  11.776  0.5494 -1.7692 -0.6097
19993TIP3   OH281469   3.576   4.462   3.892 -0.4959 -0.0105 -0.2002
19993TIP3    H181470   3.530   4.499   3.968  3.3304  0.7504  1.8924
19993TIP3    H281471   3.597   4.538   3.838 -0.5739 -0.1916 -0.4833
19994TIP3   OH281472   0.916   2.596   4.869  0.1304  0.5351 -0.8484
19994TIP3    H181473   0.901   2.542   4.791 -1.7174 -1.6321  0.9305
19994TIP3    H281474   0.828   2.619   4.898  0.7680  0.4059  1.2166
19995TIP3   OH281475   1.687   0.067   6.059  0.3665 -0.6403  0.1904
19995TIP3    H181476   1.727   0.150   6.083  0.4210 -0.4924 -0.3953
19995TIP3    H281477   1.689   0.014   6.139  0.8503 -0.2839  0.4101
19996TIP3   OH281478   5.174   1.170  13.996 -0.8068  0.3527  0.1124
19996TIP3    H181479   5.257   1.218  13.996 -1.5795  1.7353  0.8347
19996TIP3    H281480   5.198   1.080  13.974  0.8214  0.8303 -0.1470
19997TIP3   OH281481   1.445   0.366  12.402  0.4074  0.4522  0.5211
19997TIP3    H181482   1.418   0.339  12.489  2.2435 -1.9390  0.3980
19997TIP3    H281483   1.539   0.385  12.410  0.7871 -0.6068 -1.0838
19998TIP3   OH281484   0.538   3.166   5.693  0.0089 -0.4398 -0.4230
19998TIP3    H181485   0.461   3.211   5.728  1.7265  0.0593  2.9483
19998TIP3    H281486   0.574   3.119   5.768  3.4614  0.0443 -1.6855
19999TIP3   OH281487   0.416   4.994   0.472  0.1721  0.8728  0.8343
19999TIP3    H181488   0.445   5.083   0.491 -0.4037  1.3200 -0.3372
19999TIP3    H281489   0.484   4.959   0.414 -0.1146  0.8912  0.4896
20000TIP3   OH281490   1.449   6.357   2.120 -0.3274  0.4856  0.3360
20000TIP3    H181491   1.506   6.305   2.177 -0.3772  0.6122  0.5021
20000TIP3    H281492   1.361   6.324   2.137 -0.4083  0.9202  0.7623
20001TIP3   OH281493   1.523   2.456   4.962  0.0004 -0.5274 -0.1349
20001TIP3    H181494   1.445   2.417   5.001 -0.8718 -1.3058 -2.5969
20001TIP3    H281495   1.522   2.426   4.871  2.1998  0.9301 -0.6679
20002TIP3   OH281496   2.750   5.648  12.672 -0.4828  0.0381 -0.1399
20002TIP3    H181497   2.685   5.675  12.737 -0.1899  0.4050  0.0056
20002TIP3    H281498   2.771   5.729  12.625 -1.3058 -0.3869 -1.2441
20003TIP3   OH281499   6.421   2.626   4.087  0.4399  0.1826  0.0557
20003TIP3    H181500   6.450   2.536   4.067 -0.0239  0.1564 -0.5183
20003TIP3    H281501   6.344   2.614   4.142  0.3791  0.2285 -0.0204
20004TIP3   OH281502   0.457   4.252   2.697  0.3112 -0.2267 -0.2524
20004TIP3    H181503   0.443   4.198   2.619  0.9932 -0.9016  0.0871
20004TIP3    H281504   0.540   4.222   2.732 -0.1034 -0.0829  0.8741
20005TIP3   OH281505   4.089   4.242   0.928  0.0456  0.9432 -0.4267
20005TIP3    H181506   4.163   4.209   0.979 -0.7159 -2.4272 -1.4269
20005TIP3    H281507   4.042   4.299   0.989  1.2524 -0.0400  1.4681
20006TIP3   OH281508   2.798   0.526   3.089  0.4374  0.2146 -0.6744
20006TIP3    H181509   2.708   0.537   3.118  1.2161  1.7540  1.2965
20006TIP3    H281510   2.793   0.530   2.994 -1.9450 -3.0470 -0.7687
20007TIP3   OH281511   1.109   1.710  11.864 -0.1168 -0.4683 -0.0298
20007TIP3    H181512   1.122   1.675  11.776 -1.0016 -1.5977  0.2852
20007TIP3    H281513   1.157   1.793  11.864  2.9449 -2.1876 -0.4164
20008TIP3   OH281514   3.032   3.938   5.955  0.4127  0.7389 -0.2227
20008TIP3    H181515   2.965   4.004   5.936  1.2513  1.6147 -0.2104
20008TIP3    H281516   3.018   3.870   5.889 -1.7746 -0.0967  1.0288
20009TIP3   OH281517   4.473   6.496  16.402  0.4449 -0.8372 -0.1605
20009TIP3    H181518   4.560   6.505  16.442  0.3219  2.1922 -0.4516
20009TIP3    H281519   4.412   6.524  16.471 -0.1699 -0.9598 -0.6541
20010TIP3   OH281520   4.289   0.545  13.151  0.0072  0.1889 -0.1038
20010TIP3    H181521   4.257   0.455  13.154  0.5369  0.0256  1.1622
20010TIP3    H281522   4.311   0.565  13.242 -1.2782  2.0196 -0.1791
20011TIP3   OH281523   3.131   1.129   2.572  0.2071  0.1318 -0.1883
20011TIP3    H181524   3.062   1.188   2.543 -0.2257  0.3835  1.3103
20011TIP3    H281525   3.144   1.151   2.665  3.4578  1.2786 -0.8196
20012TIP3   OH281526   0.609   1.941  11.418 -0.5743 -0.0319 -0.1358
20012TIP3    H181527   0.543   1.939  11.487  1.3216  0.7946  1.7716
20012TIP3    H281528   0.644   1.852  11.415 -0.2439  0.0819  0.3837
20013TIP3   OH281529   5.847   5.266  14.902  0.1249 -0.1449  0.1087
20013TIP3    H181530   5.882   5.347  14.866 -0.8418  0.3698  0.3000
20013TIP3    H281531   5.911   5.199  14.879  1.6027  0.8948  1.1315
20014TIP3   OH281532   6.410   4.663   2.398 -0.7568 -0.8084 -0.2987
20014TIP3    H181533   6.320   4.693   2.412 -0.5002  0.3876 -1.0934
20014TIP3    H281534   6.450   4.732   2.345  1.1090 -0.5135  1.4202
20015TIP3   OH281535   1.343   1.392   1.237  0.5958 -0.0325 -0.0311
20015TIP3    H181536   1.415   1.429   1.186  0.5493  1.3198  0.8669
20015TIP3    H281537   1.371   1.402   1.328 -1.1452  1.3675  0.3624
20016TIP3   OH281538   5.467   2.142   5.847  0.3639 -0.5956 -0.5798
20016TIP3    H181539   5.529   2.080   5.887 -0.0585 -1.0820 -0.6766
20016TIP3    H281540   5.518   2.184   5.778  0.4298 -1.4176 -1.0464
20017TIP3   OH281541   1.849   6.402  15.927 -0.0371  0.2066  0.0432
20017TIP3    H181542   1.900   6.473  15.888 -1.9326  0.5884 -1.8275
20017TIP3    H281543   1.807   6.358  15.853 -3.2627  0.5882  1.5482
20018TIP3   OH281544   4.090   2.171   5.586  0.7467 -0.7093 -0.1622
20018TIP3    H181545   4.129   2.148   5.502  0.2208  0.6070 -0.7892
20018TIP3    H281546   4.142   2.246   5.616 -0.8974  0.7103 -0.7504
20019TIP3   OH281547   1.701   6.005  12.661  0.2396 -0.7256  0.1596
20019TIP3    H181548   1.610   5.977  12.675 -0.2105  0.5713 -0.1043
20019TIP3    H281549   1.713   6.077  12.723  0.6922 -0.0864 -0.6612
20020TIP3   OH281550   3.849   4.656   3.867 -0.1033 -0.0681  0.3458
20020TIP3    H181551   3.857   4.563   3.846  0.3417 -0.0102  0.2715
20020TIP3    H281552   3.756   4.675   3.853  0.2593  0.0836 -2.0563
20021TIP3   OH281553   1.489   3.491   6.455 -0.5334 -0.0911 -0.4343
20021TIP3    H181554   1.441   3.417   6.493  0.8826 -2.0403 -2.3305
20021TIP3    H281555   1.566   3.501   6.511  0.5711 -1.7345 -1.5890
20022TIP3   OH281556   3.849   4.667  11.760  0.1628  0.0905 -0.0865
20022TIP3    H181557   3.841   4.726  11.836  0.0849  1.2849 -1.0103
20022TIP3    H281558   3.931   4.621  11.774 -0.8036 -1.1547  1.7284
20023TIP3   OH281559   4.265   4.309   0.717 -0.2505 -0.2371  0.2855
20023TIP3    H181560   4.304   4.242   0.661 -0.3391  0.4441 -0.6001
20023TIP3    H281561   4.214   4.260   0.781 -1.5853 -0.9591 -1.2993
20024TIP3   OH281562   4.560   3.578   2.967  0.0082 -0.2407  0.6319
20024TIP3    H181563   4.637   3.635   2.961  1.2938 -1.9458  0.5994
20024TIP3    H281564   4.520   3.583   2.881 -1.7006  3.0573  1.5433
20025TIP3   OH281565   3.981   3.341  17.230 -0.1258 -0.2512 -0.5694
20025TIP3    H181566   4.042   3.344  17.304 -2.2438 -1.0479  1.2352
20025TIP3    H281567   4.014   3.270  17.175  0.9488 -0.2467  0.0498
20026TIP3   OH281568   4.162   2.058  14.892  0.5262  0.0504 -0.2870
20026TIP3    H181569   4.152   2.106  14.810  1.0591  2.2026  0.8923
20026TIP3    H281570   4.121   2.113  14.958 -0.7820 -2.1152  0.7830
20027TIP3   OH281571   3.299   2.118   4.621  0.3198  0.4328 -0.0451
20027TIP3    H181572   3.268   2.029   4.636  0.6608  0.2814 -0.2439
20027TIP3    H281573   3.388   2.108   4.587 -0.1616  0.7924 -1.4476
20028TIP3   OH281574   0.386   4.640   2.164  0.3054 -0.3073 -0.0543
20028TIP3    H181575   0.296   4.662   2.138  0.3580 -1.0687 -0.9256
20028TIP3    H281576   0.394   4.674   2.253 -0.6545  0.2903 -0.1806
20029TIP3   OH281577   1.191   1.315   3.434 -0.3019  0.0377  0.2096
20029TIP3    H181578   1.165   1.234   3.476 -0.7962  0.8072  1.4058
20029TIP3    H281579   1.261   1.350   3.488  1.0876 -0.4216 -1.2411
20030TIP3   OH281580   3.235   4.746  13.547 -0.0071 -0.3051  0.5024
20030TIP3    H181581   3.310   4.726  13.491 -0.3475 -0.5293  0.1270
20030TIP3    H281582   3.274   4.772  13.631  0.4733 -1.2750  0.5890
20031TIP3   OH281583   0.151   1.799   0.176  0.1937  0.0101 -0.3870
20031TIP3    H181584   0.171   1.755   0.094 -0.8658 -3.0453  0.9097
20031TIP3    H281585   0.057   1.790   0.186  0.4584 -0.6945  1.7183
20032TIP3   OH281586   0.991   2.548   3.132 -0.4175  0.0309  0.5959
20032TIP3    H181587   1.056   2.612   3.161 -0.0348 -0.8060  1.6070
20032TIP3    H281588   1.021   2.464   3.167 -1.5638 -0.5174  0.3194
20033TIP3   OH281589   3.596   0.397  12.822 -0.3477  0.4846 -0.1506
20033TIP3    H181590   3.665   0.455  12.852 -0.0668 -0.8051  1.7761
20033TIP3    H281591   3.541   0.382  12.899 -1.2985 -0.5576 -0.9947
20034TIP3   OH281592   1.471   3.948   5.359 -0.2339 -0.1543  0.3961
20034TIP3    H181593   1.375   3.947   5.368 -0.4980  0.9056 -2.0656
20034TIP3    H281594   1.495   4.040   5.368  0.5791 -0.4099  0.9262
20035TIP3   OH281595   2.170   6.697   2.297 -0.2177 -0.1643 -0.4199
20035TIP3    H181596   2.102   6.679   2.362 -0.4632  0.4718 -0.4953
20035TIP3    H281597   2.252   6.694   2.346 -0.2774 -1.2135 -0.3817
20036TIP3   OH281598   2.233   2.803   2.515  0.6997 -0.6413  0.1750
20036TIP3    H181599   2.327   2.787   2.526  0.7161 -0.3214  0.5216
20036TIP3    H281600   2.221   2.895   2.539  0.3544 -0.5810 -0.2227
20037TIP3   OH281601   0.863   5.479   1.263 -0.0669  0.3467 -0.1160
20037TIP3    H181602   0.873   5.401   1.318 -1.4552  0.0628 -0.2549
20037TIP3    H281603   0.839   5.444   1.177  1.6877  0.8056 -0.8254
20038TIP3   OH281604   0.715   5.338   1.091 -0.1163 -0.2392  0.1727
20038TIP3    H181605   0.707   5.289   1.009 -0.7304  0.2526 -0.0627
20038TIP3    H281606   0.631   5.324   1.135 -0.2354  0.4738  0.1759
20039TIP3   OH281607   3.105   0.953  13.033 -0.3849 -0.0258 -0.1486
20039TIP3    H181608   3.195   0.971  13.006 -0.3597 -0.9011 -0.6692
20039TIP3    H281609   3.054   1.026  12.995  0.0685  0.3324 -0.0665
20040TIP3   OH281610   0.100   3.108   0.612 -0.1403 -0.1900 -0.0821
20040TIP3    H181611   0.070   3.182   0.664 -1.2570 -0.9098  0.3174
20040TIP3    H281612   0.170   3.144   0.557  0.0740  0.8964  0.8911
20041TIP3   OH281613   6.529   2.879  14.715 -0.8239  0.2929 -0.5239
20041TIP3    H181614   6.470   2.897  14.789  0.5699  0.6858  0.5038
20041TIP3    H281615   6.525   2.785  14.702 -2.2571  0.3985 -0.9601
20042TIP3   OH281616   0.464   6.164   3.012  0.4235  0.0878 -0.2536
20042TIP3    H181617   0.507   6.149   3.096  0.8761  0.1991 -0.4652
20042TIP3    H281618   0.384   6.212   3.034  0.1278 -0.6144  0.1943
20043TIP3   OH281619   6.658   2.643  14.916  0.7909  0.2725  0.0160
20043TIP3    H181620   6.608   2.650  14.997 -0.1762  0.2444 -0.5708
20043TIP3    H281621   6.736   2.592  14.940 -0.4904 -1.5097  0.4776
20044TIP3   OH281622   0.669   2.962  14.148 -0.3463 -0.0232 -0.0058
20044TIP3    H181623   0.631   3.015  14.078 -1.3988  0.9390  1.2482
20044TIP3    H281624   0.594   2.936  14.202  0.6310  0.8469  1.8234
20045TIP3   OH281625   5.628   6.156  11.442 -0.4286 -0.6122 -0.2923
20045TIP3    H181626   5.619   6.096  11.516 -0.6724  1.7734  1.6962
20045TIP3    H281627   5.722   6.163  11.428 -0.2668  0.6490  1.2957
20046TIP3   OH281628   6.159   2.507   4.818 -0.3168  0.4375  0.6829
20046TIP3    H181629   6.069   2.537   4.809 -0.3762  0.1518  0.2782
20046TIP3    H281630   6.185   2.484   4.729 -0.8454 -2.3085  1.1888
20047TIP3   OH281631   1.451   0.957   5.027  0.4524 -0.0408 -0.5583
20047TIP3    H181632   1.504   0.988   4.954  0.4980  1.0516 -0.0711
20047TIP3    H281633   1.449   0.862   5.016  3.0438 -0.1741 -0.2454
20048TIP3   OH281634   0.619   2.080   2.232 -0.6715  0.3603  0.2033
20048TIP3    H181635   0.630   1.989   2.259  0.7664  0.5991  0.5138
20048TIP3    H281636   0.544   2.080   2.173 -0.9042 -0.9638  0.4964
20049TIP3   OH281637   4.623   2.353   1.074  0.1190  0.7030 -0.0057
20049TIP3    H181638   4.588   2.431   1.118  0.9963  1.0592  0.0748
20049TIP3    H281639   4.714   2.349   1.103 -0.5207 -1.6777  1.8590
20050TIP3   OH281640   3.639   1.313   0.805 -0.1260  0.2948 -0.2851
20050TIP3    H181641   3.558   1.359   0.828 -0.3752  0.0704 -0.6960
20050TIP3    H281642   3.655   1.339   0.714  0.3076  0.3984 -0.1789
20051TIP3   OH281643   5.299   0.608  14.986 -0.1069 -0.0007 -0.4028
20051TIP3    H181644   5.250   0.557  14.922  1.1464 -2.6390  0.6713
20051TIP3    H281645   5.240   0.616  15.060  0.3745 -1.6187  0.1823
20052TIP3   OH281646   0.070   3.608  13.786  0.1751 -0.3957  0.2002
20052TIP3    H181647   0.069   3.513  13.797  0.9336 -0.8258 -2.9012
20052TIP3    H281648   0.162   3.632  13.788  0.1198 -0.0228 -0.8756
20053TIP3   OH281649   3.798   1.622  12.933  0.1626 -0.1079  0.1297
20053TIP3    H181650   3.874   1.566  12.951  0.1572 -0.1742 -0.0576
20053TIP3    H281651   3.832   1.712  12.941  0.4563 -0.1375 -0.7984
20054TIP3   OH281652   1.631   2.948  14.599 -0.4229 -0.7886  0.1939
20054TIP3    H181653   1.663   3.004  14.670 -0.0056  0.1412 -0.7193
20054TIP3    H281654   1.584   2.877  14.644  0.1329 -0.4003  1.4082
20055TIP3   OH281655   2.020   6.329  10.431 -0.5233  0.2274 -0.1537
20055TIP3    H181656   1.993   6.420  10.416 -2.4348 -0.1519  0.7827
20055TIP3    H281657   1.943   6.277  10.408  0.8397 -1.2341 -1.5065
20056TIP3   OH281658   3.856   1.603   1.476  0.2504 -0.1160 -0.7243
20056TIP3    H181659   3.778   1.646   1.510  0.9317 -0.7585  1.8192
20056TIP3    H281660   3.832   1.511   1.469  1.5858 -0.8371  2.9362
20057TIP3   OH281661   0.300   0.389  12.959 -0.0655  0.0567 -0.2545
20057TIP3    H181662   0.255   0.474  12.954 -0.6824 -0.2532  0.0079
20057TIP3    H281663   0.320   0.378  13.052 -0.6387 -0.4226 -0.1859
20058TIP3   OH281664   3.277   1.038  12.840  0.2626 -0.1413 -0.0345
20058TIP3    H181665   3.274   1.123  12.796  0.6541 -0.5341 -0.8269
20058TIP3    H281666   3.215   0.983  12.792  1.3063 -0.8170 -0.6206
20059TIP3   OH281667   3.769   1.298   3.598 -0.5482 -0.2057 -0.5564
20059TIP3    H181668   3.829   1.347   3.653 -0.4256 -0.4924 -0.4302
20059TIP3    H281669   3.723   1.239   3.658  0.8945 -1.8190 -0.9933
20060TIP3   OH281670   1.191   4.376   6.553  0.2363 -0.1317 -0.0306
20060TIP3    H181671   1.210   4.283   6.561  2.1837  0.1174 -1.3764
20060TIP3    H281672   1.259   4.419   6.606  1.3345  0.6394 -2.0063
20061TIP3   OH281673   3.302   5.746   5.562  0.0430  0.5273  0.3905
20061TIP3    H181674   3.250   5.735   5.483  1.1316  1.6226 -0.4840
20061TIP3    H281675   3.255   5.812   5.612  0.2511  1.0492 -0.1043
20062TIP3   OH281676   3.056   3.725  14.865  0.2521  0.8125 -0.0280
20062TIP3    H181677   2.998   3.781  14.916 -1.6040  0.9463 -2.2298
20062TIP3    H281678   3.079   3.653  14.925 -0.1403  2.0719  1.6655
20063TIP3   OH281679   3.104   4.516   1.000  0.0054 -0.5749 -0.3371
20063TIP3    H181680   3.011   4.535   0.986 -0.1482  0.8625  2.2513
20063TIP3    H281681   3.110   4.493   1.093  2.3776  0.4656 -0.1820
20064TIP3   OH281682   4.568   2.822   0.704 -0.4722 -0.0737 -0.0320
20064TIP3    H181683   4.488   2.838   0.754 -0.1432  0.0919  0.4496
20064TIP3    H281684   4.629   2.787   0.768 -0.5602 -1.4303 -0.6685
20065TIP3   OH281685   3.882   3.510  12.321 -0.2582  0.0800 -0.2923
20065TIP3    H181686   3.959   3.535  12.371  0.5090  0.4851 -1.6447
20065TIP3    H281687   3.826   3.588  12.321 -0.3928 -0.0152  0.1679
20066TIP3   OH281688   1.937   3.351  13.642 -0.1697 -0.4547  0.0030
20066TIP3    H181689   1.881   3.380  13.714 -0.2813  0.6858 -0.5416
20066TIP3    H281690   1.922   3.415  13.573 -0.5086 -1.8699 -1.2595
20067TIP3   OH281691   2.191   2.307   3.254  0.2699  0.0427 -0.1373
20067TIP3    H181692   2.135   2.334   3.182 -0.8865 -1.6241  0.0964
20067TIP3    H281693   2.137   2.246   3.305  1.4203  0.3686  1.5404
20068TIP3   OH281694   6.641   1.830  13.960  0.0054  0.2031 -0.2245
20068TIP3    H181695   6.714   1.788  14.007  0.4390 -0.6260 -1.6065
20068TIP3    H281696   6.673   1.917  13.939  0.0338  0.3690  0.4945
20069TIP3   OH281697   0.750   2.457   5.235 -0.1279  0.1288  0.1384
20069TIP3    H181698   0.697   2.380   5.216 -0.1041  0.0899  0.2318
20069TIP3    H281699   0.721   2.485   5.322 -0.5558  0.5703 -0.1416
20070TIP3   OH281700   2.318   4.950  15.908  0.6110 -0.3606 -0.0662
20070TIP3    H181701   2.388   4.898  15.947  0.1004 -1.0985 -0.1231
20070TIP3    H281702   2.275   4.992  15.982  1.5687  0.6816 -0.0853
20071TIP3   OH281703   5.365   5.870   3.114 -0.6897  0.3142 -0.1558
20071TIP3    H181704   5.456   5.844   3.125 -1.2727 -1.1152  1.5596
20071TIP3    H281705   5.319   5.789   3.091 -2.0709  0.3339  2.3878
20072TIP3   OH281706   2.992   2.091   3.213 -0.3415 -0.0171  0.0140
20072TIP3    H181707   3.075   2.110   3.170  0.9032 -0.1668  2.3126
20072TIP3    H281708   3.013   2.085   3.306 -2.8789 -0.3214  0.6108
20073TIP3   OH281709   2.514   5.074   5.900 -0.3955  0.1789  0.4512
20073TIP3    H181710   2.547   5.136   5.965  1.3307  0.3025 -0.5075
20073TIP3    H281711   2.592   5.027   5.870 -1.1466  0.1754 -1.5698
20074TIP3   OH281712   4.218   1.722   3.122  0.1362 -0.7978 -0.2687
20074TIP3    H181713   4.214   1.762   3.209  2.1112 -0.6999 -0.2197
20074TIP3    H281714   4.133   1.678   3.113 -0.2743 -0.4176  1.4991
20075TIP3   OH281715   2.065   6.057  16.132 -0.0236 -0.0215 -0.2529
20075TIP3    H181716   2.139   5.999  16.151  0.3994  0.1683 -1.2886
20075TIP3    H281717   2.100   6.145  16.147 -0.2978  0.0217  0.1152
20076TIP3   OH281718   0.149   6.812  11.292  0.0636  0.5144 -0.0779
20076TIP3    H181719   0.064   6.851  11.269  0.3773  0.2616 -1.7305
20076TIP3    H281720   0.209   6.887  11.294  0.2301  0.4175 -1.0924
20077TIP3   OH281721   1.134   6.447  14.019 -0.2587  0.4286  0.0598
20077TIP3    H181722   1.185   6.367  14.012 -0.2877  0.5291 -1.6336
20077TIP3    H281723   1.193   6.517  13.990 -0.4056  0.9512  0.9902
20078TIP3   OH281724   1.162   4.547   0.005  0.6537  0.4375  0.0338
20078TIP3    H181725   1.166   4.642  -0.002 -1.3578  0.6442  1.1886
20078TIP3    H281726   1.079   4.530   0.050  1.9093 -1.7846  1.5782
20079TIP3   OH281727   0.488   5.556   1.427  0.0837 -0.2543  0.2435
20079TIP3    H181728   0.491   5.647   1.397  0.3688 -0.3764 -0.0978
20079TIP3    H281729   0.565   5.548   1.484 -0.0129 -0.2463  0.3752
20080TIP3   OH281730   5.411   3.170   1.241  0.2421 -0.2926  0.6245
20080TIP3    H181731   5.461   3.242   1.281  1.6746 -0.8258 -0.1802
20080TIP3    H281732   5.474   3.126   1.184 -1.1577 -0.9842 -0.4149
20081TIP3   OH281733   6.721   0.981  15.395  0.2576  0.4349  0.0413
20081TIP3    H181734   6.769   1.060  15.369 -1.0537  1.2180 -0.0692
20081TIP3    H281735   6.788   0.913  15.401  1.3766  1.5036 -0.0844
20082TIP3   OH281736   4.370   3.456   0.303  0.5909  0.5906 -0.1169
20082TIP3    H181737   4.358   3.513   0.378  1.4317 -0.3908  0.7866
20082TIP3    H281738   4.443   3.399   0.327 -0.0738 -0.7152 -1.0815
20083TIP3   OH281739   1.610   5.863  15.321  0.6522 -0.1893 -0.0763
20083TIP3    H181740   1.637   5.773  15.300  0.6698 -0.2611  0.2514
20083TIP3    H281741   1.679   5.918  15.285 -1.3575 -0.0284 -3.9690
20084TIP3   OH281742   0.022   1.588  15.237 -0.0705  0.2235  0.6675
20084TIP3    H181743   0.033   1.631  15.321 -0.5584  0.9836  0.3526
20084TIP3    H281744  -0.072   1.574  15.230 -0.2658  1.9497 -0.6028
20085TIP3   OH281745   4.546   5.739  10.615  0.0599 -0.2785  0.2466
20085TIP3    H181746   4.476   5.684  10.580  0.4068 -1.4502  1.3564
20085TIP3    H281747   4.615   5.734  10.550 -0.1719 -0.6161  0.0263
20086TIP3   OH281748   1.639   5.295  15.607  0.4278  0.1167 -0.4270
20086TIP3    H181749   1.612   5.289  15.516 -0.2421 -0.8555 -0.1767
20086TIP3    H281750   1.672   5.208  15.628 -1.6362 -0.3933  0.9275
20087TIP3   OH281751   1.727   2.293   4.525 -0.5283 -0.4237 -0.3798
20087TIP3    H181752   1.751   2.261   4.439 -3.3075 -0.0476 -1.3644
20087TIP3    H281753   1.753   2.385   4.526 -0.5500 -0.4118 -0.8692
20088TIP3   OH281754   1.026   5.203  11.264  0.3862 -0.2816  0.0366
20088TIP3    H181755   1.027   5.108  11.261  0.3945 -0.2563 -1.6664
20088TIP3    H281756   0.960   5.228  11.199  0.5459  0.8775  0.2991
20089TIP3   OH281757   3.187   1.037   5.512 -0.5445  0.1526  0.6077
20089TIP3    H181758   3.191   1.050   5.607  0.9812  0.3598  0.5282
20089TIP3    H281759   3.277   1.053   5.482 -1.0720  0.3412 -0.9036
20090TIP3   OH281760   5.952   4.716  16.898 -0.2921 -0.1209  0.2971
20090TIP3    H181761   6.007   4.701  16.821 -0.5487 -0.5450  0.1915
20090TIP3    H281762   5.971   4.805  16.926  0.7618 -0.4063  0.5121
20091TIP3   OH281763   5.177   5.347   5.991 -0.1726 -0.2169  0.1457
20091TIP3    H181764   5.203   5.439   5.984 -0.3609 -0.2604 -1.2448
20091TIP3    H281765   5.258   5.301   6.015  0.6973 -0.1107 -2.4275
20092TIP3   OH281766   4.140   1.198  10.313 -0.1698  0.2381 -0.0061
20092TIP3    H181767   4.085   1.200  10.391  0.9147 -0.0679  0.7905
20092TIP3    H281768   4.200   1.272  10.324 -0.0151  0.1941 -0.5419
20093TIP3   OH281769   3.875   0.204   6.048  0.1326 -0.0295  0.5039
20093TIP3    H181770   3.799   0.239   6.095  1.4640  2.3424  0.9887
20093TIP3    H281771   3.918   0.147   6.112  1.1351  2.0587  1.7554
20094TIP3   OH281772   5.545   3.212   5.784 -0.2406 -0.8450  0.2818
20094TIP3    H181773   5.583   3.291   5.745  2.0764 -1.6327  0.8680
20094TIP3    H281774   5.486   3.244   5.852 -0.5510  0.4021 -0.5615
20095TIP3   OH281775   4.058   0.985   1.588  0.2893 -0.0363 -0.3956
20095TIP3    H181776   4.051   1.075   1.557  0.6422  0.3836  0.7145
20095TIP3    H281777   4.137   0.985   1.642  2.1881 -1.7893 -3.0213
20096TIP3   OH281778   3.853   4.632  15.405 -0.8720  0.8391  0.3008
20096TIP3    H181779   3.764   4.666  15.395 -1.8841 -1.3665  1.6207
20096TIP3    H281780   3.844   4.538  15.392  0.9985  0.3828  2.1559
20097TIP3   OH281781   0.445   6.089   6.104  0.4162  0.9386  0.8753
20097TIP3    H181782   0.397   6.018   6.146 -0.7481  1.5149  0.5450
20097TIP3    H281783   0.459   6.152   6.174 -1.2359  1.7496  0.5095
20098TIP3   OH281784   1.442   3.272  16.895 -0.1572 -0.1520 -0.1224
20098TIP3    H181785   1.374   3.332  16.864  0.9545  1.1121 -0.1628
20098TIP3    H281786   1.414   3.186  16.864 -3.1673 -0.1203  2.1896
20099TIP3   OH281787   1.965   0.608  12.812  0.7474  0.4750  0.3495
20099TIP3    H181788   1.970   0.683  12.871 -0.9817  0.9927 -0.1351
20099TIP3    H281789   2.055   0.596  12.781  1.0572  2.3115  0.4836
20100TIP3   OH281790   3.593   4.708   3.726  0.1649 -0.3439 -0.1135
20100TIP3    H181791   3.632   4.647   3.664 -1.0287 -0.1475 -1.0768
20100TIP3    H281792   3.582   4.789   3.676 -1.1002 -0.2772  0.2626
20101TIP3   OH281793   0.088   2.318   0.764 -0.0221  0.3837 -0.1706
20101TIP3    H181794   0.050   2.268   0.692 -0.7328  2.9595 -1.6737
20101TIP3    H281795   0.170   2.274   0.784 -0.8500 -1.6253 -1.1203
20102TIP3   OH281796   3.548   5.860  13.883  0.8447 -0.3803  0.0395
20102TIP3    H181797   3.554   5.886  13.975 -1.5869  0.8735 -0.1353
20102TIP3    H281798   3.564   5.766  13.883 -2.4747 -0.9898  2.1557
20103TIP3   OH281799   3.897   1.887   1.930 -0.1223  0.4610  0.4658
20103TIP3    H181800   3.852   1.822   1.984 -0.7410  0.0235 -0.5721
20103TIP3    H281801   3.944   1.836   1.864 -0.5633  1.0548 -0.3162
20104TIP3   OH281802   4.262   0.146  14.709  0.2936  0.0026  0.6176
20104TIP3    H181803   4.258   0.220  14.770 -1.6482 -0.8497  1.5701
20104TIP3    H281804   4.209   0.078  14.750  0.9970 -1.4862 -0.8574
20105TIP3   OH281805   1.000   1.473   6.487 -0.5831 -0.0918 -0.3503
20105TIP3    H181806   1.045   1.428   6.559 -0.1526 -1.7210 -1.6166
20105TIP3    H281807   1.062   1.470   6.414 -1.6549  0.0709 -1.2820
20106TIP3   OH281808   4.990   6.027   1.284  0.2243  0.2446 -0.2747
20106TIP3    H181809   4.971   6.108   1.331  0.4931 -1.1182  2.3336
20106TIP3    H281810   4.905   5.995   1.255  0.2363  2.0156 -2.3285
20107TIP3   OH281811   6.293   0.288   3.940  0.5416  0.6615  0.4580
20107TIP3    H181812   6.293   0.240   3.857 -1.1843 -1.8668  1.8452
20107TIP3    H281813   6.222   0.351   3.931 -0.0118  0.0131  0.2112
20108TIP3   OH281814   1.714   1.349  11.467 -0.5037 -0.1678 -1.2231
20108TIP3    H181815   1.711   1.353  11.562  0.0548 -1.2499 -1.1549
20108TIP3    H281816   1.795   1.394  11.443 -1.2234  1.1448 -1.2703
20109TIP3   OH281817   5.153   0.297  14.293 -0.1293 -0.1192  0.0111
20109TIP3    H181818   5.205   0.322  14.217 -0.0823 -0.4048 -0.0518
20109TIP3    H281819   5.117   0.379  14.326 -0.6490 -0.0619 -0.6887
20110TIP3   OH281820   0.419   2.916  12.930  0.0935 -0.2629 -0.1321
20110TIP3    H181821   0.409   2.879  13.018  0.4776 -0.8944 -0.3475
20110TIP3    H281822   0.492   2.977  12.938 -1.4782  1.5781  0.5698
20111TIP3   OH281823   2.554   4.469   5.193  0.1110  0.0228 -0.9822
20111TIP3    H181824   2.512   4.527   5.256 -0.5146 -1.2262 -0.2344
20111TIP3    H281825   2.618   4.419   5.244  0.8188  0.2333 -1.6596
20112TIP3   OH281826   6.776   1.134  12.003 -0.5076  0.0123  0.0158
20112TIP3    H181827   6.791   1.168  12.091  1.8523 -0.3115 -0.2366
20112TIP3    H281828   6.851   1.078  11.985 -0.8858  0.1710 -2.2675
20113TIP3   OH281829   0.993   5.412   2.304 -0.1860  0.2521 -0.8100
20113TIP3    H181830   0.984   5.319   2.324 -0.4631  0.2468 -0.9595
20113TIP3    H281831   0.990   5.455   2.390  2.1137 -0.0425 -0.5453
20114TIP3   OH281832   1.458   1.137   1.865 -0.0580  0.1879 -0.0061
20114TIP3    H181833   1.490   1.049   1.883 -1.4742 -0.5529 -1.0483
20114TIP3    H281834   1.385   1.149   1.925 -0.5063  0.2628 -0.5583
20115TIP3   OH281835   2.916   3.107   4.907 -0.0475  0.1262  0.0525
20115TIP3    H181836   2.947   3.043   4.971  1.5335 -0.8318 -1.6172
20115TIP3    H281837   2.993   3.161   4.889 -1.5570  3.1542  2.0949
20116TIP3   OH281838   6.617   2.131  14.060  0.6194  0.0520 -0.3543
20116TIP3    H181839   6.572   2.056  14.098  0.4959  0.8294  1.0553
20116TIP3    H281840   6.571   2.147  13.977 -0.8017 -0.0432  0.4017
20117TIP3   OH281841   2.222   6.521  11.668 -0.4886  0.2073  0.2572
20117TIP3    H181842   2.225   6.472  11.750  0.2089  1.4487  0.9996
20117TIP3    H281843   2.284   6.593  11.681 -2.0074  1.7123 -0.5103
20118TIP3   OH281844   3.775   2.122  14.909 -0.4001 -0.4819  0.1377
20118TIP3    H181845   3.866   2.105  14.936 -0.3871 -1.4375 -0.4800
20118TIP3    H281846   3.782   2.197  14.850 -0.2447  0.6188  1.5322
20119TIP3   OH281847   6.694   1.262  14.281  0.0009 -0.1271 -0.4031
20119TIP3    H181848   6.704   1.328  14.212  0.9407 -0.5629 -0.7087
20119TIP3    H281849   6.732   1.303  14.359 -0.6178  0.1855 -0.2676
20120TIP3   OH281850   4.915   3.873   5.055  0.1874 -0.5721  0.7436
20120TIP3    H181851   4.892   3.879   4.962  0.9097  1.4990  0.6774
20120TIP3    H281852   4.898   3.960   5.090  1.2257 -0.9572  2.2630
20121TIP3   OH281853   6.704   3.795   2.592 -0.4618  0.2438 -0.4051
20121TIP3    H181854   6.645   3.828   2.524  0.5916  1.8351 -0.5617
20121TIP3    H281855   6.734   3.711   2.559  0.1498  1.0607 -2.0005
20122TIP3   OH281856   3.433   0.843   4.573  0.0388  0.4475 -0.8368
20122TIP3    H181857   3.507   0.895   4.541  0.3283 -0.1437 -1.1243
20122TIP3    H281858   3.471   0.789   4.642 -0.1108  0.0867 -1.0383
20123TIP3   OH281859   0.495   0.108  15.813 -1.1731  0.8414 -0.1260
20123TIP3    H181860   0.414   0.130  15.860 -1.1814  1.8226 -0.6037
20123TIP3    H281861   0.517   0.020  15.845 -0.6596  1.8661  2.4322
20124TIP3   OH281862   3.562   4.653   4.984  0.0949 -0.6741 -0.3615
20124TIP3    H181863   3.599   4.737   4.955  2.2327 -0.8175  1.7294
20124TIP3    H281864   3.586   4.591   4.916 -0.1607  0.1174 -1.1844
20125TIP3   OH281865   6.555   5.217   3.492  0.5754  0.2302  0.1384
20125TIP3    H181866   6.612   5.274   3.544  1.7256  1.1803 -2.0754
20125TIP3    H281867   6.604   5.136   3.481  0.9397  0.5498 -0.6298
20126TIP3   OH281868   6.667   4.987   2.471 -0.1901  0.1054  0.1285
20126TIP3    H181869   6.705   4.903   2.497  1.0169  0.6586  0.1704
20126TIP3    H281870   6.655   5.034   2.554 -0.5877  0.0987  0.0768
20127TIP3   OH281871   6.648   0.104   2.110  0.0353 -0.2087  0.0523
20127TIP3    H181872   6.724   0.161   2.104 -0.0491  0.2246  2.4840
20127TIP3    H281873   6.682   0.023   2.148 -0.3140 -0.8400 -0.9666
20128TIP3   OH281874   3.261   4.645  11.856 -0.2176 -0.1260  0.2764
20128TIP3    H181875   3.313   4.572  11.822 -1.7662 -1.4542  0.7119
20128TIP3    H281876   3.221   4.684  11.779  0.6949  0.3474  0.0316
20129TIP3   OH281877   4.262   6.043  14.201  0.7261 -0.1149 -0.4526
20129TIP3    H181878   4.267   6.136  14.179  0.9705 -0.0504 -0.1290
20129TIP3    H281879   4.350   6.010  14.187  0.2837 -0.6425 -2.0687
20130TIP3   OH281880   5.944   4.888  15.661  0.2482  0.5132 -0.4485
20130TIP3    H181881   5.987   4.972  15.642  0.0234  0.8243  0.4047
20130TIP3    H281882   5.858   4.896  15.618 -0.0828  1.0417  0.2828
20131TIP3   OH281883   0.674   5.703   1.689 -0.0660  0.0500 -0.5086
20131TIP3    H181884   0.617   5.777   1.710 -0.8978 -0.8956  0.6561
20131TIP3    H281885   0.762   5.733   1.715 -0.3127  0.8111 -0.5309
20132TIP3   OH281886   2.659   5.823   0.199 -0.4818 -0.3364  0.4302
20132TIP3    H181887   2.595   5.887   0.230 -0.4435  0.4564 -1.0698
20132TIP3    H281888   2.613   5.775   0.130 -0.1452 -1.1732  0.7891
20133TIP3   OH281889   3.505   1.995  15.622 -0.6383  0.2426  0.3607
20133TIP3    H181890   3.543   1.913  15.653 -1.5946 -0.5273 -0.5078
20133TIP3    H281891   3.411   1.979  15.619 -0.7362  1.0062 -0.8817
20134TIP3   OH281892   6.286   4.308   1.738  0.5332  0.4826 -0.0427
20134TIP3    H181893   6.341   4.373   1.782  1.9209 -0.0225 -0.9710
20134TIP3    H281894   6.347   4.238   1.714 -1.1535 -1.7222  1.9846
20135TIP3   OH281895   5.911   0.268  10.796 -0.2007 -0.3384  0.6134
20135TIP3    H181896   5.832   0.215  10.781 -0.3682 -0.3815  1.6181
20135TIP3    H281897   5.882   0.338  10.855  0.1387  0.5870 -0.2992
20136TIP3   OH281898   0.535   6.165  12.075 -0.1597  0.4925  0.2106
20136TIP3    H181899   0.522   6.237  12.015  2.3190 -0.5246 -1.6233
20136TIP3    H281900   0.609   6.116  12.039  0.1891 -1.2198  3.0572
20137TIP3   OH281901   1.245   3.211  12.370  0.3471 -0.1266 -0.3069
20137TIP3    H181902   1.210   3.170  12.291  1.3190 -1.3797 -0.1064
20137TIP3    H281903   1.338   3.225  12.349  0.5753 -0.3483  0.5716
20138TIP3   OH281904   5.620   4.485   2.265  0.1401 -0.3287  0.1026
20138TIP3    H181905   5.656   4.554   2.209 -0.5293 -0.8586 -1.0060
20138TIP3    H281906   5.610   4.409   2.206 -0.8510 -0.8039  0.8596
20139TIP3   OH281907   5.123   3.427  16.134 -0.2663 -0.0613  0.3569
20139TIP3    H181908   5.157   3.508  16.098  3.5608 -1.5299  0.3548
20139TIP3    H281909   5.127   3.364  16.062 -0.2423 -1.0108  1.1629
20140TIP3   OH281910   0.052   6.798  12.109 -0.1084  0.0978  0.2247
20140TIP3    H181911   0.066   6.798  12.015 -0.0282 -2.3257  0.2149
20140TIP3    H281912   0.022   6.887  12.129 -2.2508  0.0082 -2.3994
20141TIP3   OH281913   0.662   5.158  16.473  0.2815 -0.0447 -0.0484
20141TIP3    H181914   0.653   5.215  16.397 -0.1772 -0.6602 -0.4592
20141TIP3    H281915   0.574   5.151  16.508  0.9291  2.6773  2.3533
20142TIP3   OH281916   4.802   3.307  11.423  0.1817  0.1884  0.0440
20142TIP3    H181917   4.889   3.340  11.398 -0.3087  0.7775 -0.9137
20142TIP3    H281918   4.755   3.385  11.453 -0.0888 -0.0957  0.3545
20143TIP3   OH281919   0.805   4.898   3.007 -0.0028 -0.1414 -0.1149
20143TIP3    H181920   0.751   4.956   2.954  2.4349  0.4714 -2.0248
20143TIP3    H281921   0.890   4.898   2.963  0.9452 -2.7345  1.6027
20144TIP3   OH281922   3.788   2.528   6.219  0.0373  0.2808 -0.1215
20144TIP3    H181923   3.826   2.461   6.275  0.1679  0.6096  0.1836
20144TIP3    H281924   3.795   2.609   6.270 -1.7024  0.2298  0.2282
20145TIP3   OH281925   3.848   0.786   5.272 -0.2762 -0.0437  0.0829
20145TIP3    H181926   3.792   0.858   5.301 -2.7575 -2.4682  1.5070
20145TIP3    H281927   3.888   0.753   5.352  1.1717 -0.0501 -0.6170
20146TIP3   OH281928   3.291   6.409   4.591  0.3872  0.0032 -0.3643
20146TIP3    H181929   3.329   6.496   4.601 -0.1494 -0.0825  3.0669
20146TIP3    H281930   3.353   6.362   4.535  2.0761  1.7877 -0.0452
20147TIP3   OH281931   0.691   3.363   4.758 -0.4561 -0.0491 -0.3712
20147TIP3    H181932   0.598   3.368   4.779 -0.4489  2.1425 -0.7843
20147TIP3    H281933   0.727   3.304   4.825 -1.9882 -0.2171  0.3241
20148TIP3   OH281934   0.547   0.122  14.480  0.2227 -0.9416  0.3218
20148TIP3    H181935   0.615   0.163  14.534  1.7247 -0.5287 -1.8104
20148TIP3    H281936   0.551   0.029  14.502  1.1348 -0.8412  0.6169
20149TIP3   OH281937   6.809   6.169  11.969  0.4375  0.0671  0.4218
20149TIP3    H181938   6.795   6.081  12.004  1.7141  0.4817  1.9935
20149TIP3    H281939   6.904   6.179  11.964  0.3119  1.4541  0.4799
20150TIP3   OH281940   2.359   6.422   4.076  0.2602  0.0205 -0.2676
20150TIP3    H181941   2.454   6.427   4.062  0.6954 -0.7904  2.0476
20150TIP3    H281942   2.349   6.355   4.144 -1.8155  1.5790  1.0290
20151TIP3   OH281943   3.942   6.634  17.216 -0.2770  0.1626 -0.1480
20151TIP3    H181944   4.017   6.683  17.250 -0.0789  0.7989 -1.4749
20151TIP3    H281945   3.980   6.558  17.172 -0.3941  0.6270 -1.0530
20152TIP3   OH281946   2.596   4.933  13.435 -0.0797  0.0095  0.5829
20152TIP3    H181947   2.583   5.012  13.382 -0.3207  1.0805  2.1927
20152TIP3    H281948   2.684   4.945  13.473 -0.1910 -0.3939  0.9676
20153TIP3   OH281949   1.840   3.110   4.649 -0.1180  0.3021  0.3282
20153TIP3    H181950   1.852   3.198   4.685 -1.3973  1.4968 -2.0887
20153TIP3    H281951   1.887   3.112   4.565  1.1944 -1.8401  0.9663
20154TIP3   OH281952   0.090   5.544   4.283 -0.1050  0.0680 -0.1730
20154TIP3    H181953   0.039   5.539   4.202  0.3656 -0.8764 -0.4158
20154TIP3    H281954   0.179   5.563   4.253  0.0453 -0.1652  0.1273
20155TIP3   OH281955   5.783   4.306  11.555 -0.4888 -0.1971  0.7564
20155TIP3    H181956   5.863   4.255  11.570 -0.0227  0.7899  1.6846
20155TIP3    H281957   5.806   4.395  11.584 -2.3729 -0.2177  2.3144
20156TIP3   OH281958   3.660   5.948  14.680  0.5477 -0.1820  0.1059
20156TIP3    H181959   3.753   5.956  14.657  0.4894 -1.8844 -0.8242
20156TIP3    H281960   3.661   5.914  14.770  0.8191  0.3756  0.3150
20157TIP3   OH281961   1.752   3.598   3.628  0.0486  0.1346 -0.3360
20157TIP3    H181962   1.787   3.536   3.692  1.3939  0.8914 -0.3327
20157TIP3    H281963   1.811   3.673   3.632 -1.5245  1.4134 -0.3778
20158TIP3   OH281964   0.628   1.207  12.792  0.0804  0.1654 -0.0337
20158TIP3    H181965   0.591   1.133  12.743  3.3340 -1.3594 -0.3391
20158TIP3    H281966   0.639   1.276  12.727 -3.7416  1.3274  0.4109
20159TIP3   OH281967   0.071   6.108  16.952 -0.1345  0.0138 -0.2643
20159TIP3    H181968   0.039   6.086  16.864  0.0965 -2.6086  0.2862
20159TIP3    H281969   0.003   6.075  17.011  0.5283  0.2243  0.6245
20160TIP3   OH281970   1.229   1.847  14.564  0.2098  0.0113 -0.0782
20160TIP3    H181971   1.290   1.909  14.524 -0.8061  1.0027 -0.1312
20160TIP3    H281972   1.239   1.862  14.658  1.9967 -1.7383  0.0480
20161TIP3   OH281973   5.373   3.557  13.974 -0.4306  0.0399 -0.3656
20161TIP3    H181974   5.278   3.557  13.966 -0.4635  1.0942 -0.0613
20161TIP3    H281975   5.391   3.504  14.051 -0.7996  0.1959 -0.1715
20162TIP3   OH281976   2.001   6.740   3.917  0.0891  0.3202 -0.0987
20162TIP3    H181977   2.049   6.755   3.998 -1.1270 -1.6590  1.0129
20162TIP3    H281978   1.937   6.673   3.938 -0.8542  0.4019 -2.4753
20163TIP3   OH281979   6.240   2.570   0.340 -0.0615  0.1256  0.5454
20163TIP3    H181980   6.207   2.584   0.252  0.0020  0.1923  0.5327
20163TIP3    H281981   6.198   2.638   0.393  0.3325  0.4348  0.4625
20164TIP3   OH281982   0.783   4.858   6.056 -0.0480 -0.5450 -0.2314
20164TIP3    H181983   0.730   4.874   5.978 -1.4863 -1.9114  0.4368
20164TIP3    H281984   0.847   4.930   6.057 -1.1283  0.4615 -1.6921
20165TIP3   OH281985   6.067   0.920   2.082 -0.2727  0.3277  0.0520
20165TIP3    H181986   6.083   0.856   2.151 -0.3881 -0.5927 -0.7607
20165TIP3    H281987   6.104   1.002   2.116  0.2054 -0.2494  0.9440
20166TIP3   OH281988   3.506   0.872   2.160 -0.4877  0.3674 -0.6225
20166TIP3    H181989   3.562   0.950   2.165 -1.0512  0.6436  4.1274
20166TIP3    H281990   3.417   0.906   2.168 -0.8158 -0.6554  0.1805
20167TIP3   OH281991   2.024   1.262  13.365  0.3110 -1.0317  0.3165
20167TIP3    H181992   2.015   1.253  13.459 -1.3357 -0.4994  0.2197
20167TIP3    H281993   2.006   1.354  13.347  0.5582 -1.1354 -0.5246
20168TIP3   OH281994   1.089   2.683   0.050  0.2217  0.1582  0.0632
20168TIP3    H181995   1.010   2.731   0.024 -0.3686 -0.5617  0.5092
20168TIP3    H281996   1.124   2.648  -0.032 -1.4602 -1.8464  0.1521
20169TIP3   OH281997   2.702   1.622  16.934 -0.5654 -0.4776 -0.6055
20169TIP3    H181998   2.629   1.611  16.995  0.8409  0.5656  1.3036
20169TIP3    H281999   2.694   1.547  16.874 -2.0333 -1.4482  0.7545
20170TIP3   OH282000   0.457   2.996  14.915 -0.2179  0.0661  0.6187
20170TIP3    H182001   0.418   3.052  14.982 -0.6788  0.3409  0.1223
20170TIP3    H282002   0.382   2.963  14.866  0.0846 -0.5680  0.5740
20171TIP3   OH282003   6.704   0.340  12.086 -0.2951 -0.3388 -0.4670
20171TIP3    H182004   6.666   0.389  12.159  0.7222  0.0584 -0.2043
20171TIP3    H282005   6.717   0.405  12.017  1.1311 -0.2184 -0.0897
20172TIP3   OH282006   2.378   3.223  16.604 -0.1986 -0.3057  0.8159
20172TIP3    H182007   2.469   3.250  16.615 -0.2461 -0.7835  2.5520
20172TIP3    H282008   2.335   3.299  16.565  0.9594 -0.1172 -0.1072
20173TIP3   OH282009   1.288   3.203  11.439  0.3236 -0.1141  0.3922
20173TIP3    H182010   1.259   3.173  11.353 -0.5374  0.0135  0.6329
20173TIP3    H282011   1.217   3.177  11.498  0.5366  0.5380  0.9344
20174TIP3   OH282012   3.663   5.371   2.265  0.3721 -0.1091  0.4530
20174TIP3    H182013   3.702   5.408   2.345  0.1058  0.7903  0.1813
20174TIP3    H282014   3.727   5.388   2.196  0.3261 -0.3157  0.3590
20175TIP3   OH282015   5.365   2.095   1.880  0.5249 -0.1153  0.1604
20175TIP3    H182016   5.392   2.106   1.788  0.1976  0.7865  0.1740
20175TIP3    H282017   5.270   2.090   1.877  0.3933  1.7782  0.6350
20176TIP3   OH282018   2.057   4.985  12.315 -0.0815  0.1137 -0.6103
20176TIP3    H182019   2.021   5.044  12.381 -0.9642 -1.0076 -0.1016
20176TIP3    H282020   2.151   4.983  12.334 -0.5317 -1.4439  1.6182
20177TIP3   OH282021   1.160   0.388  11.258  0.1167  0.2528  0.2014
20177TIP3    H182022   1.210   0.352  11.185  1.2226 -0.1335  1.1234
20177TIP3    H282023   1.180   0.329  11.331  1.1438  2.1231  1.4767
20178TIP3   OH282024   4.438   2.627   5.225 -0.0205 -0.2907  0.0083
20178TIP3    H182025   4.452   2.570   5.149  1.5812  0.0823  0.0122
20178TIP3    H282026   4.475   2.711   5.199  0.4129 -0.1226  1.1604
20179TIP3   OH282027   1.898   4.434   1.941  0.2390  0.6375  0.3574
20179TIP3    H182028   1.869   4.492   1.871 -3.1691  0.2626  1.3724
20179TIP3    H282029   1.908   4.491   2.018  0.0963  0.3924  0.5571
20180TIP3   OH282030   0.701   2.393  13.363  0.1912 -0.0886 -0.5880
20180TIP3    H182031   0.617   2.406  13.407  0.1156 -0.7993 -0.5235
20180TIP3    H282032   0.744   2.479  13.367 -0.5486  0.2861 -0.6648
20181TIP3   OH282033   4.342   6.032  12.828 -0.4974 -0.1190  0.3343
20181TIP3    H182034   4.289   6.040  12.907 -1.1256 -3.1686  0.2877
20181TIP3    H282035   4.432   6.041  12.858 -0.8590  1.4470  0.9724
20182TIP3   OH282036   2.899   4.332  17.128 -0.0768  0.5316  0.1139
20182TIP3    H182037   2.848   4.279  17.190  0.1419  1.0179  0.7104
20182TIP3    H282038   2.907   4.418  17.170 -1.4531  1.4240 -1.3763
20183TIP3   OH282039   4.182   2.690  16.808  0.3937  0.0795 -0.0378
20183TIP3    H182040   4.117   2.621  16.798 -0.1247  0.5682 -0.0101
20183TIP3    H282041   4.133   2.766  16.840  0.8062  0.7426 -0.9590
20184TIP3   OH282042   6.319   1.209   6.204  0.5802 -0.4405  0.2208
20184TIP3    H182043   6.276   1.211   6.290 -0.2438 -1.8691 -0.1571
20184TIP3    H282044   6.388   1.276   6.211 -0.5454  0.6218  1.4206
20185TIP3   OH282045   2.470   4.861   6.360 -0.0505 -0.1343 -0.4985
20185TIP3    H182046   2.529   4.832   6.289 -0.6386 -1.4234 -0.4731
20185TIP3    H282047   2.529   4.883   6.432  0.3890 -2.3023 -0.1518
20186TIP3   OH282048   2.445   2.527  12.215 -0.3739  0.0447  0.2055
20186TIP3    H182049   2.447   2.437  12.247  0.4539 -0.1359 -0.3387
20186TIP3    H282050   2.391   2.524  12.136 -0.2157 -0.0058  0.0996
20187TIP3   OH282051   0.757   0.420   3.980  0.7158 -0.1096 -0.0713
20187TIP3    H182052   0.708   0.453   4.055  1.1172 -0.0571  0.1725
20187TIP3    H282053   0.691   0.395   3.916  0.4081  2.0234 -0.6332
20188TIP3   OH282054   2.715   3.319  15.420 -0.3584  0.2784 -0.3574
20188TIP3    H182055   2.673   3.285  15.499  0.3347 -0.9207 -0.4961
20188TIP3    H282056   2.740   3.241  15.371  3.6517  0.8759  0.5700
20189TIP3   OH282057   4.255   5.147  13.839 -0.1349 -0.2715 -0.2365
20189TIP3    H182058   4.191   5.147  13.911 -0.1403  1.5071 -0.2298
20189TIP3    H282059   4.221   5.211  13.776  0.6797 -0.6835 -1.1068
20190TIP3   OH282060   2.856   1.523  14.389  0.1657 -0.6907  0.4867
20190TIP3    H182061   2.932   1.523  14.331 -0.0621 -0.2218  0.1849
20190TIP3    H282062   2.828   1.614  14.392 -0.2915 -0.8377  0.7163
20191TIP3   OH282063   0.285   6.778   2.313 -0.0169  0.4907 -0.1797
20191TIP3    H182064   0.357   6.799   2.252 -1.7659  1.3328 -2.0182
20191TIP3    H282065   0.279   6.855   2.370  0.5032  0.4335 -0.0428
20192TIP3   OH282066   3.566   5.144   5.852 -0.5588  0.3505 -0.2016
20192TIP3    H182067   3.587   5.232   5.885 -1.3510  0.5399 -0.1964
20192TIP3    H282068   3.582   5.086   5.926 -2.4067  0.7802  0.5646
20193TIP3   OH282069   5.291   3.091   3.985  0.0873 -0.6899 -0.0701
20193TIP3    H182070   5.351   3.021   4.010  1.2466 -1.3011 -4.1445
20193TIP3    H282071   5.330   3.171   4.020 -0.0832 -1.7492  2.7038
20194TIP3   OH282072   5.078   2.677   1.966  0.2134  0.0433  0.5210
20194TIP3    H182073   5.000   2.728   1.944 -0.3357 -1.0064 -0.0210
20194TIP3    H282074   5.046   2.604   2.019  0.3154 -2.2239 -2.4004
20195TIP3   OH282075   3.205   3.295   4.259  0.7649  0.4254 -0.3335
20195TIP3    H182076   3.109   3.296   4.264  0.6854 -1.6679 -0.9295
20195TIP3    H282077   3.232   3.374   4.306 -1.1549 -0.5211  2.5065
20196TIP3   OH282078   0.903   6.331   5.259  0.0917 -0.6365  0.0756
20196TIP3    H182079   0.835   6.375   5.309 -1.0645 -1.1927 -0.9700
20196TIP3    H282080   0.983   6.344   5.309 -0.5525  1.1618  0.6424
20197TIP3   OH282081   3.909   1.772   4.989  0.8864 -0.3875  0.3218
20197TIP3    H182082   3.935   1.859   5.020  1.6190 -0.6199  0.3623
20197TIP3    H282083   3.988   1.736   4.948  0.5739 -1.0199  0.2641
20198TIP3   OH282084   2.689   4.234   1.657 -0.1348  0.3401  0.1851
20198TIP3    H182085   2.718   4.250   1.746 -2.6956  0.2913  1.0623
20198TIP3    H282086   2.606   4.188   1.666 -0.4883  0.4157 -2.2128
20199TIP3   OH282087   6.665   0.158  12.974 -0.2968  0.0651 -0.0687
20199TIP3    H182088   6.614   0.238  12.967  0.5874  0.4891 -2.0539
20199TIP3    H282089   6.615   0.093  12.924 -0.8647 -0.5721  1.2917
20200TIP3   OH282090   3.750   4.970   5.373 -0.4738 -0.0765  0.4711
20200TIP3    H182091   3.728   4.879   5.352 -0.6360 -0.0386  0.4741
20200TIP3    H282092   3.841   4.980   5.347 -0.0443 -0.6328  1.7111
20201TIP3   OH282093   5.423   6.041  15.162 -0.1287  0.1681 -0.7628
20201TIP3    H182094   5.340   5.999  15.143 -0.4781  1.1579 -1.4611
20201TIP3    H282095   5.474   6.031  15.082  0.6247 -0.8750 -0.1724
20202TIP3   OH282096   1.120   6.601  12.374  0.5017  0.1056 -0.4659
20202TIP3    H182097   1.041   6.594  12.321 -1.1568 -1.9804  2.1152
20202TIP3    H282098   1.162   6.516  12.365  1.4596  0.5642 -0.3481
20203TIP3   OH282099   0.109   3.780  16.561  0.2505  0.1362 -0.1599
20203TIP3    H182100   0.200   3.787  16.590 -0.2720  0.2465  1.4632
20203TIP3    H282101   0.059   3.833  16.623 -0.8237  0.8361 -1.5808
20204TIP3   OH282102   3.335   2.211  13.780 -0.0455 -0.3867 -0.1121
20204TIP3    H182103   3.277   2.282  13.754  0.1162 -0.6250 -1.1700
20204TIP3    H282104   3.290   2.168  13.853 -0.8081 -0.0661 -0.3880
20205TIP3   OH282105   3.202   4.185   4.042  0.4117  0.4544  0.4322
20205TIP3    H182106   3.282   4.195   4.094  0.8799 -0.1560 -0.1503
20205TIP3    H282107   3.231   4.139   3.963 -0.5731 -0.0195  0.3384
20206TIP3   OH282108   2.002   5.919   0.058  0.0990 -0.3092  0.0775
20206TIP3    H182109   1.978   6.009   0.082 -0.6315 -0.8014  1.2303
20206TIP3    H282110   1.927   5.886   0.009 -0.7088 -1.1013  1.7834
20207TIP3   OH282111   3.712   2.517   2.124  0.8681 -0.2288  0.3142
20207TIP3    H182112   3.801   2.490   2.145  1.0386 -1.2084 -1.5176
20207TIP3    H282113   3.660   2.493   2.200  1.8285 -1.5468  0.5623
20208TIP3   OH282114   4.863   0.260  14.452 -0.4550 -0.2475 -0.0327
20208TIP3    H182115   4.925   0.193  14.480 -0.3270 -0.0444  0.1654
20208TIP3    H282116   4.895   0.341  14.491 -0.7529 -0.1137 -0.0644
20209TIP3   OH282117   2.761   4.763  16.617 -0.1441  0.3546 -0.0540
20209TIP3    H182118   2.844   4.720  16.638  0.4243  1.4360 -0.0797
20209TIP3    H282119   2.707   4.693  16.580  0.3781 -0.5884  0.9481
20210TIP3   OH282120   4.254   2.104   4.629 -0.4536 -0.0102  0.1327
20210TIP3    H182121   4.309   2.143   4.561 -0.0836  1.3856  1.2009
20210TIP3    H282122   4.294   2.019   4.646 -0.2039 -0.1203 -0.9629
20211TIP3   OH282123   1.479   1.354  15.320 -0.2030  0.2924  0.0941
20211TIP3    H182124   1.443   1.396  15.398 -0.7949  0.0462 -0.0426
20211TIP3    H282125   1.470   1.261  15.336 -0.7464  0.2483 -0.4615
20212TIP3   OH282126   5.833   6.176  14.272 -0.4020 -0.6623 -0.0027
20212TIP3    H182127   5.894   6.221  14.331 -1.7599  0.6937  0.3771
20212TIP3    H282128   5.874   6.184  14.186  1.0754 -1.7476  0.5675
20213TIP3   OH282129   1.810   0.264   1.647  0.4175 -0.2988  0.2572
20213TIP3    H182130   1.781   0.328   1.711 -0.1371 -0.3620  0.0721
20213TIP3    H282131   1.750   0.274   1.573  0.3166 -1.0264  0.2274
20214TIP3   OH282132   0.730   3.183  17.258 -0.6671  0.6596  0.0156
20214TIP3    H182133   0.759   3.267  17.222  2.2007 -0.4074 -0.2705
20214TIP3    H282134   0.732   3.196  17.353  2.8649  0.0258  0.1023
20215TIP3   OH282135   4.964   2.080   4.915 -0.2898 -0.6127  0.0753
20215TIP3    H182136   4.968   2.126   4.998 -2.0776 -0.9217  0.3454
20215TIP3    H282137   4.875   2.045   4.911  0.3575 -2.1862 -1.1076
20216TIP3   OH282138   2.977   0.099  13.196 -0.1235  0.4009  0.3867
20216TIP3    H182139   2.945   0.188  13.181 -0.4797  0.2312  0.1380
20216TIP3    H282140   2.932   0.046  13.130 -0.1659 -0.0186  0.7536
20217TIP3   OH282141   3.210   3.215  16.301  0.2944  0.0529 -0.6227
20217TIP3    H182142   3.239   3.158  16.230 -1.0916 -0.5168 -0.7423
20217TIP3    H282143   3.120   3.238  16.279  0.6522  1.9004 -0.3243
20218TIP3   OH282144   4.737   4.518  16.548  0.3883 -0.4277 -0.6683
20218TIP3    H182145   4.669   4.551  16.607 -0.8391 -2.8331 -0.6444
20218TIP3    H282146   4.766   4.595  16.499 -2.1370  0.7492 -0.4291
20219TIP3   OH282147   0.244   5.805   2.738  0.0936 -0.0689 -0.2203
20219TIP3    H182148   0.255   5.838   2.648 -0.1107  1.4015  0.2756
20219TIP3    H282149   0.158   5.762   2.737  0.7070 -1.3015 -1.0820
20220TIP3   OH282150   3.471   3.915   2.570  0.1213  0.0242 -0.2419
20220TIP3    H182151   3.460   3.827   2.606  0.0816 -0.0015 -0.3168
20220TIP3    H282152   3.426   3.973   2.632  1.3225  0.1442  0.5348
20221TIP3   OH282153   1.866   4.260   1.706  0.1947 -0.4568 -0.5993
20221TIP3    H182154   1.927   4.298   1.643  1.0218 -1.4300 -0.3957
20221TIP3    H282155   1.885   4.304   1.789  1.1506 -1.3038 -0.3636
20222TIP3   OH282156   6.380   2.650   2.192  0.1129  0.6451 -0.8851
20222TIP3    H182157   6.460   2.651   2.245 -0.1608 -0.2907 -0.4540
20222TIP3    H282158   6.313   2.689   2.249 -0.5964 -1.9902  0.1278
20223TIP3   OH282159   6.573   0.219  15.528  0.2707  0.0871  0.3812
20223TIP3    H182160   6.509   0.201  15.597 -0.3284  0.5136 -0.0506
20223TIP3    H282161   6.649   0.166  15.551 -0.8800 -1.7886 -0.0512
20224TIP3   OH282162   5.706   4.521  13.190  0.3703  0.1548 -0.0815
20224TIP3    H182163   5.632   4.570  13.153 -1.7929 -0.7684  2.8322
20224TIP3    H282164   5.688   4.430  13.167  0.5938 -0.0774  0.6691
20225TIP3   OH282165   2.870   5.306  17.089 -0.2530 -0.4361  0.2711
20225TIP3    H182166   2.951   5.335  17.131  0.2587 -0.5039 -0.6663
20225TIP3    H282167   2.899   5.247  17.020 -0.9851  1.0979 -1.3793
20226TIP3   OH282168   4.376   3.411   5.367 -0.0697 -0.2276 -0.0625
20226TIP3    H182169   4.357   3.328   5.412 -1.9516  1.1063  1.7050
20226TIP3    H282170   4.455   3.444   5.411 -0.4298 -0.1513  0.5271
20227TIP3   OH282171   3.670   2.624   0.313 -0.2062 -0.0835 -0.4905
20227TIP3    H182172   3.714   2.580   0.241  1.4214  1.5003 -0.5080
20227TIP3    H282173   3.722   2.603   0.390 -0.8450 -0.2189 -0.0886
20228TIP3   OH282174   3.797   5.268  14.784  0.0049 -0.0112 -0.5030
20228TIP3    H182175   3.742   5.346  14.778 -2.6774 -1.8202 -0.8285
20228TIP3    H282176   3.757   5.216  14.853  2.2465 -0.7507  0.2767
20229TIP3   OH282177   1.555   6.091   3.028 -1.1278  0.1291  0.1144
20229TIP3    H182178   1.647   6.109   3.045 -1.0285  0.1765 -0.4899
20229TIP3    H282179   1.533   6.020   3.088  0.0034 -1.7271 -1.6503
20230TIP3   OH282180   0.949   2.977   3.879  0.2570  0.3072  0.2644
20230TIP3    H182181   0.885   2.979   3.808 -0.6372 -0.6922  1.0159
20230TIP3    H282182   0.962   2.883   3.896  1.0392  0.5280  0.9097
20231TIP3   OH282183   5.755   3.007   5.192 -0.4733  0.3125  0.1008
20231TIP3    H182184   5.699   2.957   5.132 -2.0405  2.7176 -0.5080
20231TIP3    H282185   5.717   2.991   5.279 -1.9991  1.6815 -0.2718
20232TIP3   OH282186   6.526   6.299   5.360  0.2745  0.0637  0.4282
20232TIP3    H182187   6.552   6.218   5.317 -0.2725 -1.5863  3.0686
20232TIP3    H282188   6.434   6.309   5.338  0.6738  0.7212 -1.0053
20233TIP3   OH282189   4.279   4.790  11.426 -0.4728  0.3013 -0.0767
20233TIP3    H182190   4.223   4.791  11.504 -1.0240 -2.7479 -0.3533
20233TIP3    H282191   4.245   4.716  11.374  1.4743  0.7247 -2.0050
20234TIP3   OH282192   2.412   5.915  15.379  0.0338 -0.1946 -0.3064
20234TIP3    H182193   2.449   5.841  15.330 -1.1338 -0.1220 -1.3080
20234TIP3    H282194   2.350   5.874  15.440 -1.2046  0.0063 -1.4093
20235TIP3   OH282195   0.853   1.227  14.511  0.1983  0.4459 -0.4779
20235TIP3    H182196   0.775   1.185  14.474  0.9979 -0.7744 -0.7948
20235TIP3    H282197   0.857   1.196  14.601  0.6211  0.0605 -0.6260
20236TIP3   OH282198   5.062   3.541  13.915  0.1142  0.2099 -0.2548
20236TIP3    H182199   5.015   3.572  13.838  0.5401  2.1215  0.2185
20236TIP3    H282200   5.090   3.621  13.960  1.2759 -0.8724  1.0189
20237TIP3   OH282201   1.281   4.362   1.307 -0.3120 -0.5163  0.0545
20237TIP3    H182202   1.210   4.308   1.274 -2.3717  1.9018  0.4470
20237TIP3    H282203   1.329   4.388   1.229 -1.0082 -0.5446 -0.3855
20238LIG     O182204   1.893   1.360  16.617  0.0039  0.5351 -0.5510
20238LIG     O282205   1.815   1.440  16.382  0.3839  0.3278  0.0670
20238LIG     O382206   1.862   1.070  16.561  0.1147 -0.3054  0.3026
20238LIG     O482207   1.936   1.566  16.237 -0.3176  0.6996  0.3155
20238LIG     O582208   1.996   1.207  16.312  0.5530  0.0648  0.3984
20238LIG     O682209   2.091   1.241  16.035 -0.9216  0.5365 -0.0392
20238LIG     O782210   2.194   1.515  15.990 -0.5407 -0.3027  0.1064
20238LIG     O882211   2.185   1.804  16.089 -0.6275  0.4714 -0.0928
20238LIG     O982212   1.958   1.805  16.096  0.1625  0.2926  0.3630
20238LIG      N82213   1.566   1.576  16.927 -0.6150 -0.2839  0.0024
20238LIG     C182214   1.736   1.496  16.718 -0.3595 -0.6683  0.2845
20238LIG     C282215   1.620   1.585  16.694  0.0159  0.4172 -0.2160
20238LIG     C382216   1.848   1.498  16.616 -0.0039 -0.6023  0.3811
20238LIG     C482217   1.509   1.548  16.795 -0.3836 -0.9333 -0.4147
20238LIG     C582218   1.798   1.504  16.858  0.0139 -0.1381  0.0754
20238LIG     C682219   1.687   1.351  16.713 -0.6060 -0.6047 -0.1189
20238LIG     C782220   1.454   1.405  16.778 -0.3763  1.1181 -0.5243
20238LIG     C882221   1.686   1.490  16.962  0.4446  0.5490 -0.0554
20238LIG     C982222   1.810   1.546  16.475 -0.0455 -0.3435  1.1304
20238LIG    C1082223   1.555   1.307  16.733 -0.3682 -0.3901 -0.3120
20238LIG    C1182224   1.583   1.576  16.546  0.3305 -0.1983 -0.9739
20238LIG    C1282225   1.781   1.277  16.648 -0.0522 -0.7095 -0.7922
20238LIG    C1382226   1.668   1.572  16.446 -0.2515 -0.1278  0.1406
20238LIG    C1482227   1.467   1.589  17.038  0.9459  0.6389 -0.6901
20238LIG    C1582228   1.529   1.176  16.690 -0.3227  0.3814 -1.3686
20238LIG    C1682229   1.754   1.147  16.614  0.6825  0.0647  0.3574
20238LIG    C1782230   1.623   1.094  16.625  0.1731  0.1439  0.2142
20238LIG    C1882231   1.941   1.450  16.313 -0.1825  0.0617  0.3739
20238LIG    C1982232   1.969   1.322  16.231  0.4258 -0.3175 -0.8824
20238LIG    C2082233   2.085   1.346  16.139 -0.2819  1.0180 -0.3156
20238LIG    C2182234   2.079   1.487  16.072  0.6361  0.2417  0.2617
20238LIG    C2282235   2.063   1.599  16.176  0.5289  0.3562  0.1713
20238LIG    C2382236   2.063   1.740  16.111 -0.0892  0.6202 -0.0786
20238LIG     H182237   1.665   1.683  16.720  2.5251 -1.3342  2.3360
20238LIG     H282238   1.937   1.556  16.646  1.2320 -1.8280 -0.8201
20238LIG     H382239   1.424   1.617  16.778  0.0406  1.0289  4.4697
20238LIG     H482240   1.831   1.610  16.852  2.0591 -0.6111  2.2476
20238LIG     H582241   1.885   1.436  16.870 -0.9398 -1.1651  1.2940
20238LIG     H682242   1.375   1.425  16.702 -1.6447  0.4829  0.6178
20238LIG     H782243   1.404   1.365  16.868 -0.8133 -1.5095 -1.8660
20238LIG     H882244   1.658   1.384  16.983 -1.8074  0.9808 -0.8255
20238LIG     H982245   1.728   1.527  17.058 -0.8947 -0.4893  0.9546
20238LIG    H1082246   1.867   1.635  16.439  0.7656 -0.9973  0.7747
20238LIG    H1182247   1.477   1.555  16.525 -0.0240  0.6040 -0.0744
20238LIG    H1282248   1.648   1.576  16.338 -1.3237 -0.2463  0.3355
20238LIG    H1382249   1.411   1.685  17.035 -1.0242 -0.4450  0.3597
20238LIG    H1482250   1.517   1.584  17.136  0.0025 -0.0744 -0.2342
20238LIG    H1582251   1.387   1.511  17.030 -0.0699  1.6051  0.0134
20238LIG    H1682252   1.433   1.133  16.714  0.4254 -0.1813  0.6927
20238LIG    H1782253   1.595   0.992  16.605 -0.9382  0.0967  1.8799
20238LIG    H1882254   2.017   1.462  16.393 -1.5508  3.6930  1.2264
20238LIG    H1982255   1.875   1.307  16.175 -0.2255  1.6478 -0.3648
20238LIG    H2082256   2.186   1.338  16.182  0.2606  1.8468 -1.4023
20238LIG    H2182257   1.825   0.984  16.540 -0.2647 -0.3572  1.1587
20238LIG    H2282258   1.985   1.498  16.014 -1.3116 -1.1788  3.0001
20238LIG    H2382259   2.147   1.599  16.249 -0.1197 -3.0131  0.9951
20238LIG    H2482260   1.924   1.201  16.376 -1.1388 -2.0577 -1.6329
20238LIG    H2582261   2.116   1.156  16.073 -0.2073  1.1424  0.8737
20238LIG    H2682262   2.191   1.459  15.912 -1.1013  0.0264 -0.1143
20238LIG    H2782263   2.165   1.891  16.054 -0.0113  0.3478 -0.7852
   6.82013   6.82013  17.29240
